                  Welcome to Q-Chem
     A Quantum Leap Into The Future Of Chemistry


 Q-Chem 5.4 (devel), Q-Chem, Inc., Pleasanton, CA (2021)

 E. Epifanovsky,  A. T. B. Gilbert,  Xintian Feng,  Joonho Lee,  Yuezhi Mao,  
 N. Mardirossian,  P. Pokhilko,  A. White,  M. Wormit,  M. P. Coons,  
 A. L. Dempwolff,  Zhengting Gan,  D. Hait,  P. R. Horn,  L. D. Jacobson,  
 I. Kaliman,  J. Kussmann,  A. W. Lange,  Ka Un Lao,  D. S. Levine,  Jie Liu,  
 S. C. McKenzie,  A. F. Morrison,  K. Nanda,  F. Plasser,  D. R. Rehn,  
 M. L. Vidal,  Zhi-Qiang You,  Ying Zhu,  B. Alam,  B. Albrecht,  
 A. Aldossary,  E. Alguire,  J. H. Andersen,  D. Barton,  K. Begam,  A. Behn,  
 Y. A. Bernard,  E. J. Berquist,  H. Burton,  A. Carreras,  K. Carter-Fenk,  
 R. Chakraborty,  A. D. Chien,  K. D. Closser,  V. Cofer-Shabica,  
 S. Dasgupta,  Jia Deng,  M. de Wergifosse,  M. Diedenhofen,  Hainam Do,  
 S. Ehlert,  Po-Tung Fang,  S. Fatehi,  Qingguo Feng,  T. Friedhoff,  
 J. Gayvert,  Qinghui Ge,  G. Gidofalvi,  M. Goldey,  J. Gomes,  
 C. Gonzalez-Espinoza,  S. Gulania,  A. Gunina,  M. W. D. Hanson-Heine,  
 P. H. P. Harbach,  A. W. Hauser,  M. F. Herbst,  M. Hernandez Vera,  
 M. Hodecker,  Z. C. Holden,  S. Houck,  Xunkun Huang,  Kerwin Hui,  
 B. C. Huynh,  M. Ivanov,  Hyunjun Ji,  Hanjie Jiang,  B. Kaduk,  S. Kaehler,  
 K. Khistyaev,  Jaehoon Kim,  P. Klunzinger,  Z. Koczor-Benda,  
 Joong Hoon Koh,  D. Kosenkov,  L. Koulias,  T. Kowalczyk,  C. M. Krauter,  
 K. Kue,  A. Kunitsa,  T. Kus,  A. Landau,  K. V. Lawler,  D. Lefrancois,  
 S. Lehtola,  Rain Li,  Yi-Pei Li,  Jiashu Liang,  M. Liebenthal,  
 Hung-Hsuan Lin,  You-Sheng Lin,  Fenglai Liu,  Kuan-Yu Liu,  
 M. Loipersberger,  A. Luenser,  A. Manjanath,  P. Manohar,  E. Mansoor,  
 S. F. Manzer,  Shan-Ping Mao,  A. V. Marenich,  T. Markovich,  S. Mason,  
 S. A. Maurer,  P. F. McLaughlin,  M. F. S. J. Menger,  J.-M. Mewes,  
 S. A. Mewes,  P. Morgante,  J. W. Mullinax,  K. J. Oosterbaan,  G. Paran,  
 Alexander C. Paul,  Suranjan K. Paul,  F. Pavosevic,  Zheng Pei,  S. Prager,  
 E. I. Proynov,  E. Ramos,  B. Rana,  A. E. Rask,  A. Rettig,  R. M. Richard,  
 F. Rob,  E. Rossomme,  T. Scheele,  M. Scheurer,  M. Schneider,  
 N. Sergueev,  S. M. Sharada,  W. Skomorowski,  D. W. Small,  C. J. Stein,  
 Yu-Chuan Su,  E. J. Sundstrom,  Zhen Tao,  J. Thirman,  T. Tsuchimochi,  
 N. M. Tubman,  S. P. Veccham,  O. Vydrov,  J. Wenzel,  J. Witte,  A. Yamada,  
 Kun Yao,  S. Yeganeh,  S. R. Yost,  A. Zech,  Igor Ying Zhang,  Xing Zhang,  
 Yu Zhang,  D. Zuev,  A. Aspuru-Guzik,  A. T. Bell,  N. A. Besley,  
 K. B. Bravaya,  B. R. Brooks,  D. Casanova,  Jeng-Da Chai,  S. Coriani,  
 C. J. Cramer,  A. E. DePrince, III,  R. A. DiStasio Jr.,  A. Dreuw,  
 B. D. Dunietz,  T. R. Furlani,  W. A. Goddard III,  S. Grimme,  
 S. Hammes-Schiffer,  T. Head-Gordon,  W. J. Hehre,  Chao-Ping Hsu,  
 T.-C. Jagau,  Yousung Jung,  A. Klamt,  Jing Kong,  D. S. Lambrecht,  
 WanZhen Liang,  N. J. Mayhall,  C. W. McCurdy,  J. B. Neaton,  
 C. Ochsenfeld,  J. A. Parkhill,  R. Peverati,  V. A. Rassolov,  Yihan Shao,  
 L. V. Slipchenko,  T. Stauch,  R. P. Steele,  J. E. Subotnik,  
 A. J. W. Thom,  A. Tkatchenko,  D. G. Truhlar,  T. Van Voorhis,  
 T. A. Wesolowski,  K. B. Whaley,  H. L. Woodcock III,  P. M. Zimmerman,  
 S. Faraji,  P. M. W. Gill,  M. Head-Gordon,  J. M. Herbert,  A. I. Krylov

 Additional authors for Version 5.4.1: 
 S. Kotaru,  Shaozhi Li,  Xiangyuan Li,  F. Matz,  A. Molle,  Haisheng Ren,  
 Yingli Su,  Hung-Yi Tsai,  C. Utku,  Fang Wang

 Contributors to earlier versions of Q-Chem not listed above: 
 R. D. Adamson,  B. Austin,  R. Baer,  J. Baker,  G. J. O. Beran,  
 K. Brandhorst,  S. T. Brown,  E. F. C. Byrd,  A. K. Chakraborty,  
 G. K. L. Chan,  Chun-Min Chang,  Yunqing Chen,  C.-L. Cheng,  
 Siu Hung Chien,  D. M. Chipman,  D. L. Crittenden,  H. Dachsel,  
 R. J. Doerksen,  A. D. Dutoi,  R. G. Edgar,  J. Fosso-Tande,  
 L. Fusti-Molnar,  D. Ghosh,  A. Ghysels,  A. Golubeva-Zadorozhnaya,  
 J. Gonthier,  M. S. Gordon,  S. R. Gwaltney,  G. Hawkins,  J. E. Herr,  
 A. Heyden,  S. Hirata,  E. G. Hohenstein,  G. Kedziora,  F. J. Keil,  
 C. Kelley,  Jihan Kim,  R. A. King,  R. Z. Khaliullin,  P. P. Korambath,  
 W. Kurlancheek,  A. Laurent,  A. M. Lee,  M. S. Lee,  S. V. Levchenko,  
 Ching Yeh Lin,  D. Liotard,  E. Livshits,  R. C. Lochan,  I. Lotan,  
 L. A. Martinez-Martinez,  P. E. Maslen,  N. Nair,  D. P. O'Neill,  
 D. Neuhauser,  E. Neuscamman,  C. M. Oana,  R. Olivares-Amaya,  R. Olson,  
 T. M. Perrine,  B. Peters,  P. A. Pieniazek,  A. Prociuk,  Y. M. Rhee,  
 J. Ritchie,  M. A. Rohrdanz,  E. Rosta,  N. J. Russ,  H. F. Schaefer III,  
 M. W. Schmidt,  N. E. Schultz,  S. Sharma,  N. Shenvi,  C. D. Sherrill,  
 A. C. Simmonett,  A. Sodt,  T. Stein,  D. Stuck,  K. S. Thanthiriwatte,  
 V. Vanovschi,  L. Vogt,  Tao Wang,  A. Warshel,  M. A. Watson,  
 C. F. Williams,  Q. Wu,  X. Xu,  Jun Yang,  W. Zhang,  Yan Zhao

 Please cite Q-Chem as follows:
 Y. Shao et al., Mol. Phys. 113, 184-215 (2015)
 DOI: 10.1080/00268976.2014.952696

 Q-Chem 5.4.1 for Intel X86 EM64T Linux

 Parts of Q-Chem use Armadillo 9.900.5 (Nocturnal Misbehaviour).
 http://arma.sourceforge.net/

 Q-Chem begins on Wed Jun 22 08:05:25 2022  

 Host: p09r16n04.grace.hpc.yale.internal
0

     Scratch files written to /home/tl686/scratch60/qchem_dev/scratch/qchem69252//
 Processing $rem in /home/tl686/qchem_dev/qchem/config/preferences:
 Processing $rem in /home/tl686/.qchemrc:
Applying user defined connections for MM calculations

 Checking the input file for inconsistencies... 	...done.

--------------------------------------------------------------
User input:
--------------------------------------------------------------
$molecule
0   1
 Fe 1019.54856509 27.04826824 51.96152604    -1  0   0   0   0
C 1018.19497450 28.12986394 48.93522943    -2  0   0   0   0 
C 1021.07586445 26.29692255 54.89141329    -2  0   0   0   0
C 1018.27465157 23.75430845 51.30697525    -2  0   0   0   0
C 1022.38465854 28.34437363 51.60674977    -2  0   0   0   0
C 1017.10785251 28.85569419 53.52422704    -2  0   0   0   0
O 1017.48573270 29.06876123 47.12117406    -3  0   0   0   0
O 1022.19116656 26.32615147 56.78947355    -3  0   0   0   0 
O 1017.26637267 21.86567201 50.91794031    -3  0   0   0   0
O 1024.78787940 29.67206953 51.61632232    -3  0   0   0   0 
O 1015.54254313 30.30385759 54.05185438    -3  0   0   0   0
H 1017.38928495 22.26116644 21.03330311      6     13    0    0    0 
C 1018.43989852 23.64080415 19.87467347     1     12    14    15    16
H 1018.17162086 23.08848941 17.87739231     6     13    0    0    0
H 1017.77334859 25.57726886 20.06024724     6     13    0    0    0
C 1021.28089588 23.66030754 20.51302164     2     13    17    18    19
H 1022.10113575 21.83929871 20.37027744     6     16    0    0    0
H 1022.30945127 24.75658408 19.18960073     6     16    0    0    0
C 1021.87817067 24.20103399 23.28466725     2     16    20   21   22
H 1020.92609640 26.01712650 23.77908066     6     19    0    0    0
H 1020.89842142 22.95004459 24.49919877     6     19    0    0    0
C 1024.73351683 24.65399670 23.73223157     2     19   23   24   25
H 1025.82537094 22.99981056 23.07093228     6    22    0    0    0
H 1025.39789098 26.20532314 22.59007710     6    22    0    0    0
C 1025.45087682 25.49927890 26.49730637     2    22   26   27   28
H 1024.21515528 27.01344265 27.08993439     6    25    0    0    0
H 1025.04133521 23.96153242 27.78694762     6    25    0    0    0
C 1028.20983912 26.46050943 26.53039555     2    25   29   30   31
H 1029.42221544 24.74920107 26.08968066     6    28    0    0    0
H 1028.45726418 27.91662921 24.99559374     6    28    0    0    0
C 1028.80572847 27.78259075 29.14127669     2    28   32   33   34
H 1028.07617880 29.62498069 28.75640807     6    31    0    0    0
H 1027.84161086 26.87513819 30.70854727     6    31    0    0    0
C 1031.67162948 27.60264163 29.61980046     2    31   35   36   37
H 1032.06506004 25.58163285 29.92268201     6    34    0    0    0
H 1032.60418945 28.22425608 27.87331672     6    34    0    0    0
C 1032.64218675 28.99831237 32.02255553     2    34   38   39   40
H 1031.65647633 30.82946877 32.22576046     6    37    0    0    0
H 1032.01369681 27.95611824 33.71623844     6    37    0    0    0
C 1035.64209342 29.27802208 31.86777428     2    37   41   42   43
H 1036.61015424 27.41876842 31.88535009     6    40    0    0    0
H 1035.92100386 30.48971790 30.12097950     6    40    0    0    0
C 1036.51946348 30.88185496 34.10814876     2    40   44   45   46
H 1035.71975848 32.74219858 34.03046330     6    43    0    0    0
H 1036.05795948 30.18821977 35.95574662     6    43    0    0    0
C 1039.47881391 31.46258218 34.11756878     1    43   47   48   49
H 1040.66118938 29.82518791 33.69602983     6    46    0    0    0
H 1039.97015639 32.37067647 35.88057940     6    46    0    0    0
H 1039.81045022 33.01070853 32.76474926     6    46    0    0    0
H 1024.75734310 33.07884858 47.46870122     6     51    0    0    0 
C 1023.46994377 33.08239622 45.80562033     1     50    52    53    54
H 1021.64765714 33.45732577 46.30237482     6     51    0    0    0
H 1023.97997149 34.34122932 44.39283837     6     51    0    0    0
C 1023.57086775 30.42722221 44.62046532     2     51    55    56    57
H 1022.30907230 29.16747137 45.58189408     6     54    0    0    0
H 1022.85618050 30.66790304 42.73432761     6     54    0    0    0
C 1026.37267156 29.33651934 44.64638876     2     54    58   59   60
H 1027.09335525 29.16123265 46.57338300     6     57    0    0    0
H 1026.49433587 27.42155825 43.85860371     6     57    0    0    0
C 1028.43502291 30.95365196 43.41301391     2     57   61   62   63
H 1027.66453930 31.33301169 41.60855642     6    60    0    0    0
H 1028.59848570 32.58728922 44.50024452     6    60    0    0    0
C 1031.16849975 29.71603599 43.01244808     2    60   64   65   66
H 1032.21012405 29.84519793 44.72852840     6    63    0    0    0
H 1031.12230419 27.72080340 42.77464921     6    63    0    0    0
C 1032.64425166 31.01871951 40.89274818     2    63   67   68   69
H 1034.45987397 30.03656087 40.64733854     6    66    0    0    0
H 1031.60957936 30.80030700 39.17419267     6    66    0    0    0
C 1032.90236851 33.89922239 41.25300837     2    66   70   71   72
H 1031.14590451 34.89376110 41.43475148     6    69    0    0    0
H 1033.90835078 34.15308016 43.09192182     6    69    0    0    0
C 1034.53578350 35.13067042 39.26458588     2    69   73   74   75
H 1036.19981078 33.90185904 38.83355583     6    72    0    0    0
H 1033.43428671 35.20154245 37.45128463     6    72    0    0    0
C 1035.56421151 37.62577688 40.08995975     2    72   76   77   78
H 1034.13143699 39.00589293 40.18643442     6    75    0    0    0
H 1036.38461962 37.55464499 41.99350571     6    75    0    0    0
C 1037.48255754 38.85187633 38.19730979     2    75   79   80   81
H 1039.16162689 37.81162585 38.16458682     6    78    0    0    0
H 1036.45838804 38.76245004 36.36838566     6    78    0    0    0
C 1038.22049688 41.57540626 38.85370467     2    78   82   83   84
H 1036.38993896 42.55690501 39.27876827     6    81    0    0    0
H 1039.54764415 41.86317327 40.48519227     6    81    0    0    0
C 1039.46717309 42.76985359 36.65923360     1    81   85   86   87
H 1040.43359305 44.69865758 36.97101906     6    84    0    0    0
H 1038.25396372 42.90836342 35.01739904     6    84    0    0    0
H 1040.88144508 41.61364790 35.78608078     6    84    0    0    0
H 1040.29938144 -5.61182552 35.80633641     6     89    0    0    0 
C 1041.68713068 -4.12948856 35.66433613     1     88    90    91    92
H 1042.57188864 -3.43249952 37.41375007     6     89    0    0    0
H 1043.35440291 -4.89642608 34.57474147     6     89    0    0    0
C 1040.42034038 -2.08832276 34.00558903     2     89    93    94    95
H 1039.25041795 -2.85578437 32.58601357     6     92    0    0    0
H 1038.88561484 -1.20257001 35.22928974     6     92    0    0    0
C 1042.16957363 -0.10922531 32.89595980     2     92    96   97   98
H 1043.02320041 1.09282500 34.36239161     6     95    0    0    0
H 1043.84692809 -0.97050283 32.14706770     6     95    0    0    0
C 1040.77472199 1.41912191 30.99203460     2     95   99   100   101
H 1040.44771746 0.17062851 29.32469167     6    98    0    0    0
H 1039.18245854 2.35735460 31.85069563     6    98    0    0    0
C 1042.49385504 3.69222258 30.03883811     2    98   102   103   104
H 1043.43455438 4.49382945 31.66747686     6    101    0    0    0
H 1044.09601527 2.92086281 28.94048699     6    101    0    0    0
C 1041.35634619 5.99586214 28.75181750     2    101   105   106   107
H 1040.23382074 5.51487309 27.20161115     6    104    0    0    0
H 1039.71819954 6.56109511 29.84240325     6    104    0    0    0
C 1043.06040428 8.29020701 27.95415469     2    104   108   109   110
H 1044.36368544 8.60524228 29.54794778     6    107    0    0    0
H 1044.12219216 7.82987741 26.29420150     6    107    0    0    0
C 1041.47537410 10.68118244 27.45073222     2    107   111   112   113
H 1040.14458602 10.16421254 25.90547315     6    110    0    0    0
H 1040.42725169 11.13379539 29.27416772     6    110    0    0    0
C 1042.99905877 12.93407580 26.71838209     2    110   114   115   116
H 1043.63525351 13.97484573 28.31302787     6    113    0    0    0
H 1044.79641299 12.34871012 25.75776871     6    113    0    0    0
C 1041.52874957 14.88318899 25.04731112     2    113   117   118   119
H 1041.10178434 13.81560480 23.30427544     6    116    0    0    0
H 1039.58720028 15.42876642 25.82842748     6    116    0    0    0
C 1042.78311637 17.33238560 24.17474578     2    116   120   121   122
H 1043.44193725 18.61944606 25.72945295     6    119    0    0    0
H 1044.53635843 16.91145591 23.02966318     6    119    0    0    0
C 1041.09881392 18.70803359 22.45913480     1    119   123   124   125
H 1041.78255360 20.45808064 21.79734107     6    122    0    0    0
H 1039.28775573 18.97251605 23.16345272     6    122    0    0    0
H 1041.07255102 17.53626072 20.73999981     6    122    0    0    0
H 1039.75211069 -1.16901001 43.39228328     6     127    0    0    0 
C 1038.82380904 -1.87181779 45.13247943     1     126    128    129    130
H 1037.60895016 -3.45824824 44.59015138     6     127    0    0    0
H 1040.24916482 -2.26241451 46.54389054     6     127    0    0    0
C 1036.96228456 0.10623868 45.90273977     2     127    131    132    133
H 1038.14916090 1.52905828 46.64007036     6     130    0    0    0
H 1035.95931675 0.78801021 44.29574555     6     130    0    0    0
C 1034.95600442 -0.45862940 48.01383615     2     130    134   135   136
H 1033.62615912 -2.00819394 47.57676870     6     133    0    0    0
H 1035.78580184 -1.36529226 49.58494707     6     133    0    0    0
C 1033.37617496 1.89103043 48.96009793     2     133   137   138   139
H 1034.48119455 3.47562303 49.57046590     6    136    0    0    0
H 1032.38512661 2.76743308 47.29018148     6    136    0    0    0
C 1031.52800059 1.53941905 51.33208084     2    136   140   141   142
H 1030.35970271 -0.06156862 50.73334154     6    139    0    0    0
H 1032.38263203 1.12613686 53.14123021     6    139    0    0    0
C 1030.01026747 3.91614338 51.79214106     2    139   143   144   145
H 1031.36418485 5.44715613 52.03591809     6    142    0    0    0
H 1028.95262001 4.22873084 49.91946189     6    142    0    0    0
C 1027.93859314 3.50287183 53.81621671     2    142   146   147   148
H 1026.92845440 1.65127214 53.53144565     6    145    0    0    0
H 1028.80447209 3.30115392 55.67976572     6    145    0    0    0
C 1025.96145016 5.66978166 54.03366157     2    145   149   150   151
H 1026.83632416 7.63424940 54.05925505     6    148    0    0    0
H 1024.91168966 5.60003327 52.20735813     6    148    0    0    0
C 1024.40873457 5.05102021 56.31333679     2    148   152   153   154
H 1023.93477560 3.09917927 56.22269138     6    151    0    0    0
H 1025.53073142 5.18107423 58.01027568     6    151    0    0    0
C 1022.07837949 6.83151371 56.60765795     2    151   155   156   157
H 1021.22201968 6.13304024 58.35295241     6    154    0    0    0
H 1022.84307452 8.80007831 56.66704346     6    154    0    0    0
C 1020.23541836 6.75278434 54.43285014     2    154   158   159   160
H 1021.14333759 7.80510720 52.96549747     6    157    0    0    0
H 1019.67332760 4.96768273 53.79927411     6    157    0    0    0
C 1017.82538240 8.34275253 54.87168071     1    157   161   162   163
H 1016.65627962 7.43123509 56.37317708     6    160    0    0    0
H 1016.71285711 8.58835594 53.15931591     6    160    0    0    0
H 1018.17513220 10.21683652 55.76076430     6    160    0    0    0
H 1060.38661583 12.70236910 59.86543900     6     165    0    0    0 
C 1058.85076722 12.52641800 58.47077831     1     164    166    167    168
H 1057.66848134 14.22796778 58.68245734     6     165    0    0    0
H 1059.62580515 12.19764744 56.59422155     6     165    0    0    0
C 1057.26625310 10.24661312 59.22333925     2     165    169    170    171
H 1058.27015312 8.46302619 58.83157966     6     168    0    0    0
H 1056.81838683 10.23812966 61.26849043     6     168    0    0    0
C 1054.87679421 9.93212157 57.49575069     2     168    172   173   174
H 1054.11874775 11.72624261 57.25196528     6     171    0    0    0
H 1055.58560349 9.55308784 55.57768650     6     171    0    0    0
C 1052.93077493 7.75532854 58.27785952     2     171   175   176   177
H 1054.10572152 6.19600063 58.85084936     6    174    0    0    0
H 1052.23837479 8.24479950 60.12005271     6    174    0    0    0
C 1050.86773207 6.86294388 56.34495182     2    174   178   179   180
H 1049.69413015 8.37489698 55.62337487     6    177    0    0    0
H 1051.84305780 6.26602919 54.63241816     6    177    0    0    0
C 1049.58905958 4.62792229 57.45599729     2    177   181   182   183
H 1051.05763091 3.24411416 57.94960621     6    180    0    0    0
H 1048.79185282 4.92303247 59.30193783     6    180    0    0    0
C 1047.58343248 3.52453385 55.53061392     2    180   184   185   186
H 1046.38323106 5.10489675 54.89921466     6    183    0    0    0
H 1048.48379824 2.84591741 53.83225081     6    183    0    0    0
C 1045.67923679 1.68461809 56.66274001     2    183   187   188   189
H 1046.51342359 0.48691806 58.00461497     6    186    0    0    0
H 1044.21360140 2.60009966 57.63094901     6    186    0    0    0
C 1044.50352014 0.10534212 54.49315876     2    186   190   191   192
H 1044.17353944 1.22797487 52.87969423     6    189    0    0    0
H 1045.75173861 -1.37674173 53.84265872     6    189    0    0    0
C 1042.37648470 -1.53634702 55.18558105     2    189   193   194   195
H 1043.04663184 -2.30444698 56.97311863     6    192    0    0    0
H 1040.56111677 -0.52840854 55.83653210     6    192    0    0    0
C 1041.66808090 -3.43339413 53.21622354     2    192   196   197   198
H 1040.81748288 -2.73325115 51.64434683     6    195    0    0    0
H 1043.29145973 -4.43545250 52.70465503     6    195    0    0    0
C 1039.85076520 -5.32223803 54.40169122     1    195   199   200   201
H 1039.40359836 -6.69740543 53.03684396     6    198    0    0    0
H 1038.16600728 -4.37632858 55.03667129     6    198    0    0    0
H 1040.69634674 -6.22679891 55.98290266     6    198    0    0    0
H 1051.62325052 14.94917344 52.34711569     6     203    0    0    0 
C 1051.97038553 16.18506918 53.93074243     1     202    204    205    206
H 1050.18374588 16.12573351 55.09625936     6     203    0    0    0
H 1053.66555139 15.36139646 54.86498130     6     203    0    0    0
C 1052.60781066 18.82541246 53.10017392     2     203    207    208    209
H 1054.30108459 18.84105599 51.93380183     6     206    0    0    0
H 1051.06359091 19.43513057 51.83224808     6     206    0    0    0
C 1052.75776653 20.86086246 55.16006754     2     206    210   211   212
H 1052.23147655 22.45230381 54.06180438     6     209    0    0    0
H 1051.28059314 20.77953474 56.52805929     6     209    0    0    0
C 1055.44999158 20.87273802 56.40412107     2     209   213   214   215
H 1055.39792098 19.41434259 57.87292253     6    212    0    0    0
H 1056.82341598 20.21247427 55.02720809     6    212    0    0    0
C 1056.29712731 23.50926548 57.20078888     2    212   216   217   218
H 1058.25519098 23.71831319 56.87494059     6    215    0    0    0
H 1055.45554308 24.88723117 55.99530776     6    215    0    0    0
C 1055.41001236 24.07674076 59.92028951     2    215   219   220   221
H 1053.65062338 23.14009586 60.50134433     6    218    0    0    0
H 1056.80686839 23.41612516 61.21046379     6    218    0    0    0
C 1055.05387505 27.02857695 60.14712827     2    218   222   223   224
H 1056.78813153 28.24920021 59.68007158     6    221    0    0    0
H 1053.50931433 27.61688472 58.90904060     6    221    0    0    0
C 1054.26212779 27.89137142 62.77238762     2    221   225   226   227
H 1052.89946407 26.53881140 63.42755693     6    224    0    0    0
H 1055.90392439 27.95144178 64.14252703     6    224    0    0    0
C 1052.93921655 30.49472975 62.89660186     2    224   228   229   230
H 1054.12124011 32.02974212 62.37212106     6    227    0    0    0
H 1051.38544991 30.35461240 61.56077064     6    227    0    0    0
C 1051.57112643 30.98178833 65.46259240     2    227   231   232   233
H 1049.73210048 29.89058714 65.47813826     6    230    0    0    0
H 1052.52669765 30.19089256 67.18128453     6    230    0    0    0
C 1051.13193582 33.85798224 65.96942460     2    230   234   235   236
H 1052.81460854 34.57537422 66.22901882     6    233    0    0    0
H 1050.22137749 34.85684045 64.50271483     6    233    0    0    0
C 1049.69256972 34.46057518 68.50258538     1    233   237   238   239
H 1049.04981418 36.37235066 68.72919533     6    236    0    0    0
H 1050.91097481 33.97467839 70.23959957     6    236    0    0    0
H 1048.15561688 33.10428442 68.72957527     6    236    0    0    0
H 1051.04925708 35.08748293 35.79513863     6     241    0    0    0 
C 1049.12391890 34.90134323 34.99946465     1     240    242    243    244
H 1049.31440851 33.33019759 33.70941739     6     241    0    0    0
H 1047.89288101 34.29980016 36.41880421     6     241    0    0    0
C 1048.42242392 37.47243841 33.71156977     2     241    245    246    247
H 1048.67341293 39.07213025 34.96589375     6     244    0    0    0
H 1049.85749974 37.78158601 32.32593261     6     244    0    0    0
C 1045.67825317 37.64631560 32.70344031     2     244    248   249   250
H 1045.34725053 36.29434839 31.04610088     6     247    0    0    0
H 1044.43095047 37.26469874 34.26930830     6     247    0    0    0
C 1045.19400435 40.32596075 31.71800726     2     247   251   252   253
H 1043.13906739 40.33634034 31.31667765     6    250    0    0    0
H 1045.39600629 41.65265066 33.22292147     6    250    0    0    0
C 1046.52917860 41.00697179 29.15136994     2    250   254   255   256
H 1048.59612173 40.64405186 29.26270381     6    253    0    0    0
H 1045.87728924 39.52669015 27.82969569     6    253    0    0    0
C 1045.81611028 43.55215708 28.01959259     2    253   257   258   259
H 1046.91151863 43.97013942 26.22779822     6    256    0    0    0
H 1043.82452996 43.71920294 27.63188105     6    256    0    0    0
C 1046.37117729 45.90362673 29.77618144     2    256   260   261   262
H 1045.45637611 45.59696302 31.57492508     6    259    0    0    0
H 1048.32042305 45.78338145 30.13610145     6    259    0    0    0
C 1045.93335491 48.49498198 28.43525561     2    259   263   264   265
H 1047.32943543 48.74224942 27.06137932     6    262    0    0    0
H 1044.31135416 48.38638879 27.28464652     6    262    0    0    0
C 1045.76265283 50.64894724 30.27318076     2    262   266   267   268
H 1044.82383685 50.14928783 31.99578921     6    265    0    0    0
H 1047.79192212 50.95467755 30.77980193     6    265    0    0    0
C 1044.83894494 53.11358597 29.23267196     2    265   269   270   271
H 1045.78825217 53.59773345 27.46675771     6    268    0    0    0
H 1042.77438067 53.01059585 28.84292068     6    268    0    0    0
C 1045.45866264 55.46563122 30.84204042     2    268   272   273   274
H 1045.16418412 54.82532713 32.76438759     6    271    0    0    0
H 1047.52811583 55.82178521 30.85777763     6    271    0    0    0
C 1043.97410046 57.88353151 29.94410997     1    271   275   276   277
H 1042.58274449 57.46766454 28.47306508     6    274    0    0    0
H 1045.29792183 59.12206971 28.91371828     6    274    0    0    0
H 1042.87743781 58.99863171 31.26937071     6    274    0    0    0
H 1053.04848260 14.98685810 40.18622203     6     279    0    0    0 
C 1051.95775540 15.45252268 41.89121101     1     278    280    281    282
H 1050.02020624 15.22473063 41.31177080     6     279    0    0    0
H 1052.11683399 13.86893792 43.28940979     6     279    0    0    0
C 1052.59816457 18.05822413 43.08392136     2     279    283    284    285
H 1054.35168903 17.90419406 43.94599133     6     282    0    0    0
H 1052.69548916 19.44259650 41.58619049     6     282    0    0    0
C 1050.54796695 18.58392955 45.00441999     2     282    286   287   288
H 1048.67130568 18.50973143 44.18759729     6     285    0    0    0
H 1050.59907370 17.05245159 46.43780605     6     285    0    0    0
C 1050.97801588 21.08682727 46.37374633     2     285   289   290   291
H 1052.27867519 21.12959381 47.91799105     6    288    0    0    0
H 1051.80982562 22.56710958 45.15528943     6    288    0    0    0
C 1048.52687360 21.98178526 47.54214180     2    288   292   293   294
H 1046.88838104 21.92356369 46.18221844     6    291    0    0    0
H 1048.13540933 20.57559477 49.10387044     6    291    0    0    0
C 1048.61665194 24.51171850 48.90462555     2    291   295   296   297
H 1046.87088934 24.90663356 49.82977099     6    294    0    0    0
H 1050.02314814 24.53905251 50.31979023     6    294    0    0    0
C 1049.01572913 26.78007841 47.03251917     2    294   298   299   300
H 1050.89479987 26.41891963 46.20756811     6    297    0    0    0
H 1047.73213692 27.03642484 45.36376674     6    297    0    0    0
C 1048.96879125 29.43686230 48.21278108     2    297   301   302   303
H 1047.06542665 29.96595051 48.79438882     6    300    0    0    0
H 1050.02447780 29.46601955 49.99507863     6    300    0    0    0
C 1049.81288739 31.23449263 46.24338017     2    300   304   305   306
H 1051.26366023 30.35921851 45.12045608     6    303    0    0    0
H 1048.34275988 31.72883238 44.90392160     6    303    0    0    0
C 1050.58364755 33.93790455 47.11618168     2    303   307   308   309
H 1049.40416813 34.70094382 48.55782288     6    306    0    0    0
H 1052.51623536 34.15731882 47.95871417     6    306    0    0    0
C 1050.74541411 35.92425070 45.05780816     2    306   310   311   312
H 1052.07259840 35.52880894 43.53564464     6    309    0    0    0
H 1048.92637777 36.00288332 44.11169068     6    309    0    0    0
C 1051.45899851 38.67780740 45.85391044     1    309   313   314   315
H 1051.06406225 40.22140720 44.60253726     6    312    0    0    0
H 1053.46901617 38.65535372 46.57369480     6    312    0    0    0
H 1050.34909879 39.41078214 47.42882357     6    312    0    0    0
H 1031.70596532 12.26335868 37.21378103     6     317    0    0    0 
C 1032.68589447 13.37697098 38.67850191     1     316    318    319    320
H 1033.86631820 11.94046720 39.68666820     6     317    0    0    0
H 1033.86322344 14.92445252 38.04476210     6     317    0    0    0
C 1030.70294377 14.67628975 40.35475981     2     317    321    322    323
H 1031.50580261 14.80661857 42.25653640     6     320    0    0    0
H 1030.59744275 16.59073750 39.53218757     6     320    0    0    0
C 1028.03309394 13.41859871 40.50801229     2     320    324   325   326
H 1027.03823784 13.49491944 38.67042043     6     323    0    0    0
H 1028.39894585 11.41261895 40.73439531     6     323    0    0    0
C 1026.35380244 14.49386738 42.57121292     2     323   327   328   329
H 1027.41510029 14.24117857 44.29541498     6    326    0    0    0
H 1026.54279538 16.57288184 42.46414518     6    326    0    0    0
C 1023.70363027 13.28140641 42.74533647     2    326   330   331   332
H 1022.41850885 14.16369401 41.38802491     6    329    0    0    0
H 1023.78536800 11.26930675 42.40305668     6    329    0    0    0
C 1022.62282805 13.66484221 45.32715270     2    329   333   334   335
H 1024.04769233 13.24504461 46.90231861     6    332    0    0    0
H 1022.18018243 15.60454378 45.59318861     6    332    0    0    0
C 1020.09662071 12.16190363 45.56843193     2    332   336   337   338
H 1019.23368668 12.13763726 43.68394679     6    335    0    0    0
H 1020.61021120 10.20790501 46.14783847     6    335    0    0    0
C 1018.29250172 13.26188564 47.56438930     2    335   339   340   341
H 1019.16083989 12.96382069 49.47592597     6    338    0    0    0
H 1017.96776981 15.19502796 47.17248638     6    338    0    0    0
C 1015.61233080 11.98166012 47.57082594     2    338   342   343   344
H 1014.54279125 12.06244284 45.83419372     6    341    0    0    0
H 1015.84171617 9.97355257 47.81005884     6    341    0    0    0
C 1014.13139006 13.45892053 49.67282793     2    341   345   346   347
H 1013.02036192 11.92782700 50.63660494     6    344    0    0    0
H 1015.28475444 14.13252238 51.26685769     6    344    0    0    0
C 1012.27781853 15.50013916 48.53823162     2    344   348   349   350
H 1010.95579279 14.62390251 47.30059826     6    347    0    0    0
H 1011.11163752 15.98224372 50.19153855     6    347    0    0    0
C 1013.47336198 17.68039672 47.06525457     1    347   351   352   353
H 1014.86511839 18.92196557 48.00515562     6    350    0    0    0
H 1011.94891568 18.89141749 46.24623892     6    350    0    0    0
H 1014.36955873 16.89722910 45.49331249     6    350    0    0    0
H 1049.31512690 28.91814894 37.52753522     6     355    0    0    0 
C 1048.27767374 28.26224747 39.19829356     1     354    356    357    358
H 1048.96969639 29.04842914 41.00163411     6     355    0    0    0
H 1046.38061037 29.01675486 38.91606650     6     355    0    0    0
C 1048.15731631 25.35562731 39.04559019     2     355    359    360    361
H 1047.89081787 24.70316848 37.00667090     6     358    0    0    0
H 1049.89913885 24.57710233 39.76008058     6     358    0    0    0
C 1045.99770930 23.99398898 40.51984257     2     358    362   363   364
H 1046.18467522 24.23184674 42.54176244     6     361    0    0    0
H 1044.29023076 24.86044345 39.94991545     6     361    0    0    0
C 1045.89857519 21.11222840 39.75631985     2     361   365   366   367
H 1045.57375174 20.93987585 37.71909640     6    364    0    0    0
H 1047.71446948 20.32863465 40.06927093     6    364    0    0    0
C 1043.89717971 19.75471014 41.22655693     2    364   368   369   370
H 1044.41242567 19.67333312 43.32997469     6    367    0    0    0
H 1042.13199109 20.84673594 41.11261914     6    367    0    0    0
C 1043.51151871 17.01310145 40.29788495     2    367   371   372   373
H 1042.99455407 16.98944396 38.35635528     6    370    0    0    0
H 1045.40070091 16.38471505 40.27116544     6    370    0    0    0
C 1041.86817208 15.25789501 41.77953735     2    370   374   375   376
H 1042.48058293 15.47077550 43.75228217     6    373    0    0    0
H 1040.13319591 16.28298831 41.80236300     6    373    0    0    0
C 1041.80828498 12.63383420 40.53349382     2    373   377   378   379
H 1041.36181632 12.76341601 38.51516306     6    376    0    0    0
H 1043.78092875 11.99208735 40.28605531     6    376    0    0    0
C 1040.17623696 10.51868848 41.61738009     2    376   380   381   382
H 1040.33930951 10.31949151 43.61536353     6    379    0    0    0
H 1038.10246996 10.80782482 41.59755713     6    379    0    0    0
C 1040.70741632 7.95468390 40.38099080     2    379   383   384   385
H 1041.27573823 8.25381693 38.39826122     6    382    0    0    0
H 1042.43542984 7.26125574 41.27454498     6    382    0    0    0
C 1038.42258414 6.23016663 40.32586599     2    382   386   387   388
H 1037.62185355 6.03507487 42.17111996     6    385    0    0    0
H 1037.02451489 7.30941979 39.28194782     6    385    0    0    0
C 1039.08961561 3.77194181 39.24607494     1    385   389   390   391
H 1040.67537420 3.03294418 40.31407929     6    388    0    0    0
H 1039.59575044 3.80603557 37.22819801     6    388    0    0    0
H 1037.53486564 2.54868305 39.38185319     6    388    0    0    0
H 996.20058187 35.91312460 62.52136486     6     393    0    0    0 
C 998.32268959 36.16196858 62.15045824     1     392    394    395    396
H 999.05624937 37.29549675 63.73199759     6     393    0    0    0
H 999.49413975 34.47543136 62.10061523     6     393    0    0    0
C 998.77695869 37.12820082 59.48689751     2     393    397    398    399
H 998.10629670 35.80182031 58.01637099     6     396    0    0    0
H 997.56907198 38.78272649 59.15150602     6     396    0    0    0
C 1001.49297876 38.04236873 59.15276638     2     396    400   401   402
H 1002.12587213 39.54551032 60.39249768     6     399    0    0    0
H 1002.58827540 36.46885143 59.78659534     6     399    0    0    0
C 1002.26568238 38.47334383 56.41550215     2     399   403   404   405
H 1002.28836720 36.67608567 55.36284256     6    402    0    0    0
H 1000.79373373 39.61827958 55.45763363     6    402    0    0    0
C 1004.81221936 39.73987613 56.13530053     2    402   406   407   408
H 1004.67316787 41.41571584 57.35644796     6    405    0    0    0
H 1006.46133532 38.77519904 57.09050474     6    405    0    0    0
C 1005.51162146 40.55158040 53.47709199     2    405   409   410   411
H 1005.80331133 38.93777580 52.31234880     6    408    0    0    0
H 1003.91913969 41.66209211 52.54530514     6    408    0    0    0
C 1008.09758462 41.92471640 53.58553292     2    408   412   413   414
H 1007.66605137 43.69105405 54.49275029     6    411    0    0    0
H 1009.63622964 40.98044952 54.66848474     6    411    0    0    0
C 1008.96380157 42.49669936 50.97611019     2    411   415   416   417
H 1009.15337425 40.56421093 50.07124388     6    414    0    0    0
H 1007.61676938 43.62427683 49.97681873     6    414    0    0    0
C 1011.38315653 43.96768039 50.97803363     2    414   418   419   420
H 1011.31897422 45.73769692 52.06812365     6    417    0    0    0
H 1012.92759621 42.89670596 51.76661826     6    417    0    0    0
C 1011.81174286 44.84341467 48.30506535     2    417   421   422   423
H 1012.16496654 43.11565367 47.12405311     6    420    0    0    0
H 1010.22443236 45.80025188 47.60649798     6    420    0    0    0
C 1013.97256336 46.83690220 47.85564639     2    420   424   425   426
H 1013.95472007 47.45107088 45.72488773     6    423    0    0    0
H 1013.68616055 48.59987988 48.90503545     6    423    0    0    0
C 1016.60866715 46.04284573 48.71719806     1    423   427   428   429
H 1018.07842096 47.29238666 48.08657401     6    426    0    0    0
H 1016.93405710 44.04859000 48.39654151     6    426    0    0    0
H 1016.62936845 46.36170854 50.83836643     6    426    0    0    0
H 1015.30811815 37.08367860 30.34390717     6     431    0    0    0 
C 1013.35175346 37.21038208 29.45044601     1     430    432    433    434
H 1013.23959160 39.31824498 28.98265676     6     431    0    0    0
H 1013.29078684 36.16773107 27.74557603     6     431    0    0    0
C 1011.04337844 36.44152130 31.13585748     2     431    435    436    437
H 1011.08891747 34.37647075 31.34100547     6     434    0    0    0
H 1011.39462657 37.28410166 32.85215335     6     434    0    0    0
C 1008.43281308 36.78657507 29.91040743     2     434    438   439   440
H 1007.94898254 38.68531734 29.43556135     6     437    0    0    0
H 1008.88729651 35.94000962 28.01701930     6     437    0    0    0
C 1006.17278686 35.51776205 31.34962553     2     437   441   442   443
H 1004.67907151 35.28432369 29.95213089     6    440    0    0    0
H 1006.70263008 33.60599429 31.88187246     6    440    0    0    0
C 1005.35580889 36.85099654 33.88117402     2    440   444   445   446
H 1006.91020970 36.82008543 35.21595189     6    443    0    0    0
H 1005.09149743 38.85676784 33.33210608     6    443    0    0    0
C 1002.98989035 35.64432450 34.96522026     2    443   447   448   449
H 1001.79243436 34.64176597 33.62711636     6    446    0    0    0
H 1003.44900743 34.23607815 36.63061355     6    446    0    0    0
C 1001.08145866 37.72432016 36.14064261     2    446   450   451   452
H 1000.95702876 39.42112312 34.87561281     6    449    0    0    0
H 999.16797085 37.00905423 36.56284835     6    449    0    0    0
C 1001.77746593 38.84201948 38.76142115     2    449   453   454   455
H 1002.11503316 37.32828238 40.05563046     6    452    0    0    0
H 1003.61677778 39.64035449 38.61821624     6    452    0    0    0
C 999.85832230 40.88576359 39.64484974     2    452   456   457   458
H 1000.17790348 42.57683125 38.39212178     6    455    0    0    0
H 997.96909369 40.07565503 39.56000922     6    455    0    0    0
C 1000.44639040 41.65681561 42.39550439     2    455   459   460   461
H 999.58126451 43.46244664 42.77091772     6    458    0    0    0
H 999.87163162 40.16749755 43.67998904     6    458    0    0    0
C 1003.16108588 42.33270972 42.81400344     2    458   462   463   464
H 1004.44994002 40.62612944 42.60557453     6    461    0    0    0
H 1003.64897307 43.62815139 41.36803175     6    461    0    0    0
C 1003.93911923 43.47293257 45.35606977     1    461   465   466   467
H 1003.29462271 42.30911556 46.93875667     6    464    0    0    0
H 1003.15805293 45.40592922 45.69584991     6    464    0    0    0
H 1005.90843970 43.70510806 45.85095139     6    464    0    0    0
H 1034.71003426 5.91917639 35.68963921     6     469    0    0    0 
C 1034.59595722 6.47956581 33.72436425     1     468    470    471    472
H 1036.15887890 5.63196166 32.83447388     6     469    0    0    0
H 1032.78151801 5.64448635 33.10529762     6     469    0    0    0
C 1034.32268391 9.38218334 33.12294179     2     469    473    474    475
H 1034.29906755 10.01922964 31.15088235     6     472    0    0    0
H 1032.49108345 10.07364742 33.78991218     6     472    0    0    0
C 1036.54550910 10.88705736 34.27927361     2     472    476   477   478
H 1036.33218994 11.19964834 36.24834824     6     475    0    0    0
H 1038.22564590 9.89400484 33.67169228     6     475    0    0    0
C 1036.61639793 13.49950912 33.26178402     2     475   479   480   481
H 1036.79574132 13.37952512 31.30242941     6    478    0    0    0
H 1034.87937001 14.48873322 33.51114113     6    478    0    0    0
C 1039.05913884 15.01412176 33.93171917     2    478   482   483   484
H 1039.09970060 15.35487657 35.95652905     6    481    0    0    0
H 1040.65191378 13.70299517 33.49653649     6    481    0    0    0
C 1039.33070514 17.58501255 32.55391819     2    481   485   486   487
H 1039.87964001 16.97141039 30.60940999     6    484    0    0    0
H 1037.56098121 18.60478539 32.44686228     6    484    0    0    0
C 1041.41991665 19.37507264 33.41255218     2    484   488   489   490
H 1041.16158719 19.97682807 35.34805047     6    487    0    0    0
H 1043.20060862 18.25931544 33.33083824     6    487    0    0    0
C 1041.56896658 21.70203093 31.57745559     2    487   491   492   493
H 1041.21475100 20.90972164 29.70941851     6    490    0    0    0
H 1040.05071913 23.10320706 31.88827125     6    490    0    0    0
C 1044.12237657 23.21169920 31.51753198     2    490   494   495   496
H 1044.97055505 23.57774054 33.48857535     6    493    0    0    0
H 1045.62363016 22.22799786 30.42765952     6    493    0    0    0
C 1043.65654706 25.68504696 30.20502185     2    493   497   498   499
H 1042.95854292 25.35520687 28.33465470     6    496    0    0    0
H 1041.83298134 26.42620823 31.02312636     6    496    0    0    0
C 1045.62782922 27.71527750 30.48819757     2    496   500   501   502
H 1045.78547270 28.16558701 32.33834849     6    499    0    0    0
H 1047.44670386 26.87340997 30.07296519     6    499    0    0    0
C 1045.09827570 30.27614710 29.01763543     1    499   503   504   505
H 1046.47250495 31.71870036 29.79911646     6    502    0    0    0
H 1043.02700382 30.89743812 29.22957218     6    502    0    0    0
H 1045.04357698 29.95712110 26.99844709     6    502    0    0    0
H 1032.33612482 55.81652363 31.42067089     6     507    0    0    0 
C 1031.02923276 54.65989162 30.25667062     1     506    508    509    510
H 1029.99810859 56.12119542 29.11228989     6     507    0    0    0
H 1031.93124169 53.49034996 28.87502996     6     507    0    0    0
C 1029.18317075 53.20879128 32.02185678     2     507    511    512    513
H 1030.09135715 51.79015519 33.06152538     6     510    0    0    0
H 1028.37974967 54.63677434 33.35242273     6     510    0    0    0
C 1026.89163006 52.04108133 30.54331272     2     510    514   515   516
H 1026.09622591 53.57000228 29.29793316     6     513    0    0    0
H 1027.57628545 50.51601333 29.29310075     6     513    0    0    0
C 1024.60702573 51.13946130 32.26719379     2     513   517   518   519
H 1025.30350776 49.81937532 33.85388740     6    516    0    0    0
H 1023.79429212 52.85669469 33.17649802     6    516    0    0    0
C 1022.33032208 50.05813780 30.79289421     2    516   520   521   522
H 1021.69486161 51.64058827 29.73885868     6    519    0    0    0
H 1023.32584790 48.51957982 29.70535151     6    519    0    0    0
C 1020.35434636 49.04972255 32.58989380     2    519   523   524   525
H 1021.07292944 47.58304210 33.79366285     6    522    0    0    0
H 1019.84324882 50.72246172 33.66893544     6    522    0    0    0
C 1018.02820549 47.93650756 31.49581977     2    522   526   527   528
H 1017.19169833 49.36746659 30.09463908     6    525    0    0    0
H 1018.27116758 46.15475544 30.52158462     6    525    0    0    0
C 1016.35369699 46.99226904 33.72358594     2    525   529   530   531
H 1017.09981867 45.19827016 34.45047119     6    528    0    0    0
H 1016.29691787 48.45396240 35.17394052     6    528    0    0    0
C 1013.66339071 46.41572097 32.93891609     2    528   532   533   534
H 1012.69993667 48.15751975 32.22436825     6    531    0    0    0
H 1013.53685508 44.88859248 31.51976854     6    531    0    0    0
C 1012.30229616 45.51092536 35.31023789     2    531   535   536   537
H 1013.29738988 43.72205682 35.89325146     6    534    0    0    0
H 1012.66266932 46.83205260 36.85297099     6    534    0    0    0
C 1009.40829121 44.95475398 34.96195858     2    534   538   539   540
H 1008.19188094 46.68775015 34.27965729     6    537    0    0    0
H 1009.05999500 43.42180496 33.69749242     6    537    0    0    0
C 1008.21632226 44.04837939 37.39521588     1    537   541   542   543
H 1006.44195161 43.28656807 37.07718850     6    540    0    0    0
H 1008.11805802 45.58156162 38.76052551     6    540    0    0    0
H 1009.34962685 42.39170887 38.04264207     6    540    0    0    0
H 1009.32912611 27.53128162 46.83091840     6     545    0    0    0 
C 1010.10776893 27.26809992 48.79910372     1     544    546    547    548
H 1011.76030343 28.36973657 48.79417159     6     545    0    0    0
H 1008.92965712 28.12265434 50.20409532     6     545    0    0    0
C 1010.62921444 24.50389105 49.73346836     2     545    549    550    551
H 1008.99954532 23.51879055 49.10701668     6     548    0    0    0
H 1012.03285282 23.84727708 48.30990718     6     548    0    0    0
C 1011.05285252 24.23521996 52.55196866     2     548    552   553   554
H 1012.84318524 25.22510774 52.88977325     6     551    0    0    0
H 1009.65837070 24.78261955 53.74735854     6     551    0    0    0
C 1011.33062929 21.52127541 53.45642107     2     551   555   556   557
H 1009.45031478 20.46195070 53.39601705     6    554    0    0    0
H 1012.68238764 20.60637268 52.27313066     6    554    0    0    0
C 1012.57095394 21.29308462 56.04900676     2    554   558   559   560
H 1014.58023466 21.93204858 55.94179194     6    557    0    0    0
H 1011.55999326 22.56341631 57.34827314     6    557    0    0    0
C 1012.36929069 18.42644466 56.80586367     2    557   561   562   563
H 1010.45048109 17.66368678 57.02033868     6    560    0    0    0
H 1013.39727693 17.57050427 55.23587521     6    560    0    0    0
C 1013.49212612 18.07881438 59.42016238     2    560   564   565   566
H 1015.17267588 19.23838500 59.49355978     6    563    0    0    0
H 1012.21501489 18.75337581 60.90249195     6    563    0    0    0
C 1013.94329232 15.27653663 59.85709787     2    563   567   568   569
H 1012.08247475 14.07892066 59.44573289     6    566    0    0    0
H 1015.26917531 14.60116136 58.36013836     6    566    0    0    0
C 1015.07483534 14.80170696 62.41799484     2    566   570   571   572
H 1016.93009854 15.86019307 62.79928106     6    569    0    0    0
H 1013.67209784 15.49658949 63.94623398     6    569    0    0    0
C 1015.88230784 11.99869838 62.82485804     2    569   573   574   575
H 1014.42825608 10.76092442 62.04407468     6    572    0    0    0
H 1017.51728320 11.14111654 62.03288876     6    572    0    0    0
C 1016.27781759 11.16941259 65.61844279     2    572   576   577   578
H 1014.80531088 12.06455108 66.78746889     6    575    0    0    0
H 1015.92155794 9.04084251 65.81456744     6    575    0    0    0
C 1018.72786078 11.89895361 66.75729529     1    575   579   580   581
H 1020.29208442 11.26079118 65.66454094     6    578    0    0    0
H 1019.18342214 11.00020277 68.44031867     6    578    0    0    0
H 1018.76516425 13.92149883 66.95251600     6    578    0    0    0
H 1048.43135029 11.29777690 47.19511777     6     583    0    0    0 
C 1047.35017836 11.28745208 48.94819799     1     582    584    585    586
H 1048.60416860 10.38709926 50.07174604     6     583    0    0    0
H 1047.33946097 13.24748967 49.52825755     6     583    0    0    0
C 1044.77024529 9.99719350 48.83932913     2     583    587    588    589
H 1043.37843667 10.98463387 47.68686768     6     586    0    0    0
H 1044.94924235 8.08444948 48.07619526     6     586    0    0    0
C 1043.88433163 9.57178152 51.57619130     2     586    590   591   592
H 1045.32457971 8.77625887 52.61022008     6     589    0    0    0
H 1043.45858163 11.46046439 52.48113156     6     589    0    0    0
C 1041.50727059 7.88628029 51.79264873     2     589   593   594   595
H 1039.86736558 8.68359063 50.95806828     6    592    0    0    0
H 1041.88945914 6.13487497 50.74842082     6    592    0    0    0
C 1041.05280139 7.10014262 54.38813653     2    592   596   597   598
H 1042.61007684 6.16096857 55.42506000     6    595    0    0    0
H 1040.83571909 8.79591776 55.59677079     6    595    0    0    0
C 1038.69457185 5.54502158 54.61564225     2    595   599   600   601
H 1037.07321998 6.63864896 54.12556000     6    598    0    0    0
H 1038.86210093 3.86751637 53.36245677     6    598    0    0    0
C 1038.33380921 4.40944245 57.25995780     2    598   602   603   604
H 1040.12152185 3.34123015 57.88648382     6    601    0    0    0
H 1038.15961387 6.14898785 58.39753280     6    601    0    0    0
C 1035.89364790 2.85766604 57.59667592     2    601   605   606   607
H 1034.43044599 3.70940651 56.42587211     6    604    0    0    0
H 1036.41483268 1.19767137 56.51971655     6    604    0    0    0
C 1035.08010353 2.33014692 60.37333793     2    604   608   609   610
H 1036.49820046 1.44119902 61.68571119     6    607    0    0    0
H 1034.88042405 4.26711981 61.10427891     6    607    0    0    0
C 1032.53248085 0.73340558 60.51361765     2    607   611   612   613
H 1031.37318366 1.55288767 59.04175218     6    610    0    0    0
H 1032.67165664 -1.24671420 59.91229156     6    610    0    0    0
C 1031.23096308 1.09733184 63.04389488     2    610   614   615   616
H 1032.44807913 0.19758147 64.46405912     6    613    0    0    0
H 1031.53588372 3.12116801 63.41504801     6    613    0    0    0
C 1028.66262382 -0.34347705 63.12167192     1    613   617   618   619
H 1027.77394015 0.02836963 65.01056737     6    616    0    0    0
H 1028.88483570 -2.30909835 62.98321129     6    616    0    0    0
H 1027.34847212 0.56728488 61.72473195     6    616    0    0    0
H 1023.63345717 51.06913727 64.38621619     6     621    0    0    0 
C 1025.00066488 52.62771294 63.92588894     1     620    622    623    624
H 1024.44466438 53.56805193 62.17306146     6     621    0    0    0
H 1024.96974657 53.98877078 65.57521449     6     621    0    0    0
C 1027.67447208 51.29611982 63.93336610     2     621    625    626    627
H 1029.01581551 52.74477397 63.26771665     6     624    0    0    0
H 1028.31871269 51.04512143 65.86318922     6     624    0    0    0
C 1027.71620719 48.98441103 62.26887596     2     624    628   629   630
H 1026.39642536 47.49614757 62.76909732     6     627    0    0    0
H 1027.24656191 49.72163062 60.41163039     6     627    0    0    0
C 1030.28996693 47.72392373 62.00269653     2     627   631   632   633
H 1029.88725017 46.13929253 60.81540214     6    630    0    0    0
H 1031.62330384 48.93435687 60.82469163     6    630    0    0    0
C 1031.47385261 46.83204733 64.42986326     2    630   634   635   636
H 1031.15186295 48.25071392 65.96695107     6    633    0    0    0
H 1030.38122334 45.09646752 65.00695538     6    633    0    0    0
C 1034.25600822 46.21539598 64.01920360     2    633   637   638   639
H 1034.63793674 44.41094142 62.90786916     6    636    0    0    0
H 1035.32705254 47.78645784 63.21932344     6    636    0    0    0
C 1035.30506051 45.65087096 66.76172672     2    636   640   641   642
H 1034.82055264 47.26686568 67.84632703     6    639    0    0    0
H 1034.39150591 43.95819381 67.60615025     6    639    0    0    0
C 1038.34937327 45.61320185 66.66209215     2    639   643   644   645
H 1038.94012716 43.90034120 65.58282985     6    642    0    0    0
H 1038.95183995 47.27316495 65.45643679     6    642    0    0    0
C 1039.75728767 45.97153321 69.24782696     2    642   646   647   648
H 1039.32245077 47.82772551 70.01953428     6    645    0    0    0
H 1038.95319966 44.44808970 70.51467833     6    645    0    0    0
C 1042.58492121 45.47550265 69.02728898     2    645   649   650   651
H 1043.27948429 43.63900376 68.41940422     6    648    0    0    0
H 1043.06354718 46.82879372 67.54302519     6    648    0    0    0
C 1043.90962567 46.24234910 71.52014084     2    648   652   653   654
H 1043.16591667 48.07062175 72.27411446     6    651    0    0    0
H 1043.32252310 44.83433217 73.01051326     6    651    0    0    0
C 1046.83588457 46.37557121 71.25556773     1    651   655   656   657
H 1047.40290348 47.84286752 69.91655268     6    654    0    0    0
H 1047.36981216 44.47793130 70.77264468     6    654    0    0    0
H 1047.57931980 46.85087372 73.07527361     6    654    0    0    0
H 1041.00713336 20.47816841 49.51783757     6     659    0    0    0 
C 1041.88270774 18.87457952 50.35111606     1     658    660    661    662
H 1041.05004066 17.09881136 49.68904030     6     659    0    0    0
H 1043.80773599 18.86523410 49.71418929     6     659    0    0    0
C 1041.77052161 18.84906266 53.19247297     2     659    663    664    665
H 1043.05352563 17.34260881 53.84418594     6     662    0    0    0
H 1042.93623166 20.41884288 53.95612466     6     662    0    0    0
C 1039.11429674 18.29545587 54.32793846     2     662    666   667   668
H 1039.20804832 18.95014218 56.20064117     6     665    0    0    0
H 1037.84542131 19.50544312 53.30474795     6     665    0    0    0
C 1038.28742429 15.58805128 54.49289457     2     665   669   670   671
H 1037.93306862 14.87360588 52.59396645     6    668    0    0    0
H 1039.66356599 14.03314584 55.19360132     6    668    0    0    0
C 1035.80003469 15.44062391 55.94025115     2    668   672   673   674
H 1036.22529456 16.25518072 57.68804108     6    671    0    0    0
H 1034.40837484 16.61383147 55.08993969     6    671    0    0    0
C 1034.57328864 12.70343526 56.30078155     2    671   675   676   677
H 1033.82113512 11.85662255 54.52550747     6    674    0    0    0
H 1035.98931297 11.30411936 57.00212543     6    674    0    0    0
C 1032.13779749 12.82739190 57.85003072     2    674   678   679   680
H 1032.80151650 13.57897879 59.78375656     6    677    0    0    0
H 1030.86836583 13.96053569 57.00841510     6    677    0    0    0
C 1030.64999838 10.29245928 58.05042884     2    677   681   682   683
H 1030.22930601 9.66622570 56.19910506     6    680    0    0    0
H 1031.96609378 8.81503980 58.81295516     6    680    0    0    0
C 1028.25988196 10.32890479 59.52481544     2    680   684   685   686
H 1026.60292512 10.81666745 58.25590711     6    683    0    0    0
H 1027.80549337 8.36386550 59.81798093     6    683    0    0    0
C 1028.50105899 11.57964936 62.08756863     2    683   687   688   689
H 1029.97832326 10.37398270 63.14676715     6    686    0    0    0
H 1029.00438698 13.62456910 61.85043469     6    686    0    0    0
C 1026.03210293 11.35293410 63.51133450     2    686   690   691   692
H 1024.56915350 12.26400729 62.44538499     6    689    0    0    0
H 1025.29069953 9.46563687 63.30466266     6    689    0    0    0
C 1026.08143076 12.43033812 66.21194959     1    689   693   694   695
H 1024.29376282 12.10354415 67.09651828     6    692    0    0    0
H 1026.51622678 14.46744556 66.20305618     6    692    0    0    0
H 1027.54462699 11.58065442 67.44577770     6    692    0    0    0
H 1002.39081399 22.48978725 62.53501841     6     697    0    0    0 
C 1003.87858878 21.32266566 62.14142762     1     696    698    699    700
H 1005.56390962 22.05011295 63.07930062     6     697    0    0    0
H 1003.63698935 19.58785661 63.24517341     6     697    0    0    0
C 1004.17972349 20.41642933 59.41424718     2     697    701    702    703
H 1005.87638734 19.01395244 59.31833615     6     700    0    0    0
H 1002.57465787 19.31094242 58.82413150     6     700    0    0    0
C 1005.00465401 22.46837397 57.60157835     2     700    704   705   706
H 1006.63727800 23.55989943 58.12820606     6     703    0    0    0
H 1005.68354857 21.30527176 55.91218893     6     703    0    0    0
C 1002.92737602 24.28515119 56.72679820     2     703   707   708   709
H 1001.49709232 23.10556150 55.79050691     6    706    0    0    0
H 1002.09982097 25.28386886 58.46328480     6    706    0    0    0
C 1003.58449933 26.20250515 54.63675330     2    706   710   711   712
H 1004.78505369 27.77598506 55.48499437     6    709    0    0    0
H 1004.69951398 25.02838670 53.50879875     6    709    0    0    0
C 1001.49037736 27.20329568 53.09243618     2    709   713   714   715
H 1000.01590979 25.95262489 53.14900099     6    712    0    0    0
H 1000.92311296 28.85077144 53.97013268     6    712    0    0    0
C 1002.13307270 27.87577137 50.31176123     2    712   716   717   718
H 1003.56446041 29.40295581 50.39946522     6    715    0    0    0
H 1002.92492959 26.23597969 49.28324870     6    715    0    0    0
C 999.68945115 28.83019883 48.86234656     2    715   719   720   721
H 998.43254574 27.30289429 48.81415031     6    718    0    0    0
H 998.77738987 30.21669868 50.16471742     6    718    0    0    0
C 1000.16373606 30.01300648 46.21132322     2    718   722   723   724
H 1001.89398884 31.06365028 46.48451007     6    721    0    0    0
H 1000.52572435 28.47602231 44.77133028     6    721    0    0    0
C 998.03487248 31.89623191 45.42429434     2    721   725   726   727
H 996.11681123 31.28389473 45.54096645     6    724    0    0    0
H 998.18240968 33.58617977 46.77266734     6    724    0    0    0
C 998.12817685 32.97576523 42.71457243     2    724   728   729   730
H 996.41175893 34.29176250 42.19759988     6    727    0    0    0
H 999.96412425 33.99829638 42.47526050     6    727    0    0    0
C 997.90440332 31.02865107 40.70078924     1    727   731   732   733
H 996.92977731 31.79505774 39.03761693     6    730    0    0    0
H 996.70130633 29.42168288 41.27320298     6    730    0    0    0
H 999.74548067 30.22830771 40.13296753     6    730    0    0    0
H 1023.72667208 10.72411259 37.56841029     6     735    0    0    0 
C 1022.13452531 10.07165640 36.25237170     1     734    736    737    738
H 1021.10771076 8.79278510 37.32113315     6     735    0    0    0
H 1020.82214683 11.68404863 36.05455772     6     735    0    0    0
C 1022.96650079 9.12693669 33.62595931     2     735    739    740    741
H 1024.47727112 7.64174727 33.52152145     6     738    0    0    0
H 1021.27479811 8.27460718 32.67201345     6     738    0    0    0
C 1023.41606128 11.24733174 31.71121084     2     738    742   743   744
H 1023.59149395 10.33615773 29.77511233     6     741    0    0    0
H 1021.77138018 12.48837447 31.47403985     6     741    0    0    0
C 1026.16738252 12.39852839 32.09369533     2     741   745   746   747
H 1026.33861056 13.33575107 33.99076387     6    744    0    0    0
H 1027.38395844 10.72420123 32.00319034     6    744    0    0    0
C 1026.95435625 14.11520388 29.97221860     2    744   748   749   750
H 1026.73249276 13.11864179 28.08795657     6    747    0    0    0
H 1025.49831077 15.67193505 30.25204285     6    747    0    0    0
C 1029.63109192 15.21255620 30.14831349     2    747   751   752   753
H 1029.91087054 16.19450662 31.97709421     6    750    0    0    0
H 1031.03736763 13.68267350 30.24211033     6    750    0    0    0
C 1030.25314707 17.17069869 28.07489195     2    750   754   755   756
H 1030.07064417 16.15820245 26.29162516     6    753    0    0    0
H 1028.69274641 18.58329399 27.98035378     6    753    0    0    0
C 1032.75820803 18.51641138 28.54151451     2    753   757   758   759
H 1032.73383395 19.31663385 30.44754374     6    756    0    0    0
H 1034.30671660 17.27643848 28.52357094     6    756    0    0    0
C 1033.28067863 20.32195181 26.56327945     2    756   760   761   762
H 1033.16758213 19.50077886 24.64953078     6    759    0    0    0
H 1031.72734272 21.66491464 26.67209729     6    759    0    0    0
C 1035.64741839 22.03631564 26.96757279     2    759   763   764   765
H 1035.84233725 22.66832723 28.95794175     6    762    0    0    0
H 1037.26396983 20.78013109 26.64463001     6    762    0    0    0
C 1035.78404089 24.44657628 25.30284064     2    762   766   767   768
H 1035.61212064 24.09887698 23.28198450     6    765    0    0    0
H 1034.33292056 25.81236700 25.73244807     6    765    0    0    0
C 1038.37210787 25.77419081 25.60826316     1    765   769   770   771
H 1038.59148870 26.07672115 27.58371598     6    768    0    0    0
H 1038.35776745 27.53008444 24.49602031     6    768    0    0    0
H 1040.08146537 24.68206654 25.20363387     6    768    0    0    0
H 1035.93471306 54.19490142 55.48323455     6     773    0    0    0 
C 1035.43253331 55.17792235 57.17025742     1     772    774    775    776
H 1035.76626942 53.84005251 58.75866838     6     773    0    0    0
H 1036.99356992 56.66500502 57.13854880     6     773    0    0    0
C 1032.80216097 56.42208154 57.13126258     2     773    777    778    779
H 1032.33547819 57.48883203 58.81578776     6     776    0    0    0
H 1032.83446742 57.83167111 55.79900099     6     776    0    0    0
C 1030.69900911 54.48952071 56.56484807     2     776    780   781   782
H 1031.00795369 53.20706942 55.01104786     6     779    0    0    0
H 1030.57106429 53.52941513 58.41021398     6     779    0    0    0
C 1028.00003609 55.73681798 56.30827517     2     779   783   784   785
H 1027.70699486 56.95507725 57.94078667     6    782    0    0    0
H 1027.89860441 57.20537488 54.81522518     6    782    0    0    0
C 1025.81255117 53.82211213 56.25625515     2    782   786   787   788
H 1026.20651454 52.38189341 54.74664649     6    785    0    0    0
H 1025.74666647 52.90731097 58.08125250     6    785    0    0    0
C 1023.32978762 55.14021114 55.53827265     2    785   789   790   791
H 1022.97569714 56.43558971 57.16731029     6    788    0    0    0
H 1023.57614879 56.18210697 53.75096948     6    788    0    0    0
C 1021.30029651 52.93748472 55.56213816     2    788   792   793   794
H 1021.89166866 51.61457710 53.96617107     6    791    0    0    0
H 1021.47283296 51.75829341 57.22876024     6    791    0    0    0
C 1018.49755063 53.72323586 55.31354672     2    791   795   796   797
H 1017.85468877 54.68417892 57.04622338     6    794    0    0    0
H 1018.60305654 55.00029906 53.83922344     6    794    0    0    0
C 1016.64878657 51.49733255 55.01931766     2    794   798   799   800
H 1016.63210005 50.76198107 53.08191594     6    797    0    0    0
H 1017.03509145 50.03347621 56.46602700     6    797    0    0    0
C 1014.10710507 52.61895651 55.70493470     2    797   801   802   803
H 1013.78220051 52.60331649 57.81133344     6    800    0    0    0
H 1013.86514672 54.54864248 55.13210772     6    800    0    0    0
C 1012.00849973 51.07325028 54.55911787     2    800   804   805   806
H 1012.32342371 51.07476594 52.47896309     6    803    0    0    0
H 1012.27149324 49.12799427 55.21516929     6    803    0    0    0
C 1009.39746668 52.14714644 55.33058821     1    803   807   808   809
H 1007.90974222 51.01715509 54.54350122     6    806    0    0    0
H 1009.10339738 54.00836509 54.63862224     6    806    0    0    0
H 1009.34046280 52.03515600 57.31413248     6    806    0    0    0
H 1040.93258833 24.41674275 43.23707685     6     811    0    0    0 
C 1040.87276509 25.41352468 44.99810517     1     810    812    813    814
H 1039.54921052 24.22943175 46.06892732     6     811    0    0    0
H 1042.72821268 25.28405713 45.88789923     6     811    0    0    0
C 1039.94315231 28.03867593 44.47493085     2     811    815    816    817
H 1037.96991261 28.13954990 43.81449786     6     814    0    0    0
H 1039.82654139 29.01597574 46.28900092     6     814    0    0    0
C 1041.87588447 29.56535048 42.90692663     2     814    818   819   820
H 1043.68774505 28.80159676 43.13877948     6     817    0    0    0
H 1041.31613018 29.10039514 41.06035714     6     817    0    0    0
C 1041.73843282 32.40386087 43.43868081     2     817   821   822   823
H 1039.82130770 33.13186011 43.43457921     6    820    0    0    0
H 1042.40963960 32.78661542 45.42146176     6    820    0    0    0
C 1043.48732326 34.03327446 41.55918383     2    820   824   825   826
H 1045.27353875 33.14169880 41.14714766     6    823    0    0    0
H 1042.70981252 33.94748428 39.66641821     6    823    0    0    0
C 1043.85557304 36.78140599 42.40062576     2    823   827   828   829
H 1041.98730571 37.50703591 43.03687002     6    826    0    0    0
H 1044.92889224 36.74018568 44.20688437     6    826    0    0    0
C 1045.13093379 38.47875573 40.41267978     2    826   830   831   832
H 1046.99423959 37.65407564 40.15685878     6    829    0    0    0
H 1044.18065054 38.58153944 38.52724118     6    829    0    0    0
C 1045.23786772 41.04214105 41.49906171     2    829   833   834   835
H 1043.29916712 41.73521788 42.09891785     6    832    0    0    0
H 1046.37774415 41.16890953 43.22698209     6    832    0    0    0
C 1045.94991346 42.96415343 39.53571523     2    832   836   837   838
H 1047.74930777 42.35669019 38.89173722     6    835    0    0    0
H 1044.87339920 43.04123106 37.70641033     6    835    0    0    0
C 1046.09423634 45.65946520 40.35155972     2    835   839   840   841
H 1044.30630318 46.30293419 41.22811758     6    838    0    0    0
H 1047.39268549 45.58224149 42.00186795     6    838    0    0    0
C 1046.79424972 47.65478965 38.43650553     2    838   842   843   844
H 1048.65787852 47.72973236 37.81834622     6    841    0    0    0
H 1045.56951917 47.25489407 36.91746554     6    841    0    0    0
C 1046.08158986 50.30005575 39.35508984     1    841   845   846   847
H 1044.12304775 50.68443698 39.53515105     6    844    0    0    0
H 1047.20998308 51.74955612 38.47737356     6    844    0    0    0
H 1046.60584225 50.54315183 41.36447768     6    844    0    0    0
H 1029.74386479 -0.01539269 75.23198618     6     849    0    0    0 
C 1030.77184385 -0.39605377 73.55265820     1     848    850    851    852
H 1031.84115653 -2.14200435 73.59748507     6     849    0    0    0
H 1029.18466676 -0.89686328 72.16294548     6     849    0    0    0
C 1032.31070901 1.64459076 72.24351367     2     849    853    854    855
H 1034.15880927 2.03082668 72.95470504     6     852    0    0    0
H 1032.64834052 0.96325673 70.27669838     6     852    0    0    0
C 1030.99698623 4.28155439 72.16042465     2     852    856   857   858
H 1029.00570791 4.23700214 72.39950960     6     855    0    0    0
H 1031.19317429 5.42925396 73.85558247     6     855    0    0    0
C 1031.38127338 5.73046984 69.64509638     2     855   859   860   861
H 1030.98775704 4.59128440 68.05364045     6    858    0    0    0
H 1029.94229328 7.27375817 69.65721653     6    858    0    0    0
C 1033.89088517 7.17168025 69.27601013     2    858   862   863   864
H 1034.52546187 8.31742517 70.94444472     6    861    0    0    0
H 1035.32378925 5.64612620 69.01844959     6    861    0    0    0
C 1033.64855663 8.74250399 66.83959320     2    861   865   866   867
H 1033.26340179 7.26305888 65.34386862     6    864    0    0    0
H 1031.97439617 10.03513177 66.89160385     6    864    0    0    0
C 1036.05588562 10.13789157 65.99955762     2    864   868   869   870
H 1036.70488113 11.35291409 67.40288738     6    867    0    0    0
H 1037.55564436 8.73911489 65.54578663     6    867    0    0    0
C 1035.73403824 11.79314100 63.70532294     2    867   871   872   873
H 1035.03191959 10.64177764 62.11437233     6    870    0    0    0
H 1034.51945588 13.23087176 64.18736496     6    870    0    0    0
C 1038.16196348 13.23550120 62.86194754     2    870   874   875   876
H 1037.53461268 14.48071206 61.24938528     6    873    0    0    0
H 1038.54591108 14.37828930 64.44660988     6    873    0    0    0
C 1040.29308473 11.36030253 62.03972219     2    873   877   878   879
H 1040.88388062 10.21496146 63.69058438     6    876    0    0    0
H 1039.66153577 9.99376175 60.72438939     6    876    0    0    0
C 1042.70506318 12.83094983 61.10017046     2    876   880   881   882
H 1042.19483682 13.86900399 59.48662084     6    879    0    0    0
H 1043.70449600 14.16753968 62.31878057     6    879    0    0    0
C 1044.82530295 10.98419744 60.45587499     1    879   883   884   885
H 1044.15962698 9.64330888 59.01976109     6    882    0    0    0
H 1045.94486354 9.87171248 61.85375284     6    882    0    0    0
H 1046.24263677 11.98091760 59.70733245     6    882    0    0    0
H 1033.47638222 35.40369839 50.72785098     6     887    0    0    0 
C 1032.22531450 34.71794977 49.34223744     1     886    888    889    890
H 1030.79796063 36.10307731 49.03662734     6     887    0    0    0
H 1033.38725898 34.59118043 47.72398055     6     887    0    0    0
C 1031.13919170 32.13209273 49.99325568     2     887    891    892    893
H 1030.47303034 32.29460242 51.84194933     6     890    0    0    0
H 1029.53035790 31.54405109 48.96343063     6     890    0    0    0
C 1033.21149381 30.08693809 49.81253164     2     890    894   895   896
H 1034.55541765 30.52622121 48.33500793     6     893    0    0    0
H 1034.39125605 29.98489302 51.50241173     6     893    0    0    0
C 1032.07629783 27.23366874 49.43737257     2     893   897   898   899
H 1031.17447928 26.61404457 51.20607064     6    896    0    0    0
H 1030.67979702 27.40670048 47.95131530     6    896    0    0    0
C 1033.97825529 25.23077112 48.41055553     2    896   900   901   902
H 1034.59466104 25.75902053 46.44449688     6    899    0    0    0
H 1035.70752542 25.17826723 49.56068216     6    899    0    0    0
C 1032.59054212 22.55613779 48.46944419     2    899   903   904   905
H 1031.97067979 22.22687460 50.29043265     6    902    0    0    0
H 1030.93148221 22.90289900 47.12365519     6    902    0    0    0
C 1034.26236636 20.41284860 47.38433195     2    902   906   907   908
H 1034.94361293 20.89213294 45.39120549     6    905    0    0    0
H 1036.03777032 20.51000197 48.26825261     6    905    0    0    0
C 1033.06984218 17.80166711 47.95374486     2    905   909   910   911
H 1032.66418841 17.49707172 49.91895510     6    908    0    0    0
H 1031.14429248 18.06654501 47.07987134     6    908    0    0    0
C 1034.59476597 15.63610636 46.69872641     2    908   912   913   914
H 1034.95794265 15.84303020 44.67342454     6    911    0    0    0
H 1036.60623607 15.91967919 47.21832127     6    911    0    0    0
C 1033.58004859 13.00349778 47.46849456     2    911   915   916   917
H 1032.95900210 12.80015367 49.40730254     6    914    0    0    0
H 1031.83804633 12.75492220 46.32049652     6    914    0    0    0
C 1035.35651344 10.85725584 46.80164278     2    914   918   919   920
H 1035.31339124 10.58543592 44.82913886     6    917    0    0    0
H 1037.29849626 11.40210867 47.35982160     6    917    0    0    0
C 1034.58212096 8.49409499 48.25704288     1    917   921   922   923
H 1032.71372427 7.69146860 47.56083626     6    920    0    0    0
H 1034.61440475 8.42846876 50.40938050     6    920    0    0    0
H 1035.94308329 7.02717239 47.73181514     6    920    0    0    0
H 1030.28890542 25.23954135 66.75458766     6     925    0    0    0 
C 1031.80748050 26.48834395 67.19044415     1     924    926    927    928
H 1031.03631193 28.36966889 67.63130964     6     925    0    0    0
H 1032.91450745 25.65366694 68.77020498     6     925    0    0    0
C 1033.79556497 26.89045490 65.07954790     2     925    929    930    931
H 1033.07512782 27.71281661 63.31473252     6     928    0    0    0
H 1035.08741667 28.40193165 65.81950894     6     928    0    0    0
C 1035.47534302 24.53477638 64.49793387     2     928    932   933   934
H 1036.19153533 23.36075487 66.06391640     6     931    0    0    0
H 1034.35250712 23.33975037 63.26751130     6     931    0    0    0
C 1037.66201872 25.29846047 62.87638520     2     931   935   936   937
H 1037.07435612 26.16957013 61.03076525     6    934    0    0    0
H 1038.63871798 26.80225290 64.04070819     6    934    0    0    0
C 1039.62966601 23.14554216 62.26086048     2    934   938   939   940
H 1039.75501752 22.03407731 63.95782071     6    937    0    0    0
H 1038.58963257 21.92595115 60.94411719     6    937    0    0    0
C 1042.21393919 23.91962324 61.13048975     2    937   941   942   943
H 1041.71831728 25.17974413 59.56109531     6    940    0    0    0
H 1042.94663280 25.31433717 62.49525988     6    940    0    0    0
C 1043.95362607 21.82793872 60.29236523     2    940   944   945   946
H 1042.67132080 20.52132149 59.13689114     6    943    0    0    0
H 1045.23687606 22.85244412 59.02576466     6    943    0    0    0
C 1045.35327352 20.37169808 62.50784778     2    943   947   948   949
H 1046.22654551 21.69543415 63.75104952     6    946    0    0    0
H 1043.85960718 19.52089604 63.62624720     6    946    0    0    0
C 1047.34889340 18.53148668 61.54426640     2    946   950   951   952
H 1046.42387767 17.15465789 60.40352349     6    949    0    0    0
H 1048.74251246 19.46048805 60.31057130     6    949    0    0    0
C 1048.76862015 17.07918367 63.65238544     2    949   953   954   955
H 1049.49848267 18.49416559 65.03636355     6    952    0    0    0
H 1047.43619370 15.81749649 64.67055666     6    952    0    0    0
C 1050.93783094 15.44469907 62.60142510     2    952   956   957   958
H 1050.23491833 13.78189923 61.79662440     6    955    0    0    0
H 1051.84417369 16.53587594 61.09554845     6    955    0    0    0
C 1052.93092653 14.68272618 64.63765379     1    955   959   960   961
H 1054.03392060 13.11291644 64.11135715     6    958    0    0    0
H 1051.95847334 14.23596334 66.48490389     6    958    0    0    0
H 1054.19050009 16.36591480 64.99983580     6    958    0    0    0
H 1027.90992577 30.12446032 35.25680495     6     963    0    0    0 
C 1026.01374520 29.35020469 35.80985516     1     962    964    965    966
H 1025.37992666 28.03924906 34.24170893     6     963    0    0    0
H 1026.32569042 28.07050854 37.45638578     6     963    0    0    0
C 1024.33074002 31.70788230 36.15133551     2     963    967    968    969
H 1025.27327294 33.12508903 37.40554700     6     966    0    0    0
H 1024.02918229 32.67362952 34.35431601     6     966    0    0    0
C 1021.67614330 31.17176030 37.15778573     2     966    970   971   972
H 1020.41992352 30.30361515 35.80346302     6     969    0    0    0
H 1021.62127474 29.88448395 38.77190199     6     969    0    0    0
C 1020.18445159 33.47652373 38.10766666     2     969   973   974   975
H 1021.21601339 34.19694658 39.79016997     6    972    0    0    0
H 1020.15606846 35.02918571 36.71658027     6    972    0    0    0
C 1017.42709178 32.90083423 39.04127273     2    972   976   977   978
H 1016.89436999 31.02246551 38.43924688     6    975    0    0    0
H 1017.49273844 32.80531625 41.06353259     6    975    0    0    0
C 1015.31162000 34.63139096 38.13644879     2    975   979   980   981
H 1015.58429826 36.65271325 38.71747810     6    978    0    0    0
H 1014.93957917 34.70823176 36.14962562     6    978    0    0    0
C 1012.75846516 33.85106991 39.52972305     2    978   982   983   984
H 1011.82675299 32.37072768 38.55199067     6    981    0    0    0
H 1013.09210815 33.45350756 41.38373665     6    981    0    0    0
C 1010.87907749 35.94657201 39.32475412     2    981   985   986   987
H 1011.77026265 37.42855251 40.36471770     6    984    0    0    0
H 1010.90011994 36.56032645 37.31632792     6    984    0    0    0
C 1008.23436704 35.28973027 40.43201132     2    984   988   989   990
H 1006.80346270 36.67863855 39.67623212     6    987    0    0    0
H 1007.79997714 33.42093686 40.08933193     6    987    0    0    0
C 1007.88391284 35.60214542 43.34371741     2    987   991   992   993
H 1009.07985074 34.24703939 44.30220152     6    990    0    0    0
H 1008.58076912 37.60996974 43.99599558     6    990    0    0    0
C 1005.29493191 34.87245485 44.43301202     2    990   994   995   996
H 1003.70464715 35.69871932 43.45384744     6    993    0    0    0
H 1004.95858907 32.76472464 44.48856761     6    993    0    0    0
C 1005.06991325 35.88789912 47.34131879     1    993   997   998   999
H 1005.59482474 34.54057857 48.73287925     6    996    0    0    0
H 1003.07890422 36.29077640 47.71642912     6    996    0    0    0
H 1006.44813588 37.53358278 47.46879598     6    996    0    0    0
H 1038.46025191 39.46792695 32.49970058     6     1001    0    0    0 
C 1037.44621430 38.22237407 31.28398489     1     1000    1002    1003    1004
H 1037.98740185 38.55460926 29.31019240     6     1001    0    0    0
H 1038.21409054 36.29732718 31.61513615     6     1001    0    0    0
C 1034.51890668 38.28168623 31.54320832     2     1001    1005    1006    1007
H 1033.99472731 37.15062059 33.07292557     6     1004    0    0    0
H 1033.86663768 40.24910741 31.91682140     6     1004    0    0    0
C 1032.83478751 36.96593236 29.45317616     2     1004    1008   1009   1010
H 1032.47660507 38.07181404 27.76749458     6     1007    0    0    0
H 1033.70831371 35.24644496 28.60399130     6     1007    0    0    0
C 1030.06467410 36.26994632 30.34875437     2     1007   1011   1012   1013
H 1030.32489862 35.04422768 32.02026916     6    1010    0    0    0
H 1029.22539688 38.04867344 30.96879562     6    1010    0    0    0
C 1028.57220770 34.96207687 28.24988501     2    1010   1014   1015   1016
H 1028.54767098 36.12654270 26.56756306     6    1013    0    0    0
H 1029.57488306 33.33522822 27.73195670     6    1013    0    0    0
C 1025.69687913 34.60850587 28.98367307     2    1013   1017   1018   1019
H 1025.47091181 32.93582347 30.21537651     6    1016    0    0    0
H 1024.94567422 36.16098623 30.13815455     6    1016    0    0    0
C 1024.00298662 34.14154412 26.60189619     2    1016   1020   1021   1022
H 1024.23955173 35.36407624 25.02567790     6    1019    0    0    0
H 1024.64840878 32.32578623 25.82531958     6    1019    0    0    0
C 1021.11244859 33.73975537 27.36430409     2    1019   1023   1024   1025
H 1020.44857719 35.44552874 28.35515889     6    1022    0    0    0
H 1019.83552251 33.60915196 25.78274836     6    1022    0    0    0
C 1020.55209792 31.53326385 29.12420254     2    1022   1026   1027   1028
H 1020.92093085 29.75886097 28.01725476     6    1025    0    0    0
H 1021.82382296 31.51950672 30.68038262     6    1025    0    0    0
C 1017.75248821 31.55988897 29.97840524     2    1025   1029   1030   1031
H 1017.50517796 32.90656033 31.53072855     6    1028    0    0    0
H 1016.57061681 32.25497049 28.52380302     6    1028    0    0    0
C 1016.87390974 28.88513164 30.82664871     2    1028   1032   1033   1034
H 1016.55092593 27.87115529 29.08934716     6    1031    0    0    0
H 1018.21602814 28.01121143 32.13562029     6    1031    0    0    0
C 1014.45032468 29.09524531 32.51694329     1    1031   1035   1036   1037
H 1014.75170866 29.90088626 34.32533719     6    1034    0    0    0
H 1013.61027105 27.23861595 33.04133918     6    1034    0    0    0
H 1012.86258896 30.11447195 31.64516615     6    1034    0    0    0
H 1026.55399832 45.84694017 53.57599390     6     1039    0    0    0 
C 1028.19201558 46.62372085 52.72626325     1     1038    1040    1041    1042
H 1028.37485826 45.45803294 50.99722200     6     1039    0    0    0
H 1027.70372899 48.58015145 52.53418406     6     1039    0    0    0
C 1030.43550591 46.25239744 54.45676408     2     1039    1043    1044    1045
H 1029.74051862 47.39622873 56.08971121     6     1042    0    0    0
H 1030.48216157 44.25841735 54.86955694     6     1042    0    0    0
C 1032.98667548 47.27636508 53.50051251     2     1042    1046   1047   1048
H 1033.49262532 46.63865060 51.73970797     6     1045    0    0    0
H 1032.78877444 49.30143526 53.27753999     6     1045    0    0    0
C 1035.27672442 46.81528664 55.31498029     2     1045   1049   1050   1051
H 1035.03884164 47.82269870 57.11271573     6    1048    0    0    0
H 1035.35671774 44.75256163 55.66461558     6    1048    0    0    0
C 1037.74471088 47.71702761 54.21977245     2    1048   1052   1053   1054
H 1037.65993239 47.09321946 52.22121078     6    1051    0    0    0
H 1037.77745324 49.76489217 54.39220979     6    1051    0    0    0
C 1040.06068187 46.33606455 55.29850447     2    1051   1055   1056   1057
H 1039.69651433 45.88625980 57.32233878     6    1054    0    0    0
H 1040.52449270 44.56138542 54.42430890     6    1054    0    0    0
C 1042.47291242 47.98907057 55.47979585     2    1054   1058   1059   1060
H 1042.78439856 48.90002355 53.67960060     6    1057    0    0    0
H 1041.95635717 49.63532871 56.72025891     6    1057    0    0    0
C 1044.97095968 46.73132691 56.35457791     2    1057   1061   1062   1063
H 1044.77483941 45.80384512 58.25542922     6    1060    0    0    0
H 1045.13408293 45.21443515 55.06314255     6    1060    0    0    0
C 1047.08970061 48.76159494 56.28650964     2    1060   1064   1065   1066
H 1047.04280263 50.20416080 54.80012258     6    1063    0    0    0
H 1046.98539891 49.76083909 58.16704505     6    1063    0    0    0
C 1049.72541781 47.62677597 55.88845021     2    1063   1067   1068   1069
H 1049.68412286 46.50411949 54.23826220     6    1066    0    0    0
H 1051.17836294 49.08215097 55.66409691     6    1066    0    0    0
C 1050.47298211 46.16294019 58.27144336     2    1066   1070   1071   1072
H 1050.19958746 47.39774432 59.97698763     6    1069    0    0    0
H 1049.17775317 44.61228075 58.65429102     6    1069    0    0    0
C 1053.28089334 45.08538960 58.29157912     1    1069   1073   1074   1075
H 1053.78545570 44.19761981 60.11118282     6    1072    0    0    0
[...]
 1619      H    1015.3820676700    53.1271825800    64.2735705300
 1620      H    1012.9100121400    50.9141028600    64.2492353900
 1621      C    1011.8490489500    54.6934702100    65.1669315900
 1622      H    1010.0420085300    54.2108105300    66.1061278200
 1623      H    1012.4944249900    56.4332064700    66.0244652000
 1624      C    1011.2934155500    55.2627233800    62.3100259900
 1625      H    1012.9570166900    55.5585950400    61.1506369700
 1626      H    1010.4273356000    53.5498411700    61.5490745200
 1627      C    1009.6029604300    57.5989295000    62.0378076000
 1628      H    1007.7574638500    57.5318577400    62.8673940700
 1629      H    1010.4132350200    59.2723118300    62.8732097800
 1630      C    1009.1522123600    58.0068368200    59.3162845600
 1631      H    1010.9630304300    58.3596788200    58.3841565000
 1632      H    1008.3886479200    56.4340607400    58.4411712000
 1633      C    1007.2998718400    60.2065355100    58.8820778100
 1634      H    1005.7006037900    59.9683497300    60.0565251600
 1635      H    1008.0886833900    62.0183026000    59.5715492300
 1636      C    1006.5162449000    60.6046543500    56.0908872300
 1637      H    1008.3303594900    61.0999419700    55.0705082800
 1638      H    1006.3614335000    58.5733025100    55.4318048100
 1639      C    1004.1478192900    61.9934904700    55.4424036000
 1640      H    1002.6146782400    60.8783470000    56.2391873100
 1641      H    1004.1409571700    64.0122183600    56.1718846100
 1642      C    1003.8230877500    62.0799507300    52.4566996800
 1643      H    1005.5740106600    62.5139489800    51.3452636800
 1644      H    1002.3056487800    63.0995170500    51.6896908300
 1645      H    1003.2220169800    60.1705675400    51.9684611800
 1646      H    1028.0240926500    60.5398557600    38.6135189300
 1647      C    1027.7203383900    59.0753039600    37.1596376700
 1648      H    1027.1481639100    60.1191676200    35.3607721200
 1649      H    1029.4960504400    58.1253002100    36.7175236900
 1650      C    1025.8370370200    57.1147313100    37.9908343400
 1651      H    1026.0598374800    55.5409684000    36.7376985900
 1652      H    1026.2314770100    56.5094662600    39.9966775800
 1653      C    1023.1319940100    58.0646402700    38.0009594000
 1654      H    1022.9436890300    59.6021373800    39.3501641000
 1655      H    1022.6504852400    58.8864059900    36.1693189600
 1656      C    1021.1536179300    56.0490280400    38.6197762700
 1657      H    1021.2222357200    54.6118065600    37.1085314200
 1658      H    1022.0458822400    54.9467003000    40.1654020900
 1659      C    1018.6065196900    57.2484088200    39.2570269300
 1660      H    1018.7918170300    58.5416714000    40.8483153500
 1661      H    1017.7118473200    58.3512779300    37.6980264100
 1662      C    1016.7030195600    55.2785997300    40.0854425700
 1663      H    1016.3253300400    53.9506159900    38.4840432800
 1664      H    1017.1927129100    54.2503450100    41.6779383000
 1665      C    1014.1351015100    56.5449348600    40.6727480800
 1666      H    1014.7360260000    57.9850714900    42.0445749200
 1667      H    1013.4500533500    57.4772212100    39.0368642600
 1668      C    1012.0925539900    54.8071159500    41.6860552400
 1669      H    1011.6774772800    53.4455337300    40.1301583600
 1670      H    1012.9526795400    53.6347972600    43.2532188700
 1671      C    1009.6848981200    56.1842213600    42.5466548400
 1672      H    1010.0951025500    57.5130116800    43.9777134900
 1673      H    1009.0235503700    57.3617916700    40.9914734600
 1674      C    1007.4927843700    54.4388757700    43.3079509900
 1675      H    1007.0780519200    53.1662512100    41.7496288200
 1676      H    1008.1476762400    53.1787693900    44.8389329500
 1677      C    1005.1870458000    55.9676574200    44.0446498800
 1678      H    1005.0910606800    56.5339687500    46.0537845700
 1679      H    1005.4072898100    57.8394157400    43.1640496400
 1680      C    1002.7488889500    54.6946746500    43.3394745700
 1681      H    1001.1401468900    56.0926331000    43.1163393600
 1682      H    1002.2105013500    53.4664921600    44.9220515900
 1683      H    1002.7546578300    53.7420703600    41.5057021700
 1684      H    1035.6761302900    50.2369914900    30.7702619800
 1685      C    1034.8143825000    48.4595156000    30.5883691500
 1686      H    1033.0523613300    48.6140500000    29.5600372700
 1687      H    1036.0692792500    47.1806029900    29.6289416100
 1688      C    1034.0923423500    47.2889403200    33.1763389600
 1689      H    1035.8927242000    46.3634375800    34.0617594400
 1690      H    1033.5776509300    48.8034415400    34.4062760900
 1691      C    1031.7414357200    45.5340845300    33.0346929200
 1692      H    1030.0566500300    46.7174476500    32.8115337000
 1693      H    1031.6865511200    44.4513325800    31.1803572900
 1694      C    1031.3542231700    44.0742259100    35.4769984400
 1695      H    1032.8733879200    42.7469285700    35.5727778200
 1696      H    1031.7536336500    45.4821810200    37.0829889300
 1697      C    1028.7053252000    42.8275535500    35.4991650400
 1698      H    1027.2448983800    44.1496574500    35.1037077400
 1699      H    1028.7886879900    41.3713956800    34.1231374300
 1700      C    1027.8930971200    42.0706947700    38.2129837800
 1701      H    1029.2240887500    40.7402588300    39.1592367300
 1702      H    1027.9779841500    43.8720965100    39.1034190200
 1703      C    1025.2943506900    40.7795712400    38.2865547400
 1704      H    1023.6016859800    41.8412495200    38.1352500600
 1705      H    1024.9615351600    39.4358856200    36.6556765200
 1706      C    1025.0020980800    39.3813778800    40.8710791600
 1707      H    1023.1506433800    38.6400621500    40.9107322400
 1708      H    1026.1177136300    37.7137713400    41.0264988200
 1709      C    1025.1828250300    41.1344960800    43.3108504100
 1710      H    1026.9586043200    41.9544300700    43.4753569200
 1711      H    1023.4921623600    42.3301800800    43.1993786400
 1712      C    1025.1018918000    39.5202295400    45.6439426900
 1713      H    1023.3852342300    38.4429322500    45.8637184600
 1714      H    1026.7336465900    38.2861028400    45.5035463400
 1715      C    1025.3689265000    41.0078778100    48.1476401600
 1716      H    1025.3891468700    39.5116727200    49.6630886300
 1717      H    1027.1862180700    41.8033038800    48.1262990200
 1718      C    1023.2169356100    42.9900157100    48.4744500400
 1719      H    1021.2946656900    42.2505328700    48.2093082500
 1720      H    1023.2969265700    44.6665200700    47.3297590100
 1721      H    1023.3222272400    43.6756989900    50.3377666800
 1722      H    1003.5492021700    26.3162517900    34.5568673600
 1723      C    1004.8715405100    27.3988856000    33.4709841900
 1724      H    1005.4869063200    25.9113478800    32.1222592300
 1725      H    1004.1065844800    28.9799728900    32.5041884700
 1726      C    1007.2994487600    28.1313322400    34.8328775300
 1727      H    1008.4762573000    29.2125921400    33.5781583200
 1728      H    1006.7682245600    29.4495857300    36.3727626400
 1729      C    1008.8019598200    25.7281582300    35.5837109900
 1730      H    1007.6010358400    24.3584126200    36.4016782400
 1731      H    1009.4156624200    24.6975458200    33.9934605700
 1732      C    1010.9530294000    26.1927397100    37.5676088600
 1733      H    1011.9924572900    27.8496334900    37.0790371900
 1734      H    1009.8382829100    26.8773383700    39.1959174600
 1735      C    1012.5733592000    23.8498394100    37.9275268100
 1736      H    1011.0642206500    22.4502726700    38.3040213200
 1737      H    1013.5659647400    23.4453283700    36.1403212900
 1738      C    1014.4035767600    24.1894328000    40.1553336600
 1739      H    1015.5078357300    25.9342622400    39.6396482600
 1740      H    1013.4082060300    24.3408411400    41.9180124100
 1741      C    1016.6010041300    22.4165309300    40.2958354800
 1742      H    1015.7694339900    20.5210080700    40.0619593500
 1743      H    1017.8876441800    22.7151551100    38.6915990700
 1744      C    1018.1629613000    22.7672388600    42.7225985200
 1745      H    1018.0242486300    24.8447239700    43.1237451500
 1746      H    1017.1889544200    21.7667055300    44.1995248600
 1747      C    1020.9391225500    21.8614134700    42.6501348500
 1748      H    1021.0370953100    19.8728377000    42.3267954900
 1749      H    1021.9960228600    22.8034712700    41.3317856600
 1750      C    1022.4057815900    22.5585235200    45.1015993000
 1751      H    1022.8898796300    24.4943928700    45.2317281600
 1752      H    1021.2409970100    22.1382789000    46.7802876400
 1753      C    1024.7742312500    21.0160506000    45.1985297800
 1754      H    1024.4722175100    19.0630650100    44.6906621500
 1755      H    1026.1095617900    21.8104391400    43.8397976300
 1756      C    1025.9890400900    21.1156106600    47.9195893100
 1757      H    1024.4935777900    20.2545027700    49.0096423100
 1758      H    1026.2152803000    23.0194112200    48.6318619700
 1759      H    1027.7418452100    20.1910811800    47.9908708100
 1760      H    1012.9977140100    16.4111384400    37.9402492400
 1761      C    1013.4725671100    14.4065832600    38.5792856400
 1762      H    1013.4297596500    13.3021567800    36.8940666600
 1763      H    1015.4684560600    14.1685881300    39.3998824100
 1764      C    1011.6556249500    13.2252799600    40.5183440400
 1765      H    1012.1188259700    13.9907677300    42.3181421600
 1766      H    1009.7747955900    13.8181002300    40.2205179600
 1767      C    1011.8192364300    10.3334902200    40.5218325000
 1768      H    1011.1525023300     9.7260967600    38.6339655300
 1769      H    1013.7261460800     9.7082145000    40.6791274100
 1770      C    1010.0483881100     9.1036699800    42.4218823000
 1771      H    1010.9140931600     9.1515993500    44.2986885000
 1772      H    1008.4179486700    10.3736842100    42.5055850200
 1773      C    1009.3200042200     6.3780169100    42.0368382800
 1774      H    1007.9314339300     6.2119848100    40.4827949500
 1775      H    1010.8483723700     4.9964854200    41.4597244700
 1776      C    1008.0275830700     5.3074094200    44.3606759100
 1777      H    1006.8571049100     3.7235184900    43.7178735100
 1778      H    1009.7163065800     4.5334780200    45.2492980200
 1779      C    1006.4259497800     7.1155226500    46.0857683500
 1780      H    1007.5677421000     8.5855392500    47.0105978100
 1781      H    1004.7969045500     7.8671180600    44.9910986400
 1782      C    1005.4157191500     5.8518549000    48.4723027200
 1783      H    1004.8622350300     4.0598307100    47.9057092500
 1784      H    1007.0106404500     5.5503379500    49.7275947800
 1785      C    1003.1674352100     7.2506195900    49.5536907500
 1786      H    1003.8173690100     9.3434865900    49.8357935900
 1787      H    1001.6151280100     7.3475277100    48.2218509800
 1788      C    1002.7757379900     6.1018569100    52.2689268600
 1789      H    1002.4367010800     4.1001444300    52.1878965900
 1790      H    1004.5878464800     6.2141853800    53.1843739900
 1791      C    1000.8761505000     7.3730545500    54.1058926900
 1792      H    1001.1266103900     9.4541382200    54.0533867500
 1793      H     999.0309628400     7.0907706800    53.3367399100
 1794      C    1000.7770356000     6.4954484200    56.7853609500
 1795      H    1002.4256669100     6.5265707300    57.9484408800
 1796      H     999.8081384000     4.5856414900    56.6922182200
 1797      H     999.5122967300     7.4974858700    57.9839297500
 1798      H    1028.5867236500    43.2866038400    69.8843217200
 1799      C    1029.8529874500    41.7273015600    70.3907583700
 1800      H    1031.3468247800    42.4889580500    71.4253202900
 1801      H    1028.9296622600    40.7400816200    71.8265693600
 1802      C    1030.4328745300    39.8906117800    68.2981733000
 1803      H    1028.6561674300    39.4204434100    67.2618514700
 1804      H    1031.3939287700    41.0455545100    67.0365046800
 1805      C    1031.5701548200    37.3836517600    69.3401209800
 1806      H    1033.4886204700    37.8993563400    70.0936621400
 1807      H    1030.2854073200    36.8475250100    70.7860293300
 1808      C    1032.0622615800    35.2072854600    67.4749935000
 1809      H    1033.3803595800    33.7925096900    68.3708276500
 1810      H    1030.2844434500    34.1914569800    67.2198879700
 1811      C    1033.3794181300    35.8455825000    64.8690589500
 1812      H    1031.8810264800    36.9869074500    63.9105181000
 1813      H    1035.1481123200    37.1836849000    65.3401537200
 1814      C    1034.1867088500    33.5360674600    63.2408270300
 1815      H    1035.5566433200    32.4784273800    64.3506235500
 1816      H    1032.6471638700    32.1954708400    63.2517858100
 1817      C    1035.1944593600    34.2272738400    60.7174979400
 1818      H    1033.8031896500    35.2399618000    59.5576082200
 1819      H    1036.9107602500    35.3198624000    60.9068398400
 1820      C    1035.9194978600    31.8005827500    59.3450714400
 1821      H    1036.8661890200    30.4530921600    60.6931823700
 1822      H    1034.2328743600    30.6966945000    58.5588314700
 1823      C    1037.7015639400    32.4971862500    57.1081035500
 1824      H    1036.5239076500    33.7251374700    56.0456703100
 1825      H    1039.3846794000    33.6027806600    57.6689797000
 1826      C    1038.4093468900    30.1509360000    55.7062249200
 1827      H    1039.5941246200    28.7753310700    56.5822615000
 1828      H    1036.6606237800    29.1404162200    55.3715192300
 1829      C    1039.7918614000    31.0164341900    53.2485722800
 1830      H    1038.8085589500    32.5542806600    52.3401627400
 1831      H    1041.6362808600    31.8560047300    53.6417098300
 1832      C    1040.1803854600    28.8059894600    51.3984832300
 1833      H    1041.5142593300    29.4850627200    49.9777055600
 1834      H    1038.3440450200    28.3047486300    50.3888894400
 1835      H    1040.8054211700    27.0666558500    52.3672144700
 1836      H    1029.9842957700    20.0337877400    54.1234496900
 1837      C    1030.2442064300    21.6867418200    55.3169749000
 1838      H    1032.1507340100    22.1704254000    55.7708862700
 1839      H    1029.5428006400    23.3594764800    54.2750574700
 1840      C    1028.7832976800    21.1205904100    57.7091571400
 1841      H    1028.1927939600    22.9407871700    58.3525164000
 1842      H    1027.0781200900    19.8531563200    57.3022412300
 1843      C    1030.5684929100    19.9418259300    59.7127405800
 1844      H    1031.3753953900    18.1229215700    59.0187565100
 1845      H    1032.1440594900    21.2398172800    59.7672145800
 1846      C    1029.4355664500    19.8173468100    62.3072332100
 1847      H    1028.4498051000    21.5458245800    62.7538819800
 1848      H    1027.9788156100    18.4112010300    62.2999166800
 1849      C    1031.3626994200    18.8079645100    64.3338965500
 1850      H    1031.5476335400    16.8014324400    63.8637323800
 1851      H    1033.3193348000    19.4955734000    64.2339410500
 1852      C    1030.3677855000    19.1567400100    67.0428765600
 1853      H    1031.0911019500    21.0567350000    67.6856369300
 1854      H    1028.2793270500    19.4479875900    67.1277640200
 1855      C    1031.2208531800    16.9581356800    68.7390192600
 1856      H    1030.4677699400    15.2417753600    67.9179376500
 1857      H    1033.3404247200    17.0404269200    68.7637927900
 1858      C    1030.2093348500    17.3205610700    71.4507239900
 1859      H    1030.5377852800    19.2487429500    72.2232348300
 1860      H    1028.1360212000    17.0896466700    71.4246374200
 1861      C    1031.1633425700    15.3571030000    73.3323180300
 1862      H    1030.9894720300    13.3711895700    72.5320797200
 1863      H    1033.1694426200    15.7134497800    73.7601693800
 1864      C    1029.4992789300    15.3706220900    75.7452064900
 1865      H    1029.8762863900    17.3141718700    76.5477365200
 1866      H    1027.3289755500    15.4138583000    75.3135928900
 1867      C    1030.0682934600    13.3435408200    77.6673708800
 1868      H    1030.2759546000    11.5878996300    76.7642894400
 1869      H    1031.9191926300    13.4798948700    78.4305366300
 1870      C    1028.1984834100    12.9243983200    79.8815725600
 1871      H    1028.4473647700    11.1431506700    80.9250905300
 1872      H    1026.2134441400    13.0430189800    79.3764980700
 1873      H    1028.4157999900    14.5014932500    81.2792658300
 1874      H    1001.9535867000    29.2721611800    64.1072155200
 1875      C    1003.0882228400    28.8300570100    62.3979130800
 1876      H    1003.7155860100    26.9210223600    62.6384752900
 1877      H    1001.6446861600    28.9514200400    61.0600312400
 1878      C    1005.2380580000    30.8505180700    62.1569774900
 1879      H    1004.7537164000    32.9481702900    62.3681210100
 1880      H    1006.8734151400    30.3389704900    63.3259145600
 1881      C    1006.3023768900    30.7031716300    59.3674772600
 1882      H    1006.8638484900    28.7436676200    59.1145941900
 1883      H    1004.8380079700    31.2866183100    57.9640578400
 1884      C    1008.6100977400    32.4324950300    59.0366411700
 1885      H    1008.0162092500    34.5012938900    59.3942210800
 1886      H    1009.9611784700    31.9675598200    60.5158405500
 1887      C    1009.5554583300    32.1676202800    56.3893190600
 1888      H    1010.6958723200    30.4883317700    56.2695898800
 1889      H    1007.9421882000    32.0175715200    55.0985029300
 1890      C    1011.1282272400    34.4708369400    55.3400285700
 1891      H    1010.4471528300    36.2855683000    56.0183340700
 1892      H    1012.9916582700    34.2185921200    56.0409508800
 1893      C    1011.1130659300    34.5840259600    52.4730046500
 1894      H    1011.0638707800    32.8021000500    51.3887315300
 1895      H    1009.3482903100    35.3039101700    51.9262882500
 1896      C    1013.2778951700    36.2253812000    51.3947657200
 1897      H    1013.3623688300    38.1262233200    52.1860664900
 1898      H    1015.0743598300    35.4018320200    51.7181917100
 1899      C    1013.2965159300    36.1798244400    48.6007201300
 1900      H    1013.7555604500    34.2886652500    47.7853442600
 1901      H    1011.4646319500    36.8158019300    48.0316840100
 1902      C    1015.2400510700    38.0547377900    47.7801388600
 1903      H    1014.8725803300    40.0298603300    48.3957159300
 1904      H    1017.1539626600    37.5749802300    48.3665873000
 1905      C    1015.2580428600    38.3382179700    44.8589680100
 1906      H    1015.7875319400    36.4261709100    44.1271416400
 1907      H    1013.4273299500    39.0438544900    44.1866873500
 1908      C    1017.4271244200    40.1475121800    44.2283269900
 1909      H    1017.5870783000    40.7120482000    42.3037917100
 1910      H    1019.2238639700    39.2696632800    44.6343304200
 1911      H    1017.5774208700    41.6146589000    45.6580422400
 ----------------------------------------------------------------
 Nuclear Repulsion Energy =           0.00000000 hartrees
 There are       48 alpha and       48 beta electrons
 Total job time:  126.90s(wall), 250.54s(cpu) 
 Wed Jun 22 08:07:50 2022

        *************************************************************
        *                                                           *
        *  Thank you very much for using Q-Chem.  Have a nice day.  *
        *                                                           *
        *************************************************************


