                  Welcome to Q-Chem
     A Quantum Leap Into The Future Of Chemistry


 Q-Chem 5.4 (devel), Q-Chem, Inc., Pleasanton, CA (2021)

 E. Epifanovsky,  A. T. B. Gilbert,  Xintian Feng,  Joonho Lee,  Yuezhi Mao,  
 N. Mardirossian,  P. Pokhilko,  A. White,  M. Wormit,  M. P. Coons,  
 A. L. Dempwolff,  Zhengting Gan,  D. Hait,  P. R. Horn,  L. D. Jacobson,  
 I. Kaliman,  J. Kussmann,  A. W. Lange,  Ka Un Lao,  D. S. Levine,  Jie Liu,  
 S. C. McKenzie,  A. F. Morrison,  K. Nanda,  F. Plasser,  D. R. Rehn,  
 M. L. Vidal,  Zhi-Qiang You,  Ying Zhu,  B. Alam,  B. Albrecht,  
 A. Aldossary,  E. Alguire,  J. H. Andersen,  D. Barton,  K. Begam,  A. Behn,  
 Y. A. Bernard,  E. J. Berquist,  H. Burton,  A. Carreras,  K. Carter-Fenk,  
 R. Chakraborty,  A. D. Chien,  K. D. Closser,  V. Cofer-Shabica,  
 S. Dasgupta,  Jia Deng,  M. de Wergifosse,  M. Diedenhofen,  Hainam Do,  
 S. Ehlert,  Po-Tung Fang,  S. Fatehi,  Qingguo Feng,  T. Friedhoff,  
 J. Gayvert,  Qinghui Ge,  G. Gidofalvi,  M. Goldey,  J. Gomes,  
 C. Gonzalez-Espinoza,  S. Gulania,  A. Gunina,  M. W. D. Hanson-Heine,  
 P. H. P. Harbach,  A. W. Hauser,  M. F. Herbst,  M. Hernandez Vera,  
 M. Hodecker,  Z. C. Holden,  S. Houck,  Xunkun Huang,  Kerwin Hui,  
 B. C. Huynh,  M. Ivanov,  Hyunjun Ji,  Hanjie Jiang,  B. Kaduk,  S. Kaehler,  
 K. Khistyaev,  Jaehoon Kim,  P. Klunzinger,  Z. Koczor-Benda,  
 Joong Hoon Koh,  D. Kosenkov,  L. Koulias,  T. Kowalczyk,  C. M. Krauter,  
 K. Kue,  A. Kunitsa,  T. Kus,  A. Landau,  K. V. Lawler,  D. Lefrancois,  
 S. Lehtola,  Rain Li,  Yi-Pei Li,  Jiashu Liang,  M. Liebenthal,  
 Hung-Hsuan Lin,  You-Sheng Lin,  Fenglai Liu,  Kuan-Yu Liu,  
 M. Loipersberger,  A. Luenser,  A. Manjanath,  P. Manohar,  E. Mansoor,  
 S. F. Manzer,  Shan-Ping Mao,  A. V. Marenich,  T. Markovich,  S. Mason,  
 S. A. Maurer,  P. F. McLaughlin,  M. F. S. J. Menger,  J.-M. Mewes,  
 S. A. Mewes,  P. Morgante,  J. W. Mullinax,  K. J. Oosterbaan,  G. Paran,  
 Alexander C. Paul,  Suranjan K. Paul,  F. Pavosevic,  Zheng Pei,  S. Prager,  
 E. I. Proynov,  E. Ramos,  B. Rana,  A. E. Rask,  A. Rettig,  R. M. Richard,  
 F. Rob,  E. Rossomme,  T. Scheele,  M. Scheurer,  M. Schneider,  
 N. Sergueev,  S. M. Sharada,  W. Skomorowski,  D. W. Small,  C. J. Stein,  
 Yu-Chuan Su,  E. J. Sundstrom,  Zhen Tao,  J. Thirman,  T. Tsuchimochi,  
 N. M. Tubman,  S. P. Veccham,  O. Vydrov,  J. Wenzel,  J. Witte,  A. Yamada,  
 Kun Yao,  S. Yeganeh,  S. R. Yost,  A. Zech,  Igor Ying Zhang,  Xing Zhang,  
 Yu Zhang,  D. Zuev,  A. Aspuru-Guzik,  A. T. Bell,  N. A. Besley,  
 K. B. Bravaya,  B. R. Brooks,  D. Casanova,  Jeng-Da Chai,  S. Coriani,  
 C. J. Cramer,  A. E. DePrince, III,  R. A. DiStasio Jr.,  A. Dreuw,  
 B. D. Dunietz,  T. R. Furlani,  W. A. Goddard III,  S. Grimme,  
 S. Hammes-Schiffer,  T. Head-Gordon,  W. J. Hehre,  Chao-Ping Hsu,  
 T.-C. Jagau,  Yousung Jung,  A. Klamt,  Jing Kong,  D. S. Lambrecht,  
 WanZhen Liang,  N. J. Mayhall,  C. W. McCurdy,  J. B. Neaton,  
 C. Ochsenfeld,  J. A. Parkhill,  R. Peverati,  V. A. Rassolov,  Yihan Shao,  
 L. V. Slipchenko,  T. Stauch,  R. P. Steele,  J. E. Subotnik,  
 A. J. W. Thom,  A. Tkatchenko,  D. G. Truhlar,  T. Van Voorhis,  
 T. A. Wesolowski,  K. B. Whaley,  H. L. Woodcock III,  P. M. Zimmerman,  
 S. Faraji,  P. M. W. Gill,  M. Head-Gordon,  J. M. Herbert,  A. I. Krylov

 Additional authors for Version 5.4.1: 
 S. Kotaru,  Shaozhi Li,  Xiangyuan Li,  F. Matz,  A. Molle,  Haisheng Ren,  
 Yingli Su,  Hung-Yi Tsai,  C. Utku,  Fang Wang

 Contributors to earlier versions of Q-Chem not listed above: 
 R. D. Adamson,  B. Austin,  R. Baer,  J. Baker,  G. J. O. Beran,  
 K. Brandhorst,  S. T. Brown,  E. F. C. Byrd,  A. K. Chakraborty,  
 G. K. L. Chan,  Chun-Min Chang,  Yunqing Chen,  C.-L. Cheng,  
 Siu Hung Chien,  D. M. Chipman,  D. L. Crittenden,  H. Dachsel,  
 R. J. Doerksen,  A. D. Dutoi,  R. G. Edgar,  J. Fosso-Tande,  
 L. Fusti-Molnar,  D. Ghosh,  A. Ghysels,  A. Golubeva-Zadorozhnaya,  
 J. Gonthier,  M. S. Gordon,  S. R. Gwaltney,  G. Hawkins,  J. E. Herr,  
 A. Heyden,  S. Hirata,  E. G. Hohenstein,  G. Kedziora,  F. J. Keil,  
 C. Kelley,  Jihan Kim,  R. A. King,  R. Z. Khaliullin,  P. P. Korambath,  
 W. Kurlancheek,  A. Laurent,  A. M. Lee,  M. S. Lee,  S. V. Levchenko,  
 Ching Yeh Lin,  D. Liotard,  E. Livshits,  R. C. Lochan,  I. Lotan,  
 L. A. Martinez-Martinez,  P. E. Maslen,  N. Nair,  D. P. O'Neill,  
 D. Neuhauser,  E. Neuscamman,  C. M. Oana,  R. Olivares-Amaya,  R. Olson,  
 T. M. Perrine,  B. Peters,  P. A. Pieniazek,  A. Prociuk,  Y. M. Rhee,  
 J. Ritchie,  M. A. Rohrdanz,  E. Rosta,  N. J. Russ,  H. F. Schaefer III,  
 M. W. Schmidt,  N. E. Schultz,  S. Sharma,  N. Shenvi,  C. D. Sherrill,  
 A. C. Simmonett,  A. Sodt,  T. Stein,  D. Stuck,  K. S. Thanthiriwatte,  
 V. Vanovschi,  L. Vogt,  Tao Wang,  A. Warshel,  M. A. Watson,  
 C. F. Williams,  Q. Wu,  X. Xu,  Jun Yang,  W. Zhang,  Yan Zhao

 Please cite Q-Chem as follows:
 Y. Shao et al., Mol. Phys. 113, 184-215 (2015)
 DOI: 10.1080/00268976.2014.952696

 Q-Chem 5.4.1 for Intel X86 EM64T Linux

 Parts of Q-Chem use Armadillo 9.900.5 (Nocturnal Misbehaviour).
 http://arma.sourceforge.net/

 Q-Chem begins on Wed Jun  1 23:30:23 2022  

 Host: p09r14n13.grace.hpc.yale.internal
0

     Scratch files written to /home/tl686/scratch60/qchem_dev/scratch/qchem244679//
 Processing $rem in /home/tl686/qchem_dev/qchem/config/preferences:
 Processing $rem in /home/tl686/.qchemrc:
Applying user defined connections for MM calculations

 Checking the input file for inconsistencies... 	...done.

--------------------------------------------------------------
User input:
--------------------------------------------------------------
$molecule
0   1
 Fe 930.78934887 -53.64240590 69.70801269    -1  0   0   0   0
C 929.98234853 -53.78913150 73.07094844    -2  0   0   0   0 
C 931.99236244 -53.07864554 66.52703727    -2  0   0   0   0
C 934.06067295 -53.58127432 70.65753309    -2  0   0   0   0
C 929.27984919 -56.58669991 68.64978936    -2  0   0   0   0
C 928.64118148 -50.85891518 69.45323307    -2  0   0   0   0
O 929.31861783 -53.86649038 75.20268084    -3  0   0   0   0
O 932.67315658 -53.00624022 64.52444775    -3  0   0   0   0 
O 936.11342865 -53.38957733 71.44551179    -3  0   0   0   0
O 928.43084922 -58.42871377 67.70598976    -3  0   0   0   0 
O 927.48295784 -49.00446290 69.24504613    -3  0   0   0   0
H 946.41831731 -71.61473760 89.20118885      6     13    0    0    0 
C 944.86899601 -71.04440692 90.56840021     1     12    14    15    16
H 945.72571502 -71.02321308 92.54656041     6     13    0    0    0
H 944.46203412 -68.99511929 90.18971580     6     13    0    0    0
C 942.70437821 -72.87569766 90.29335497     2     13    17    18    19
H 943.46925571 -74.72710251 90.47932992     6     16    0    0    0
H 941.20361641 -72.60456782 91.66722083     6     16    0    0    0
C 941.36420667 -72.60889935 87.86693914     2     16    20   21   22
H 940.48739106 -70.74500206 88.02898821     6     19    0    0    0
H 942.73395491 -72.46156109 86.34383954     6     19    0    0    0
C 939.42894936 -74.43450753 87.11707117     2     19   23   24   25
H 940.21010722 -76.22972236 86.54999273     6    22    0    0    0
H 938.14248713 -75.01383332 88.52220929     6    22    0    0    0
C 938.26208931 -73.55081407 84.55037060     2    22   26   27   28
H 937.10135121 -71.93616037 84.82513071     6    25    0    0    0
H 939.64654994 -72.85785551 83.11956856     6    25    0    0    0
C 936.88389592 -75.76901866 83.24720283     2    25   29   30   31
H 938.17768516 -77.12793592 82.44646428     6    28    0    0    0
H 935.89566246 -76.80746640 84.63287699     6    28    0    0    0
C 935.03268252 -75.10646982 81.05811090     2    28   32   33   34
H 933.33940187 -74.29532128 82.01555790     6    31    0    0    0
H 935.89077372 -73.64565935 79.87686617     6    31    0    0    0
C 934.25341693 -77.43259874 79.50491248     2    31   35   36   37
H 935.83864058 -78.51853353 78.63287708     6    34    0    0    0
H 933.38719367 -78.95299720 80.55562061     6    34    0    0    0
C 932.53725164 -76.64549680 77.30007245     2    34   38   39   40
H 930.68867857 -76.14204399 78.08714049     6    37    0    0    0
H 933.27962755 -75.05454099 76.29250132     6    37    0    0    0
C 932.16808334 -79.07534475 75.45417983     2    37   41   42   43
H 933.98004913 -79.56021193 74.64723154     6    40    0    0    0
H 931.68294909 -80.57257469 76.82673107     6    40    0    0    0
C 930.08448071 -78.89026774 73.45691660     2    40   44   45   46
H 928.16432047 -78.64935853 74.29743613     6    43    0    0    0
H 930.25392865 -77.23341561 72.17220615     6    43    0    0    0
C 930.27359033 -81.02948768 71.52433825     1    43   47   48   49
H 931.93017077 -80.77293092 70.29648984     6    46    0    0    0
H 928.70427805 -81.27328231 70.35123843     6    46    0    0    0
H 930.50122323 -82.88891741 72.33026119     6    46    0    0    0
H 926.92070467 -68.53563500 70.30098032     6     51    0    0    0 
C 928.91163914 -68.26446412 69.89868380     1     50    52    53    54
H 929.39396296 -67.81400550 67.99465816     6     51    0    0    0
H 929.56114856 -66.59729360 70.88772750     6     51    0    0    0
C 930.63062320 -70.74399297 70.35210308     2     51    55    56    57
H 932.52565547 -70.12350050 70.05370632     6     54    0    0    0
H 930.43391512 -71.41117510 72.27926730     6     54    0    0    0
C 930.02447275 -72.84887399 68.44008771     2     54    58   59   60
H 930.59453811 -72.27967465 66.63216560     6     57    0    0    0
H 930.94326520 -74.58014431 68.92627357     6     57    0    0    0
C 927.19919387 -73.56694524 68.42110854     2     57   61   62   63
H 926.57140100 -73.94929201 70.39223520     6    60    0    0    0
H 925.97132369 -71.97920841 67.65366041     6    60    0    0    0
C 926.48570419 -75.90803180 66.79141893     2    60   64   65   66
H 926.82817135 -75.65827213 64.75701017     6    63    0    0    0
H 927.68903553 -77.57050294 67.31966054     6    63    0    0    0
C 923.72975234 -76.59084372 67.06867331     2    63   67   68   69
H 923.65354231 -78.62202116 66.86424273     6    66    0    0    0
H 923.06298560 -76.41083809 69.05176324     6    66    0    0    0
C 921.87821654 -75.14934730 65.18878144     2    66   70   71   72
H 921.70077610 -73.15932894 65.74462636     6    69    0    0    0
H 922.69080237 -75.28370411 63.21997034     6    69    0    0    0
C 919.21282174 -76.33789036 65.44055307     2    69   73   74   75
H 919.13110861 -78.26143006 65.18457728     6    72    0    0    0
H 918.48544950 -75.93894272 67.26585028     6    72    0    0    0
C 917.40339436 -74.97653841 63.50136452     2    72   76   77   78
H 917.54151270 -72.96211147 64.04618873     6    75    0    0    0
H 918.11308729 -75.31137068 61.57674443     6    75    0    0    0
C 914.69326238 -75.49347102 63.87585291     2    75   79   80   81
H 914.26775310 -77.40025676 63.00758686     6    78    0    0    0
H 914.38117226 -75.90666013 65.89751166     6    78    0    0    0
C 912.82952068 -73.47240806 62.96690310     2    78   82   83   84
H 913.62905348 -71.69861202 63.60766325     6    81    0    0    0
H 912.94584652 -73.55823002 60.81606028     6    81    0    0    0
C 910.05723146 -73.81285358 63.77358425     1    81   85   86   87
H 909.43309386 -75.70035203 63.10292069     6    84    0    0    0
H 908.90910390 -72.35872422 62.95371249     6    84    0    0    0
H 909.63861130 -73.87991236 65.68493371     6    84    0    0    0
H 955.95127100 -81.55539352 77.86025297     6     89    0    0    0 
C 955.20556371 -83.33367455 77.16950834     1     88    90    91    92
H 955.96187948 -83.88756297 75.35294786     6     89    0    0    0
H 956.06335915 -84.62781357 78.37144879     6     89    0    0    0
C 952.28229934 -83.36289243 77.29656648     2     89    93    94    95
H 951.98436630 -82.25697567 78.97296647     6     92    0    0    0
H 951.55653287 -82.19429088 75.58514708     6     92    0    0    0
C 951.42807791 -86.04456304 77.50540766     2     92    96   97   98
H 951.44090460 -86.93095430 75.71221459     6     95    0    0    0
H 952.84062488 -87.00320114 78.72819896     6     95    0    0    0
C 948.95460637 -86.49187856 78.72393251     2     95   99   100   101
H 949.18331309 -86.13435002 80.76390413     6    98    0    0    0
H 947.67171371 -85.04846716 77.94679744     6    98    0    0    0
C 947.90784206 -89.17822608 78.37445183     2    98   102   103   104
H 947.78318266 -89.53293143 76.37869731     6    101    0    0    0
H 949.27334697 -90.55754490 79.08826370     6    101    0    0    0
C 945.33038635 -89.60518439 79.76060815     2    101   105   106   107
H 945.69226294 -89.42505785 81.81489276     6    104    0    0    0
H 944.25421941 -87.86766976 79.27243407     6    104    0    0    0
C 944.14687741 -92.22913751 79.04565546     2    104   108   109   110
H 944.46160282 -92.67569994 77.03974366     6    107    0    0    0
H 944.92626021 -93.81339714 79.93858394     6    107    0    0    0
C 941.26428454 -92.08609016 79.53387949     2    107   111   112   113
H 941.01521706 -91.72480602 81.65938131     6    110    0    0    0
H 940.34933003 -90.53994332 78.55872056     6    110    0    0    0
C 939.56299192 -94.34617913 78.92349192     2    110   114   115   116
H 939.63670058 -94.68326363 76.78947391     6    113    0    0    0
H 940.53478426 -95.97680792 79.95693104     6    113    0    0    0
C 936.76780430 -94.12078038 79.45638555     2    113   117   118   119
H 936.82514176 -93.33351671 81.43405026     6    116    0    0    0
H 935.93083073 -92.60622507 78.44489616     6    116    0    0    0
C 935.56589483 -96.70191711 79.00595722     2    116   120   121   122
H 933.51178972 -96.55381781 79.51359025     6    119    0    0    0
H 935.45255835 -97.45647117 77.06695241     6    119    0    0    0
C 936.47760892 -98.74443578 80.65397578     1    119   123   124   125
H 934.93604626 -100.12310414 81.10001025     6    122    0    0    0
H 937.62141628 -98.28931938 82.27114117     6    122    0    0    0
H 937.49744183 -100.16890496 79.51671405     6    122    0    0    0
H 948.94024705 -71.32677936 70.15256863     6     127    0    0    0 
C 949.63496180 -69.44979019 70.32908287     1     126    128    129    130
H 950.15055158 -68.87484557 72.22242261     6     127    0    0    0
H 951.40840290 -69.45777978 69.19801440     6     127    0    0    0
C 948.09831946 -67.31907506 68.99937319     2     127    131    132    133
H 947.54636925 -67.74601972 66.95207381     6     130    0    0    0
H 946.28975382 -67.10171490 69.89391871     6     130    0    0    0
C 949.65870268 -64.95756542 68.77066845     2     130    134   135   136
H 950.67058316 -64.74159261 70.59143800     6     133    0    0    0
H 950.96606824 -64.90208642 67.24927967     6     133    0    0    0
C 948.08431408 -62.46133958 68.09464057     2     133   137   138   139
H 946.86787367 -62.59087877 66.42408919     6    136    0    0    0
H 946.79857854 -61.96534396 69.62522375     6    136    0    0    0
C 949.88584300 -60.25629104 67.88657456     2    136   140   141   142
H 951.16799221 -59.93580737 69.44401850     6    139    0    0    0
H 951.20110629 -60.53568179 66.35577139     6    139    0    0    0
C 948.30293976 -57.72982110 67.46256418     2    139   143   144   145
H 947.28571047 -58.03826832 65.80543575     6    142    0    0    0
H 946.96425413 -57.41482063 68.85727428     6    142    0    0    0
C 949.98271800 -55.26920287 67.28870996     2    142   146   147   148
H 951.68248076 -55.38582482 68.46007660     6    145    0    0    0
H 950.75938356 -55.31787608 65.35204256     6    145    0    0    0
C 948.41345364 -52.81835855 67.55499489     2    145   149   150   151
H 946.81961089 -53.28224584 66.26899470     6    148    0    0    0
H 948.00580866 -52.79380785 69.58215469     6    148    0    0    0
C 949.74852769 -50.27890647 66.88518092     2    148   152   153   154
H 950.85131408 -49.71484764 68.47086641     6    151    0    0    0
H 951.06722930 -50.64033293 65.47185109     6    151    0    0    0
C 947.78461070 -48.21069288 66.07622761     2    151   155   156   157
H 948.74248937 -46.59204953 65.39738807     6    154    0    0    0
H 946.90985726 -49.16383131 64.40487255     6    154    0    0    0
C 946.08935815 -47.51415869 68.31338112     2    154   158   159   160
H 944.95955684 -46.19068477 67.43870970     6    157    0    0    0
H 944.82994797 -49.08800729 68.74194895     6    157    0    0    0
C 947.12555038 -46.03816997 70.59844971     1    157   161   162   163
H 945.66164791 -45.18014870 71.81536705     6    160    0    0    0
H 948.50505620 -44.72538637 70.04786667     6    160    0    0    0
H 948.02009464 -47.29687464 72.14866983     6    160    0    0    0
H 955.37744744 -81.12171634 52.14788040     6     165    0    0    0 
C 955.99532367 -79.59865237 53.33672836     1     164    166    167    168
H 954.60162660 -79.36658997 54.86926313     6     165    0    0    0
H 957.87281893 -80.23217515 54.14967507     6     165    0    0    0
C 956.14109515 -76.93279520 52.18193339     2     165    169    170    171
H 957.30098615 -76.86816827 50.46112187     6     168    0    0    0
H 954.34259534 -76.36425648 51.47647105     6     168    0    0    0
C 957.00964491 -74.71793124 53.87534319     2     168    172   173   174
H 955.94102637 -74.79023376 55.56541377     6     171    0    0    0
H 958.89924191 -74.96165705 54.49973590     6     171    0    0    0
C 956.73900395 -72.17587033 52.33464468     2     171   175   176   177
H 957.90257392 -72.38244039 50.56305509     6    174    0    0    0
H 954.84695943 -71.66588410 51.50879833     6    174    0    0    0
C 957.51855053 -70.06759402 53.97459690     2    174   178   179   180
H 956.27644623 -69.71575717 55.51440651     6    177    0    0    0
H 959.41176328 -70.38284261 54.70843406     6    177    0    0    0
C 957.34380191 -67.35566627 52.68016839     2    177   181   182   183
H 958.29702248 -67.59226084 50.74580042     6    180    0    0    0
H 955.46200785 -67.15610464 51.94252201     6    180    0    0    0
C 958.26062651 -65.12436485 54.35846561     2    180   184   185   186
H 957.18556243 -65.08834018 56.13447845     6    183    0    0    0
H 960.19366476 -65.61854538 54.98945382     6    183    0    0    0
C 958.27854333 -62.72819483 52.94295942     2    183   187   188   189
H 959.80052608 -62.86355083 51.42351150     6    186    0    0    0
H 956.61294921 -62.11128689 52.14070378     6    186    0    0    0
C 959.15603146 -60.38805221 54.37764504     2    186   190   191   192
H 957.86578021 -59.73452360 55.86383675     6    189    0    0    0
H 960.90043022 -60.62112278 55.35914515     6    189    0    0    0
C 959.66543287 -58.29368857 52.26363450     2    189   193   194   195
H 961.25021781 -58.81372536 50.92159666     6    192    0    0    0
H 957.87458433 -57.81718162 51.21088882     6    192    0    0    0
C 960.32058182 -55.81414863 53.42153100     2    192   196   197   198
H 958.75825760 -54.83753818 54.31662973     6    195    0    0    0
H 961.72792749 -56.10431281 54.95976851     6    195    0    0    0
C 961.05541386 -53.78042503 51.43140143     1    195   199   200   201
H 959.49744675 -52.80032974 50.66357933     6    198    0    0    0
H 962.49097715 -54.35264418 50.02683018     6    198    0    0    0
H 961.83549170 -52.04618492 52.25610827     6    198    0    0    0
H 939.46514889 -74.50179500 54.16242586     6     203    0    0    0 
C 941.57704696 -74.74063209 54.04179920     1     202    204    205    206
H 941.97911008 -72.76607055 53.49715095     6     203    0    0    0
H 942.29461739 -75.33515341 56.00554533     6     203    0    0    0
C 942.73802853 -76.55735876 51.99227814     2     203    207    208    209
H 944.29896164 -75.67204411 50.99769771     6     206    0    0    0
H 943.36127669 -78.25759773 53.05480859     6     206    0    0    0
C 940.94414435 -77.32592156 49.80509606     2     206    210   211   212
H 942.09413483 -78.18202102 48.31466669     6     209    0    0    0
H 939.43218702 -78.45246530 50.36152579     6     209    0    0    0
C 939.80892078 -75.04196442 48.48188639     2     209   213   214   215
H 938.58658702 -74.00029787 49.58884877     6    212    0    0    0
H 941.27255867 -73.63335104 48.17965082     6    212    0    0    0
C 938.24930439 -75.71487980 45.97101940     2    212   216   217   218
H 939.41616222 -76.76266912 44.58784032     6    215    0    0    0
H 936.76551531 -76.97830740 46.56944152     6    215    0    0    0
C 937.24470650 -73.43370767 44.52143567     2    215   219   220   221
H 936.52100550 -71.97503165 45.84354947     6    218    0    0    0
H 938.80983810 -72.67931884 43.44840476     6    218    0    0    0
C 935.44508245 -74.13926484 42.47185051     2    218   222   223   224
H 936.13495331 -75.83609569 41.40890303     6    221    0    0    0
H 933.63724750 -74.54913488 43.36444345     6    221    0    0    0
C 935.24692396 -72.13664043 40.50840022     2    221   225   226   227
H 934.63671184 -70.47698659 41.43456231     6    224    0    0    0
H 937.22890999 -71.83220837 39.71113746     6    224    0    0    0
C 933.29374865 -72.62051207 38.44248273     2    224   228   229   230
H 933.74613097 -74.31400684 37.37282773     6    227    0    0    0
H 931.46580670 -73.18579305 39.32431151     6    227    0    0    0
C 932.90290284 -70.55803201 36.38806531     2    227   231   232   233
H 932.30597306 -68.67275459 37.16231439     6    230    0    0    0
H 934.75991540 -70.22661193 35.49337022     6    230    0    0    0
C 931.01742053 -71.27638824 34.38764882     2    230   234   235   236
H 930.65305480 -69.49527840 33.12825343     6    233    0    0    0
H 931.88199658 -72.76226765 33.26910905     6    233    0    0    0
C 928.43196915 -72.22713237 35.40640680     1    233   237   238   239
H 927.11867178 -72.32230390 33.90082309     6    236    0    0    0
H 927.91887617 -70.90109341 36.95432105     6    236    0    0    0
H 928.36189530 -74.04135564 36.30170073     6    236    0    0    0
H 920.04787039 -82.13023356 72.24134326     6     241    0    0    0 
C 920.57596576 -83.00315410 70.36966755     1     240    242    243    244
H 918.81639692 -83.17015901 69.48158716     6     241    0    0    0
H 921.58048676 -81.67719779 69.32979943     6     241    0    0    0
C 921.83266789 -85.53393964 70.65268355     2     241    245    246    247
H 920.57117045 -86.75117190 71.80770182     6     244    0    0    0
H 922.10340094 -86.34396294 68.78368899     6     244    0    0    0
C 924.55414386 -85.42063839 71.70582227     2     244    248   249   250
H 925.58077559 -87.16889500 71.45103039     6     247    0    0    0
H 925.81480493 -83.94964663 70.80171575     6     247    0    0    0
C 924.61533598 -85.09519701 74.61869439     2     247   251   252   253
H 926.46759273 -84.46789924 75.35866829     6    250    0    0    0
H 923.21481469 -83.79637306 75.34311807     6    250    0    0    0
C 924.02494447 -87.61455195 75.94021641     2    250   254   255   256
H 922.24196418 -88.54972880 75.27852394     6    253    0    0    0
H 925.56949967 -88.93603548 75.89349930     6    253    0    0    0
C 923.69859575 -87.19032588 78.81389720     2    253   257   258   259
H 925.51653073 -86.77882142 79.64553555     6    256    0    0    0
H 922.34212258 -85.68100055 79.14552573     6    256    0    0    0
C 922.82164202 -89.80716386 80.13274183     2    256   260   261   262
H 920.95095343 -90.31433221 79.41143228     6    259    0    0    0
H 923.92641831 -91.37068276 79.17018830     6    259    0    0    0
C 922.87501618 -89.97054771 83.02428599     2    259   263   264   265
H 924.61078808 -89.10286931 83.81046883     6    262    0    0    0
H 921.39395710 -88.61846142 83.60669458     6    262    0    0    0
C 922.53337231 -92.75194788 84.24194698     2    262   266   267   268
H 921.63652061 -92.50674091 86.12757034     6    265    0    0    0
H 920.89237142 -93.48696269 83.09874927     6    265    0    0    0
C 924.84975595 -94.44114893 83.88454436     2    265   269   270   271
H 925.42977744 -94.70540835 82.01259904     6    268    0    0    0
H 926.36522193 -93.54956102 84.77694900     6    268    0    0    0
C 924.24898142 -97.12509615 84.98894377     2    268   272   273   274
H 923.51814921 -96.84155611 86.94633538     6    271    0    0    0
H 922.72628899 -97.84064084 83.82932004     6    271    0    0    0
C 926.25232055 -99.15608463 85.12835172     1    271   275   276   277
H 926.97602033 -99.55964101 83.03953239     6    274    0    0    0
H 925.63650019 -101.02719465 85.86920000     6    274    0    0    0
H 927.90682847 -98.37516788 85.99783110     6    274    0    0    0
H 943.59796862 -81.55698400 56.65830130     6     279    0    0    0 
C 942.13546172 -83.11174139 56.35599388     1     278    280    281    282
H 942.53559577 -84.09103153 54.67172002     6     279    0    0    0
H 942.38492311 -84.33024522 57.96307288     6     279    0    0    0
C 939.61735756 -81.63172168 56.41612689     2     279    283    284    285
H 939.63276121 -80.21755149 57.73796019     6     282    0    0    0
H 939.50349445 -80.70435159 54.47802361     6     282    0    0    0
C 937.28776883 -83.27777715 56.57511513     2     282    286   287   288
H 937.40685417 -84.57981727 54.89396648     6     285    0    0    0
H 937.43787308 -84.43256689 58.23671034     6     285    0    0    0
C 934.73935067 -82.01668187 56.32465527     2     285   289   290   291
H 934.33522203 -80.96035108 57.95434482     6    288    0    0    0
H 934.63711998 -80.82194886 54.56966927     6    288    0    0    0
C 932.53322494 -83.95810898 56.14974845     2    288   292   293   294
H 932.92230767 -85.40645620 54.62268383     6    291    0    0    0
H 932.27625163 -85.20534701 57.93535232     6    291    0    0    0
C 930.14740971 -82.72640263 55.31905633     2    291   295   296   297
H 929.86327769 -81.08328476 56.60164663     6    294    0    0    0
H 930.51801696 -81.97045530 53.37996950     6    294    0    0    0
C 927.82189693 -84.37415262 55.26657960     2    294   298   299   300
H 928.01245648 -85.88578891 53.72880642     6    297    0    0    0
H 927.52766409 -85.17098867 57.13034084     6    297    0    0    0
C 925.51732458 -82.88056855 54.53942051     2    297   301   302   303
H 925.28548881 -81.27588029 55.75743484     6    300    0    0    0
H 925.85050407 -82.24755648 52.70039080     6    300    0    0    0
C 923.10577620 -84.43757886 54.58333489     2    300   304   305   306
H 923.16871120 -85.97802665 53.09359505     6    303    0    0    0
H 922.83896167 -85.34984683 56.28508928     6    303    0    0    0
C 920.55026269 -82.93867919 54.39880147     2    303   307   308   309
H 920.38433457 -81.67951183 55.84638975     6    306    0    0    0
H 920.67293310 -81.74364782 52.72323300     6    306    0    0    0
C 918.12091700 -84.69737465 54.13313796     2    306   310   311   312
H 917.96847338 -85.63716471 52.42140849     6    309    0    0    0
H 918.23637364 -86.18171960 55.59994882     6    309    0    0    0
C 915.85510450 -83.18966332 54.70952939     1    309   313   314   315
H 915.56797466 -81.57787226 53.32826601     6    312    0    0    0
H 916.05678238 -82.21811533 56.63430581     6    312    0    0    0
H 914.14019861 -84.25987927 54.79367932     6    312    0    0    0
H 953.54929291 -71.33900268 78.33760055     6     317    0    0    0 
C 954.60834350 -69.76315013 78.88551832     1     316    318    319    320
H 954.58672513 -69.52183203 80.93755266     6     317    0    0    0
H 956.68489002 -69.86237110 78.53321927     6     317    0    0    0
C 953.61294930 -67.17866133 77.96124392     2     317    321    322    323
H 954.50513693 -65.74628264 79.08903906     6     320    0    0    0
H 953.94522908 -66.88228256 75.98422184     6     320    0    0    0
C 950.73102098 -66.85749971 78.23598114     2     320    324   325   326
H 949.74773904 -67.77803376 76.74656769     6     323    0    0    0
H 950.32896814 -67.85359813 79.97889468     6     323    0    0    0
C 949.93916805 -64.01164345 78.16860925     2     323   327   328   329
H 950.53871003 -63.05468397 79.82860577     6    326    0    0    0
H 951.00734709 -63.02153693 76.57712167     6    326    0    0    0
C 947.12562808 -63.67217936 77.38107819     2    326   330   331   332
H 946.63826265 -64.01573542 75.46653056     6    329    0    0    0
H 946.01393417 -64.94771828 78.36459528     6    329    0    0    0
C 946.13801042 -60.90245437 77.76443912     2    329   333   334   335
H 947.11583985 -59.95377717 79.41041804     6    332    0    0    0
H 946.69674327 -59.74392292 76.20816726     6    332    0    0    0
C 943.20144237 -60.79124927 78.16704418     2    332   336   337   338
H 942.37785098 -62.02609583 76.79442650     6    335    0    0    0
H 943.07119673 -61.57611426 80.11532578     6    335    0    0    0
C 942.05353755 -58.14655360 77.75058226     2    335   339   340   341
H 940.07687566 -58.06559169 78.14116644     6    338    0    0    0
H 942.83922154 -56.78161853 78.99654693     6    338    0    0    0
C 942.24864341 -57.42369475 74.79794781     2    338   342   343   344
H 944.20886175 -57.58710758 73.92604280     6    341    0    0    0
H 941.22804530 -58.73305951 73.54574545     6    341    0    0    0
C 941.39622762 -54.79498342 74.27836554     2    341   345   346   347
H 940.61958637 -54.73178138 72.39786767     6    344    0    0    0
H 939.71632491 -54.31478855 75.44038812     6    344    0    0    0
C 943.44379505 -52.81160517 74.35029023     2    344   348   349   350
H 944.49321277 -52.79335112 76.11591031     6    347    0    0    0
H 944.90051138 -53.36614835 73.09522497     6    347    0    0    0
C 942.42544209 -50.14949575 73.71542350     1    347   351   352   353
H 943.79792342 -48.64798932 73.59076986     6    350    0    0    0
H 941.39209041 -49.53847349 75.32995944     6    350    0    0    0
H 941.44295576 -50.08018096 71.87678062     6    350    0    0    0
H 929.67024183 -88.81960660 66.11784857     6     355    0    0    0 
C 930.74624488 -87.42839650 67.08049553     1     354    356    357    358
H 929.97947361 -85.51284971 66.75794531     6     355    0    0    0
H 930.60544294 -87.68166970 69.04228192     6     355    0    0    0
C 933.55248681 -87.46084833 66.26953077     2     355    359    360    361
H 934.34590921 -89.26270038 66.87029585     6     358    0    0    0
H 933.63100595 -87.03168919 64.22550191     6     358    0    0    0
C 935.21270074 -85.27202186 67.38243907     2     358    362   363   364
H 934.08096210 -83.52174078 67.41362184     6     361    0    0    0
H 935.81604761 -85.73547960 69.26723975     6     361    0    0    0
C 937.65770620 -84.74156123 65.88201335     2     361   365   366   367
H 938.36906630 -86.51943961 65.52491633     6    364    0    0    0
H 936.97924572 -84.13675650 64.03876264     6    364    0    0    0
C 939.62318478 -82.99474763 66.88391730     2    364   368   369   370
H 939.12258019 -80.97268929 67.19527630     6    367    0    0    0
H 939.87603155 -83.36818213 68.85290485     6    367    0    0    0
C 942.06777512 -83.01879515 65.41226074     2    367   371   372   373
H 942.67962190 -85.10545335 65.40138478     6    370    0    0    0
H 941.89717302 -82.45416931 63.41960131     6    370    0    0    0
C 944.30905663 -81.41759690 66.61091277     2    370   374   375   376
H 943.74718032 -79.37468696 66.80108332     6    373    0    0    0
H 944.63399672 -82.15088845 68.52075339     6    373    0    0    0
C 946.79875877 -81.35869664 65.12728803     2    373   377   378   379
H 947.27982595 -83.17535897 64.33588273     6    376    0    0    0
H 946.38977213 -80.45036472 63.24775665     6    376    0    0    0
C 948.95234276 -80.08357133 66.58403312     2    376   380   381   382
H 948.43927493 -78.21465676 67.04148277     6    379    0    0    0
H 949.11825347 -81.33745188 68.29754499     6    379    0    0    0
C 951.30008080 -79.90484305 65.17358687     2    379   383   384   385
H 952.16207173 -81.59075140 64.68632989     6    382    0    0    0
H 950.98017159 -78.80708459 63.50817147     6    382    0    0    0
C 953.43875941 -78.46830726 66.50292725     2    382   386   387   388
H 955.20491110 -78.85276051 65.66904315     6    385    0    0    0
H 953.23553372 -76.44232166 66.28952991     6    385    0    0    0
C 953.76852869 -79.28272957 69.32101812     1    385   389   390   391
H 954.47369134 -81.18623090 69.39984867     6    388    0    0    0
H 952.14057483 -79.27783839 70.43175489     6    388    0    0    0
H 955.12604440 -78.09294082 70.10814365     6    388    0    0    0
H 924.87381770 -34.58332170 77.73575448     6     393    0    0    0 
C 923.00619667 -35.36220368 77.85313593     1     392    394    395    396
H 921.82484526 -34.13563340 79.16871576     6     393    0    0    0
H 922.29827828 -35.26773554 75.93921371     6     393    0    0    0
C 923.03133681 -38.10910091 78.88279560     2     393    397    398    399
H 924.11866185 -39.16898018 77.40074740     6     396    0    0    0
H 924.20468976 -38.26833481 80.60188943     6     396    0    0    0
C 920.38674456 -39.37087347 79.27895585     2     396    400   401   402
H 919.28023022 -38.09762403 80.67257343     6     399    0    0    0
H 919.51595094 -39.46575287 77.40641393     6     399    0    0    0
C 920.38835318 -42.14195436 80.38008555     2     399   403   404   405
H 921.73891452 -43.19391975 79.10379897     6    402    0    0    0
H 921.40268321 -42.02968609 82.20859490     6    402    0    0    0
C 917.73099338 -43.29225498 80.55904364     2    402   406   407   408
H 916.86884660 -42.01284880 82.05960995     6    405    0    0    0
H 916.57868688 -42.91704698 78.86221695     6    405    0    0    0
C 917.62304762 -46.07545193 81.07518721     2    405   409   410   411
H 918.74608238 -47.01981645 79.69494915     6    408    0    0    0
H 918.78695612 -46.36922886 82.68782079     6    408    0    0    0
C 915.05202615 -47.33948819 81.11719135     2    408   412   413   414
H 913.69466081 -46.16920062 82.22000232     6    411    0    0    0
H 914.37552137 -47.47229225 79.23109847     6    411    0    0    0
C 915.09013945 -50.09074944 81.95679419     2    411   415   416   417
H 916.64510610 -51.08539621 81.14816617     6    414    0    0    0
H 915.61355170 -50.20087362 83.84281443     6    414    0    0    0
C 912.59461923 -51.54555514 81.57044601     2    414   418   419   420
H 910.87704312 -50.68097661 82.13857524     6    417    0    0    0
H 912.30085279 -51.88086487 79.58716289     6    417    0    0    0
C 912.71111514 -54.04428376 83.05033686     2    417   421   422   423
H 914.30028392 -55.07487054 82.45173465     6    420    0    0    0
H 912.83168702 -53.49144188 85.08198976     6    420    0    0    0
C 910.35280471 -55.71041082 82.97976721     2    420   424   425   426
H 910.39860154 -57.31686461 84.49021888     6    423    0    0    0
H 908.71153823 -54.52101057 83.38565973     6    423    0    0    0
C 909.94395363 -57.05351815 80.44224688     1    423   427   428   429
H 908.24675685 -58.20934835 80.70322613     6    426    0    0    0
H 911.62448543 -58.25980220 80.11056089     6    426    0    0    0
H 909.66705937 -55.90220238 78.70778931     6    426    0    0    0
H 923.01689796 -69.72140024 86.14487381     6     431    0    0    0 
C 924.01482142 -69.47975821 87.83695241     1     430    432    433    434
H 922.93912235 -69.81977409 89.55129840     6     431    0    0    0
H 925.82390078 -70.60082187 87.61649254     6     431    0    0    0
C 925.00082863 -66.64439386 88.08779582     2     431    435    436    437
H 926.58774528 -66.36885184 86.84181978     6     434    0    0    0
H 923.41969666 -65.61133740 87.38048497     6     434    0    0    0
C 925.41471908 -65.92183068 90.86322777     2     434    438   439   440
H 923.82253640 -66.46310666 91.98684892     6     437    0    0    0
H 927.10295575 -66.90551677 91.59088597     6     437    0    0    0
C 925.94076637 -63.11114839 91.31047715     2     437   441   442   443
H 926.36424971 -62.82414437 93.37395474     6    440    0    0    0
H 927.59041153 -62.39831240 90.42865677     6    440    0    0    0
C 923.92075418 -61.27569264 90.31780636     2    440   444   445   446
H 923.72922545 -61.04884366 88.20868787     6    443    0    0    0
H 922.01669479 -62.05530752 90.81893941     6    443    0    0    0
C 924.22394508 -58.66958123 91.72360475     2    443   447   448   449
H 925.24111865 -58.86398566 93.51972697     6    446    0    0    0
H 925.39105768 -57.44368714 90.54425541     6    446    0    0    0
C 921.52881100 -57.37110449 92.38352693     2    446   450   451   452
H 920.17068332 -57.48203317 90.94081841     6    449    0    0    0
H 920.91929881 -57.75078948 94.18500857     6    449    0    0    0
C 921.71881274 -54.45017065 92.60503311     2    449   453   454   455
H 922.80902291 -53.91309845 94.09697066     6    452    0    0    0
H 922.83378757 -53.69134402 90.89094507     6    452    0    0    0
C 918.93344383 -53.27963980 92.30876124     2    452   456   457   458
H 918.26743978 -53.75185577 90.48637858     6    455    0    0    0
H 917.75875699 -54.24852622 93.77489044     6    455    0    0    0
C 918.90041465 -50.31775825 92.46164929     2    455   459   460   461
H 916.96080220 -49.74059222 92.99939426     6    458    0    0    0
H 919.95601550 -49.97368983 94.22841193     6    458    0    0    0
C 919.64127614 -48.87859407 90.12967124     2    458   462   463   464
H 921.19319977 -49.77677390 89.26509085     6    461    0    0    0
H 918.09715500 -48.96078351 88.86226308     6    461    0    0    0
C 919.97639112 -46.09325336 90.64534550     1    461   465   466   467
H 921.65023389 -45.86892226 91.90960881     6    464    0    0    0
H 918.33658506 -45.22956296 91.49120835     6    464    0    0    0
H 920.48774679 -45.01667135 88.92273868     6    464    0    0    0
H 953.91371868 -88.98632213 66.31983060     6     469    0    0    0 
C 954.19260417 -87.32864954 67.61126822     1     468    470    471    472
H 955.62211229 -87.77085613 68.98356540     6     469    0    0    0
H 954.87437661 -85.78484032 66.34276232     6     469    0    0    0
C 951.64516109 -86.40205379 68.83011183     2     469    473    474    475
H 952.37614360 -85.50346186 70.59794698     6     472    0    0    0
H 950.57186552 -85.07922041 67.51611658     6     472    0    0    0
C 949.92658164 -88.59497678 69.52193139     2     472    476   477   478
H 949.65701231 -89.77082619 67.87198476     6     475    0    0    0
H 950.74160299 -89.67093567 71.02242793     6     475    0    0    0
C 947.26621640 -87.62354839 70.16487701     2     475   479   480   481
H 947.53074587 -86.34124983 71.82611544     6    478    0    0    0
H 946.66145219 -86.55445035 68.58871173     6    478    0    0    0
C 945.52680968 -89.86835461 70.71538268     2    478   482   483   484
H 945.34822723 -90.94178117 68.99474579     6    481    0    0    0
H 946.61438345 -91.21000262 72.00658890     6    481    0    0    0
C 942.87772470 -89.28151968 71.70102749     2    481   485   486   487
H 943.02376138 -88.42407863 73.65096578     6    484    0    0    0
H 942.40099588 -87.86182130 70.28513493     6    484    0    0    0
C 941.16675976 -91.63744004 71.66481980     2    484   488   489   490
H 941.06095933 -92.28417863 69.69875833     6    487    0    0    0
H 941.89699211 -93.23967612 72.88227963     6    487    0    0    0
C 938.33841472 -90.97679267 72.23899265     2    487   491   492   493
H 938.06228035 -90.37472154 74.29139892     6    490    0    0    0
H 937.68975825 -89.36930440 71.12069226     6    490    0    0    0
C 936.47925355 -93.11583929 71.91565957     2    490   494   495   496
H 936.71684709 -93.47036148 69.89883811     6    493    0    0    0
H 937.27214369 -94.94836402 72.77335697     6    493    0    0    0
C 933.66757971 -92.51979668 72.56233547     2    493   497   498   499
H 933.45667589 -91.61164906 74.35738640     6    496    0    0    0
H 932.65136573 -91.33221354 71.37477277     6    496    0    0    0
C 932.19838420 -94.95226871 72.23133215     2    496   500   501   502
H 932.42118021 -95.65908173 70.36706546     6    499    0    0    0
H 933.26859453 -96.40862086 73.11785559     6    499    0    0    0
C 929.40915087 -94.91269754 73.11144598     1    499   503   504   505
H 928.35006132 -96.59869759 72.98541302     6    502    0    0    0
H 928.29176607 -93.49775154 72.18087626     6    502    0    0    0
H 929.30879316 -94.34495155 75.20535914     6    502    0    0    0
H 916.63143113 -86.91698601 86.06010758     6     507    0    0    0 
C 915.57623576 -85.33200639 85.38670799     1     506    508    509    510
H 914.97042091 -85.66547549 83.44756953     6     507    0    0    0
H 913.82869363 -85.30519552 86.48821383     6     507    0    0    0
C 917.17950600 -82.92161172 85.49557831     2     507    511    512    513
H 917.60580799 -82.59515673 87.46328125     6     510    0    0    0
H 918.91397118 -83.41630076 84.38685835     6     510    0    0    0
C 915.82666930 -80.71904662 84.26008600     2     510    514   515   516
H 915.38069090 -81.39327011 82.39636916     6     513    0    0    0
H 914.10602247 -80.37081213 85.11927525     6     513    0    0    0
C 917.54984184 -78.45532845 84.07350133     2     513   517   518   519
H 917.72013594 -77.79068173 85.90871054     6    516    0    0    0
H 919.46566663 -79.00054376 83.45913786     6    516    0    0    0
C 916.55749186 -76.32966001 82.51964851     2    516   520   521   522
H 916.57531706 -76.91257498 80.57807707     6    519    0    0    0
H 914.51585733 -76.08603652 83.02341769     6    519    0    0    0
C 918.02080907 -73.84409915 82.90012340     2    519   523   524   525
H 917.80840280 -73.53482578 85.01505520     6    522    0    0    0
H 920.05995127 -73.87863543 82.41212715     6    522    0    0    0
C 917.06655386 -71.49514697 81.36059265     2    522   526   527   528
H 917.41628162 -71.79772910 79.35950477     6    525    0    0    0
H 914.96497746 -71.38629729 81.41903046     6    525    0    0    0
C 918.03377120 -68.85668152 82.07879585     2    525   529   530   531
H 918.03859994 -68.41307546 84.08300193     6    528    0    0    0
H 920.07988832 -68.73432962 81.65951900     6    528    0    0    0
C 916.57791816 -66.82534826 80.79023911     2    528   532   533   534
H 915.86336000 -67.75340463 79.14657197     6    531    0    0    0
H 915.02620008 -66.37001764 81.95857193     6    531    0    0    0
C 918.02396669 -64.27901686 80.47634372     2    531   535   536   537
H 918.21124197 -63.47981809 82.25088914     6    534    0    0    0
H 919.89453046 -64.75707531 79.72786993     6    534    0    0    0
C 916.83949504 -62.27245847 78.79346848     2    534   538   539   540
H 916.55585395 -63.20990875 77.01043183     6    537    0    0    0
H 914.94289747 -61.69832971 79.37719144     6    537    0    0    0
C 918.25460585 -59.89407808 78.39637782     1    537   541   542   543
H 919.75392536 -59.98190365 77.15316793     6    540    0    0    0
H 918.91997821 -59.05833801 80.12638823     6    540    0    0    0
H 917.17082950 -58.47802780 77.47559185     6    540    0    0    0
H 933.74005626 -48.42769565 74.19232613     6     545    0    0    0 
C 935.28885594 -47.13650497 73.80132797     1     544    546    547    548
H 934.82635380 -45.30523276 74.59082824     6     545    0    0    0
H 936.92073091 -47.77579859 74.73297286     6     545    0    0    0
C 935.68732611 -46.56918539 71.04960563     2     545    549    550    551
H 936.61914462 -48.34478111 70.39889577     6     548    0    0    0
H 933.74558032 -46.35887991 70.17118422     6     548    0    0    0
C 937.55694888 -44.57643791 70.46095636     2     548    552   553   554
H 936.95401210 -42.72275177 70.74585380     6     551    0    0    0
H 939.18423355 -44.95980353 71.64375678     6     551    0    0    0
C 938.43900286 -44.82369413 67.71292790     2     551   555   556   557
H 939.43539291 -46.68717043 67.39648302     6    554    0    0    0
H 936.92873153 -44.64121330 66.35432742     6    554    0    0    0
C 940.40866572 -42.83033040 67.02608120     2    554   558   559   560
H 939.17604250 -41.19687131 67.21906916     6    557    0    0    0
H 941.85365951 -42.55747709 68.36283366     6    557    0    0    0
C 941.33846780 -43.21908446 64.25699124     2    557   561   562   563
H 943.13719108 -44.24033799 64.45684242     6    560    0    0    0
H 940.13158558 -44.42942782 63.18966538     6    560    0    0    0
C 941.59788081 -40.64872494 62.69244223     2    560   564   565   566
H 939.76725825 -39.67090477 62.52253076     6    563    0    0    0
H 942.67214385 -39.53128517 63.96533666     6    563    0    0    0
C 943.06844406 -40.79793243 60.25915394     2    563   567   568   569
H 943.62216398 -38.96253470 59.46780761     6    566    0    0    0
H 944.68846975 -41.81945998 60.92323780     6    566    0    0    0
C 942.07395683 -42.57149079 58.20475004     2    566   570   571   572
H 941.59775860 -44.37493176 59.15367351     6    569    0    0    0
H 940.37768504 -41.86653626 57.39983936     6    569    0    0    0
C 944.02362601 -43.02925720 56.18272697     2    569   573   574   575
H 944.41438297 -41.42488428 55.15124087     6    572    0    0    0
H 945.88725839 -43.46295932 57.02753237     6    572    0    0    0
C 943.39434848 -45.00596106 54.13494680     2    572   576   577   578
H 941.97641483 -44.27837131 52.99171376     6    575    0    0    0
H 945.10043641 -45.24465706 52.99187417     6    575    0    0    0
C 942.35039259 -47.49564203 54.89035002     1    575   579   580   581
H 942.97160919 -48.01669545 56.78719834     6    578    0    0    0
H 942.85449760 -49.15986790 53.79027920     6    578    0    0    0
H 940.24295225 -47.49706167 55.03075652     6    578    0    0    0
H 946.95901575 -71.34322473 58.71209028     6     583    0    0    0 
C 948.81303282 -71.92712039 59.10489942     1     582    584    585    586
H 948.64872505 -73.80299844 60.13381747     6     583    0    0    0
H 949.78599057 -72.46071931 57.25781072     6     583    0    0    0
C 949.90552915 -69.79393271 60.71786602     2     583    587    588    589
H 948.70519827 -69.27195638 62.23246843     6     586    0    0    0
H 951.50539894 -70.62508099 61.80580795     6     586    0    0    0
C 950.57595376 -67.62652045 58.85989786     2     586    590   591   592
H 951.99120450 -68.11453236 57.42069226     6     589    0    0    0
H 948.97156343 -66.94371003 57.78342680     6     589    0    0    0
C 951.64772558 -65.31320429 60.48709130     2     589   593   594   595
H 950.20241596 -64.56031908 61.73526326     6    592    0    0    0
H 953.17728491 -65.95988840 61.64253625     6    592    0    0    0
C 952.39400233 -62.94373617 58.81728899     2    592   596   597   598
H 954.03954208 -63.10932806 57.48178838     6    595    0    0    0
H 950.74838044 -62.28858444 57.81631663     6    595    0    0    0
C 953.28348290 -60.73434527 60.45619614     2    595   599   600   601
H 952.15310830 -60.62076945 62.01491638     6    598    0    0    0
H 955.25038142 -61.18221180 60.94609650     6    598    0    0    0
C 953.31200924 -57.97987090 59.13267980     2    598   602   603   604
H 954.08263088 -58.03540559 57.36027956     6    601    0    0    0
H 951.44264923 -57.16528716 59.06627796     6    601    0    0    0
C 955.07542858 -56.11091216 60.79541258     2    601   605   606   607
H 954.58785100 -56.54496981 62.78567812     6    604    0    0    0
H 957.02747990 -56.49947527 60.69159693     6    604    0    0    0
C 954.46805754 -53.29358891 60.31706380     2    604   608   609   610
H 954.66432090 -52.98417595 58.32761741     6    607    0    0    0
H 952.48228807 -52.73015255 60.66851945     6    607    0    0    0
C 956.43574399 -51.66034961 61.68942070     2    607   611   612   613
H 956.34257738 -51.92591061 63.61494390     6    610    0    0    0
H 958.34901076 -52.16968398 61.13844387     6    610    0    0    0
C 955.84284717 -48.79362364 61.36274296     2    610   614   615   616
H 956.13300789 -48.33461315 59.28290158     6    613    0    0    0
H 953.88215785 -48.46511015 61.86272534     6    613    0    0    0
C 957.63795475 -47.17041440 63.17627121     1    613   617   618   619
H 958.06850454 -47.93735744 65.00365686     6    616    0    0    0
H 956.59032123 -45.44225764 63.68636561     6    616    0    0    0
H 959.42666602 -46.64188164 62.32298513     6    616    0    0    0
H 914.71033380 -58.15317705 62.68338221     6     621    0    0    0 
C 916.51938186 -57.41163115 62.06373017     1     620    622    623    624
H 916.44176624 -55.34251930 62.07265397     6     621    0    0    0
H 917.66745960 -57.82981238 63.71412502     6     621    0    0    0
C 917.68251876 -58.71632502 59.76406453     2     621    625    626    627
H 919.45877115 -58.14766665 59.41809889     6     624    0    0    0
H 917.79988170 -60.73160587 60.13964348     6     624    0    0    0
C 915.96953565 -58.64133127 57.37429756     2     624    628   629   630
H 913.99149439 -59.08122670 58.13639127     6     627    0    0    0
H 915.87635643 -56.74805194 56.75305349     6     627    0    0    0
C 916.92436556 -60.50214686 55.33347295     2     627   631   632   633
H 918.83273843 -60.12271542 55.05896490     6    630    0    0    0
H 916.83017847 -62.46834979 55.82069551     6    630    0    0    0
C 915.65699423 -60.29108988 52.83117162     2    630   634   635   636
H 913.82133041 -60.99171219 53.25890470     6    633    0    0    0
H 915.62343283 -58.37660056 52.16180781     6    633    0    0    0
C 916.88962483 -62.14290784 50.79402804     2    633   637   638   639
H 918.83545157 -61.63865252 50.59534746     6    636    0    0    0
H 916.99368923 -64.20355032 51.47839626     6    636    0    0    0
C 915.39097179 -61.91299187 48.26708904     2    636   640   641   642
H 913.38837370 -62.51578200 48.31374462     6    639    0    0    0
H 915.17674203 -59.84981331 47.88049498     6    639    0    0    0
C 916.69342116 -62.95443795 45.97327602     2    639   643   644   645
H 918.44247695 -62.04067766 46.02886475     6    642    0    0    0
H 916.97125746 -64.90986970 46.55642272     6    642    0    0    0
C 915.12967666 -62.76414833 43.50296428     2    642   646   647   648
H 913.27778253 -63.58411715 43.65728472     6    645    0    0    0
H 914.66289546 -60.70387424 43.54350538     6    645    0    0    0
C 916.53982839 -63.57602098 41.17929678     2    645   649   650   651
H 918.61537273 -63.29600949 41.68897860     6    648    0    0    0
H 916.31297749 -65.55285437 40.81555178     6    648    0    0    0
C 915.79815390 -61.88543225 39.05194736     2    648   652   653   654
H 913.79649623 -62.14002976 38.47155528     6    651    0    0    0
H 915.78933532 -59.91122450 39.62548767     6    651    0    0    0
C 917.45836150 -62.15225100 36.61282930     1    651   655   656   657
H 919.41645935 -61.94982175 37.25752712     6    654    0    0    0
H 917.02071583 -60.73475724 35.26574883     6    654    0    0    0
H 917.35654840 -63.93736507 35.71901301     6    654    0    0    0
H 944.34467113 -69.09019216 52.78644390     6     659    0    0    0 
C 943.02293602 -67.89272493 53.89619027     1     658    660    661    662
H 941.38472832 -67.75017624 52.68111560     6     659    0    0    0
H 942.55560735 -68.94427991 55.64412506     6     659    0    0    0
C 944.04695121 -65.25539388 54.50642152     2     659    663    664    665
H 946.02924373 -65.44899231 55.08226891     6     662    0    0    0
H 944.23561429 -64.30091353 52.76069155     6     662    0    0    0
C 942.54723792 -63.69340461 56.34671414     2     662    666   667   668
H 942.95725811 -61.78315086 55.98390095     6     665    0    0    0
H 940.54890706 -63.73000121 55.90517394     6     665    0    0    0
C 942.96473810 -64.43533996 59.06890510     2     665   669   670   671
H 941.52515670 -65.94264325 59.37912454     6    668    0    0    0
H 944.78738483 -65.23706503 59.54992962     6    668    0    0    0
C 942.41533798 -62.18515082 60.69457866     2    668   672   673   674
H 940.89290589 -61.07384154 60.00115936     6    671    0    0    0
H 941.63181502 -63.03035638 62.46452175     6    671    0    0    0
C 944.52239970 -60.45464168 61.48605527     2    671   675   676   677
H 944.01661659 -59.14663142 63.08059885     6    674    0    0    0
H 945.97761443 -61.68591316 61.99724926     6    674    0    0    0
C 945.68967919 -58.75945015 59.21412897     2    674   678   679   680
H 947.35105785 -57.63180684 60.03917021     6    677    0    0    0
H 946.35359781 -60.03899469 57.80975416     6    677    0    0    0
C 943.97791934 -56.70361282 58.10766335     2    677   681   682   683
H 942.83444162 -57.66535811 56.64076560     6    680    0    0    0
H 942.78074509 -55.87345835 59.56021354     6    680    0    0    0
C 945.54587931 -54.71407027 56.71762550     2    680   684   685   686
H 947.10444796 -55.71943081 55.74285688     6    683    0    0    0
H 944.55729006 -53.74301602 55.15514385     6    683    0    0    0
C 946.26022893 -52.43876840 58.58617597     2    683   687   688   689
H 944.47801662 -51.74472476 59.37939410     6    686    0    0    0
H 947.28324204 -53.12098296 60.18086221     6    686    0    0    0
C 947.83126270 -50.34920893 57.17978320     2    686   690   691   692
H 949.57412721 -51.02092223 56.30794209     6    689    0    0    0
H 946.83568956 -49.64870950 55.55531097     6    689    0    0    0
C 948.49571196 -48.14090553 58.98119651     1    689   693   694   695
H 949.71596159 -46.88607790 57.85438029     6    692    0    0    0
H 949.63928711 -48.98627558 60.53587563     6    692    0    0    0
H 946.83641100 -47.19302228 59.82819717     6    692    0    0    0
H 932.58108222 -34.58640285 64.63684873     6     697    0    0    0 
C 931.42106262 -35.86072391 65.88546417     1     696    698    699    700
H 929.88319444 -34.82893575 66.49016055     6     697    0    0    0
H 930.62543096 -37.36248483 64.78829399     6     697    0    0    0
C 932.82743053 -36.59048131 68.35746223     2     697    701    702    703
H 934.39336388 -37.83281122 67.84991542     6     700    0    0    0
H 933.46320780 -34.79370910 69.32118412     6     700    0    0    0
C 931.09288872 -38.06696070 70.14909065     2     700    704   705   706
H 929.54964456 -36.90033453 70.60303172     6     703    0    0    0
H 930.33523019 -39.77612065 69.18014952     6     703    0    0    0
C 932.37391458 -38.78403689 72.76500640     2     703   707   708   709
H 933.77432313 -40.08958635 72.50445487     6    706    0    0    0
H 933.17308205 -37.06069248 73.44865795     6    706    0    0    0
C 930.43441240 -39.79721178 74.64082861     2    706   710   711   712
H 928.82576982 -38.41724286 75.06068232     6    709    0    0    0
H 929.63077506 -41.61132922 74.02281632     6    709    0    0    0
C 931.81724335 -40.08981100 77.19042706     2    709   713   714   715
H 933.52182546 -41.30542115 77.10523214     6    712    0    0    0
H 932.40723716 -38.35077265 77.99767355     6    712    0    0    0
C 929.94371806 -40.91135053 79.19885976     2    712   716   717   718
H 928.46013951 -39.45952390 79.49881753     6    715    0    0    0
H 929.02757912 -42.52082783 78.34525743     6    715    0    0    0
C 931.19121207 -41.95640152 81.59087542     2    715   719   720   721
H 932.79105205 -43.15807952 81.13326561     6    718    0    0    0
H 932.07516720 -40.43788715 82.66356963     6    718    0    0    0
C 929.08860939 -43.05987644 83.25092542     2    718   722   723   724
H 927.64725821 -41.67712691 83.55118157     6    721    0    0    0
H 928.39503439 -44.76597652 82.39712783     6    721    0    0    0
C 930.29872099 -43.97782164 85.74491788     2    721   725   726   727
H 932.21004129 -44.88583975 85.56141028     6    724    0    0    0
H 930.73051796 -42.33221638 86.98226775     6    724    0    0    0
C 928.80547438 -45.97240977 87.29526806     2    724   728   729   730
H 929.14623882 -47.78461656 86.61901615     6    727    0    0    0
H 929.71755914 -46.09582201 89.10829410     6    727    0    0    0
C 926.00614983 -45.39049208 87.99944890     1    727   731   732   733
H 925.58833942 -46.76644264 89.49818547     6    730    0    0    0
H 924.60109763 -45.43228053 86.38226313     6    730    0    0    0
H 925.98075742 -43.44791451 88.77242903     6    730    0    0    0
H 954.20586049 -75.42297444 78.25630279     6     735    0    0    0 
C 952.23202952 -76.07784476 77.79235849     1     734    736    737    738
H 952.20656173 -78.11525643 77.98520921     6     735    0    0    0
H 950.90297975 -75.48506850 79.34919287     6     735    0    0    0
C 951.08699684 -75.28581949 75.18977543     2     735    739    740    741
H 951.37077771 -73.32046747 74.66396183     6     738    0    0    0
H 952.27519631 -76.38479724 73.81218161     6     738    0    0    0
C 948.25154908 -75.93916325 74.97367589     2     738    742   743   744
H 946.98186888 -74.37471372 75.78646538     6     741    0    0    0
H 948.04073039 -75.95970596 72.92682187     6     741    0    0    0
C 947.44336489 -78.55274231 75.95743596     2     741   745   746   747
H 948.18633988 -80.09294999 74.90407019     6    744    0    0    0
H 947.85508669 -78.87668593 77.98091592     6    744    0    0    0
C 944.58780412 -78.80800846 75.67443230     2    744   748   749   750
H 943.75144678 -77.41682951 76.84508421     6    747    0    0    0
H 944.18961910 -78.39750787 73.63090103     6    747    0    0    0
C 943.61549038 -81.46109545 76.38013057     2    747   751   752   753
H 944.36521084 -82.92404697 75.09734334     6    750    0    0    0
H 944.05712964 -82.03180144 78.32138156     6    750    0    0    0
C 940.67930055 -81.33538651 76.10933408     2    750   754   755   756
H 939.89045090 -79.91617760 77.58380627     6    753    0    0    0
H 940.34115217 -80.66387016 74.19054015     6    753    0    0    0
C 939.96681749 -84.16782469 76.51620253     2    753   757   758   759
H 940.24785382 -85.15342309 74.67702614     6    756    0    0    0
H 940.94860852 -85.07974387 77.96148054     6    756    0    0    0
C 937.26902359 -84.71281634 77.51321509     2    756   760   761   762
H 935.81091821 -83.44127846 76.68467548     6    759    0    0    0
H 936.83555479 -86.52566220 76.58578785     6    759    0    0    0
C 937.20258476 -84.55842527 80.34684260     2    759   763   764   765
H 938.61553594 -86.06950610 81.03563394     6    762    0    0    0
H 937.92676454 -82.77066047 80.87466331     6    762    0    0    0
C 934.67460390 -84.96030889 81.61407979     2    762   766   767   768
H 933.21743137 -83.69108203 80.91560884     6    765    0    0    0
H 933.91778165 -86.86920133 80.93747859     6    765    0    0    0
C 934.89118284 -84.82110303 84.49628104     1    765   769   770   771
H 936.20903597 -86.09929192 85.15448014     6    768    0    0    0
H 933.01410079 -85.20346107 85.02300602     6    768    0    0    0
H 935.37558190 -82.92598093 85.13092295     6    768    0    0    0
H 907.41322604 -56.79097717 48.54071426     6     773    0    0    0 
C 906.88647823 -58.44153966 49.75083128     1     772    774    775    776
H 904.83079129 -58.18626938 50.25796499     6     773    0    0    0
H 906.98777603 -60.12876206 48.58308037     6     773    0    0    0
C 908.48864985 -58.42055978 52.05285209     2     773    777    778    779
H 908.25429202 -60.07705254 53.12980732     6     776    0    0    0
H 910.47044536 -58.04228114 51.51411784     6     776    0    0    0
C 908.22570134 -56.04169580 53.81283807     2     776    780   781   782
H 909.11468353 -54.28755098 53.02878063     6     779    0    0    0
H 906.20855260 -55.79436495 54.16329863     6     779    0    0    0
C 909.59659033 -56.59177618 56.32845536     2     779   783   784   785
H 909.99276514 -58.52009228 56.68879107     6    782    0    0    0
H 911.36734612 -55.51266613 56.35080065     6    782    0    0    0
C 907.82930173 -55.49625984 58.41226920     2    782   786   787   788
H 907.37918946 -53.50480058 58.05483460     6    785    0    0    0
H 906.06581296 -56.58744777 58.27356887     6    785    0    0    0
C 909.02530566 -55.63736278 61.08104495     2    785   789   790   791
H 909.22355146 -57.64724496 61.56929340     6    788    0    0    0
H 911.02405129 -55.01883311 61.18225974     6    788    0    0    0
C 907.33483840 -54.40258580 63.19572945     2    788   792   793   794
H 907.17707597 -52.47153551 62.53730229     6    791    0    0    0
H 905.44539439 -55.38216617 63.25694570     6    791    0    0    0
C 908.46696518 -54.54814877 65.79506611     2    791   795   796   797
H 908.54778538 -56.43033913 66.35225787     6    794    0    0    0
H 910.51530341 -53.93622929 65.66759775     6    794    0    0    0
C 907.31552295 -52.81153459 67.92119812     2    794   798   799   800
H 906.78513195 -50.94266695 67.16737052     6    797    0    0    0
H 905.43243463 -53.52193617 68.74505772     6    797    0    0    0
C 909.09123885 -52.46402614 70.09689698     2    797   801   802   803
H 909.50784013 -54.22339282 70.71037552     6    800    0    0    0
H 910.89504888 -51.68250039 69.48586453     6    800    0    0    0
C 907.81786205 -50.71974703 72.11488098     2    800   804   805   806
H 907.76284808 -48.93155447 71.11628557     6    803    0    0    0
H 905.77927617 -51.06081262 72.56984532     6    803    0    0    0
C 909.16378876 -50.30943046 74.82350768     1    803   807   808   809
H 911.02081008 -49.39803854 74.47953779     6    806    0    0    0
H 909.57790680 -52.24906406 75.50224216     6    806    0    0    0
H 908.10253485 -49.00574841 76.24079672     6    806    0    0    0
H 943.58505435 -76.82057098 62.72757965     6     811    0    0    0 
C 942.73485593 -74.98786055 63.14022745     1     810    812    813    814
H 942.78256112 -75.02422588 65.10907758     6     811    0    0    0
H 944.09963049 -73.62139088 62.37003014     6     811    0    0    0
C 939.91254715 -74.67347935 62.50118457     2     811    815    816    817
H 939.21754353 -72.99986934 63.05991213     6     814    0    0    0
H 939.82273240 -74.64880259 60.33039438     6     814    0    0    0
C 938.27544071 -76.75602229 63.66884968     2     814    818   819   820
H 938.91250653 -78.61867887 63.10467353     6     817    0    0    0
H 938.58263155 -76.68621400 65.72412402     6     817    0    0    0
C 935.53251674 -76.35226299 63.08724165     2     817   821   822   823
H 934.90508262 -75.00537371 64.48075463     6    820    0    0    0
H 935.19445185 -75.33774794 61.32403372     6    820    0    0    0
C 934.08736281 -78.77257658 63.32971506     2    820   824   825   826
H 934.89039929 -80.10467695 62.11999407     6    823    0    0    0
H 934.27693569 -79.27862200 65.29295349     6    823    0    0    0
C 931.47828242 -78.45963783 62.35251578     2    823   827   828   829
H 930.44955929 -76.96762642 63.45962274     6    826    0    0    0
H 931.47809609 -78.04109658 60.36408251     6    826    0    0    0
C 929.88351986 -80.86329533 62.75960884     2    826   830   831   832
H 930.89754507 -82.49668780 62.04250452     6    829    0    0    0
H 929.87657404 -81.37722129 64.70207501     6    829    0    0    0
C 927.12103832 -80.85079381 62.02138898     2    829   833   834   835
H 926.07012293 -79.33076989 63.05926083     6    832    0    0    0
H 926.86747426 -80.16053118 60.04770833     6    832    0    0    0
C 925.77742837 -83.41367553 62.41792950     2    832   836   837   838
H 926.67369904 -84.69603619 61.16509533     6    835    0    0    0
H 926.10234544 -84.19648472 64.25109506     6    835    0    0    0
C 922.85670484 -83.29683607 62.13107409     2    835   839   840   841
H 922.07428352 -81.77882005 63.38118972     6    838    0    0    0
H 922.44364363 -82.48462390 60.35791024     6    838    0    0    0
C 921.50588895 -85.99612722 62.43600888     2    838   842   843   844
H 922.18777693 -87.24451414 60.95493939     6    841    0    0    0
H 921.99498181 -86.69652915 64.26639879     6    841    0    0    0
C 918.71270302 -85.50635245 62.15628712     1    841   845   846   847
H 918.13181045 -84.15032942 63.50989605     6    844    0    0    0
H 917.61640886 -87.26680463 62.19561607     6    844    0    0    0
H 918.46341022 -84.55410529 60.30606544     6    844    0    0    0
H 953.41322348 -37.62797853 50.02683723     6     849    0    0    0 
C 952.25782120 -38.99079706 51.18347787     1     848    850    851    852
H 952.47856081 -38.55807471 53.15787090     6     849    0    0    0
H 950.20026082 -38.87103434 50.80604589     6     849    0    0    0
C 953.10808223 -41.58621997 50.47178362     2     849    853    854    855
H 952.97746701 -41.66691946 48.38179335     6     852    0    0    0
H 955.07259217 -41.84371591 50.94737330     6     852    0    0    0
C 951.71327635 -43.97359589 51.56611722     2     852    856   857   858
H 952.09211365 -44.02943295 53.51705273     6     855    0    0    0
H 949.63859956 -43.78361866 51.18282426     6     855    0    0    0
C 952.78899771 -46.48341672 50.43579135     2     855   859   860   861
H 952.65340801 -46.53147376 48.32507845     6    858    0    0    0
H 954.73506614 -46.42035393 50.90508376     6    858    0    0    0
C 951.57401285 -48.89735280 51.46343853     2    858   862   863   864
H 952.08978654 -49.05679721 53.48797953     6    861    0    0    0
H 949.41568125 -48.80431258 51.38981359     6    861    0    0    0
C 952.67881581 -51.45054600 50.37238700     2    861   865   866   867
H 952.65342696 -51.46595635 48.31394271     6    864    0    0    0
H 954.74571283 -51.38166248 50.58997072     6    864    0    0    0
C 951.62638632 -53.76430245 51.60527695     2    864   868   869   870
H 952.30189823 -54.06749744 53.57052027     6    867    0    0    0
H 949.58648183 -53.45063110 51.78735421     6    867    0    0    0
C 952.46945145 -56.09042408 50.13895193     2    867   871   872   873
H 951.11282696 -56.00313557 48.51380630     6    870    0    0    0
H 954.48864597 -56.24216258 49.64572246     6    870    0    0    0
C 951.77981481 -58.43057386 51.58556802     2    870   874   875   876
H 953.39562622 -59.12960177 52.81307561     6    873    0    0    0
H 950.21595927 -58.41594793 52.89510987     6    873    0    0    0
C 951.30339697 -60.59842139 49.76945354     2    873   877   878   879
H 949.77398353 -60.29395551 48.36115130     6    876    0    0    0
H 953.01109539 -60.89990003 48.78679590     6    876    0    0    0
C 950.57030485 -62.94680762 51.34074887     2    876   880   881   882
H 952.11166302 -63.60166945 52.53973370     6    879    0    0    0
H 948.91305868 -62.51977408 52.45336149     6    879    0    0    0
C 950.17091165 -65.20023009 49.54927556     1    879   883   884   885
H 952.03254977 -65.72791255 48.80712965     6    882    0    0    0
H 948.78383082 -64.91771463 48.00325707     6    882    0    0    0
H 949.38400269 -66.82155349 50.64415858     6    882    0    0    0
H 922.75505826 -76.37624218 54.97374538     6     887    0    0    0 
C 923.25752843 -75.23583946 56.51890068     1     886    888    889    890
H 921.78369711 -73.95533645 57.02249369     6     887    0    0    0
H 923.33973308 -76.66799675 57.90950626     6     887    0    0    0
C 925.73273776 -73.89812820 56.22914361     2     887    891    892    893
H 927.25362613 -75.42981138 55.87986128     6     890    0    0    0
H 925.76756102 -72.65238341 54.61396017     6     890    0    0    0
C 926.58269991 -72.56216370 58.68827990     2     890    894   895   896
H 925.09558044 -71.40886972 59.44072770     6     893    0    0    0
H 926.76129039 -73.95148915 60.12489742     6     893    0    0    0
C 928.81565612 -70.90363364 58.40645097     2     893   897   898   899
H 930.46360608 -71.98056666 57.60594635     6    896    0    0    0
H 928.53801155 -69.47799256 56.96573408     6    896    0    0    0
C 929.66217372 -69.74841089 60.91006905     2    896   900   901   902
H 928.28581740 -68.41194818 61.57057400     6    899    0    0    0
H 929.73377654 -70.98656430 62.47321469     6    899    0    0    0
C 932.35766783 -68.79811726 60.78396417     2    899   903   904   905
H 933.61418678 -70.05486011 59.76014646     6    902    0    0    0
H 932.24907065 -67.01909785 59.68821694     6    902    0    0    0
C 933.65005464 -67.94751861 63.16358602     2    902   906   907   908
H 932.35436021 -66.71398486 64.10068706     6    905    0    0    0
H 933.91015948 -69.75923778 64.19369466     6    905    0    0    0
C 936.30270770 -66.83654506 62.88685998     2    905   909   910   911
H 937.54116666 -67.97667755 61.63513883     6    908    0    0    0
H 936.22375576 -65.08776468 61.93635661     6    908    0    0    0
C 937.70942596 -66.45279272 65.39027105     2    908   912   913   914
H 938.98000029 -64.89915970 65.06240776     6    911    0    0    0
H 936.33376104 -65.81765009 66.79479122     6    911    0    0    0
C 939.44977807 -68.72843050 66.14924684     2    911   915   916   917
H 938.25548464 -70.38834408 66.37483740     6    914    0    0    0
H 940.81859400 -69.28019822 64.71577804     6    914    0    0    0
C 940.80703992 -68.31691435 68.58155280     2    914   918   919   920
H 941.96702183 -66.63282925 68.29746203     6    917    0    0    0
H 939.56830821 -67.61950908 70.08897772     6    917    0    0    0
C 942.48577444 -70.57251628 69.36874878     1    917   921   922   923
H 944.14905579 -70.81539625 68.14048071     6    920    0    0    0
H 941.59340403 -72.35244904 69.22037075     6    920    0    0    0
H 943.14119485 -70.29310918 71.21439410     6    920    0    0    0
H 931.77102588 -57.77689893 42.64573864     6     925    0    0    0 
C 932.66473347 -59.30046290 43.79191128     1     924    926    927    928
H 934.15340718 -58.55750837 44.82865977     6     925    0    0    0
H 931.05680127 -60.09847533 44.79306717     6     925    0    0    0
C 933.54264474 -61.29424933 41.93986035     2     925    929    930    931
H 931.91989712 -61.72201313 40.59033567     6     928    0    0    0
H 935.10377754 -60.53962267 40.82896599     6     928    0    0    0
C 934.38238068 -63.68224402 43.10018310     2     928    932   933   934
H 933.08469964 -64.13980291 44.54445980     6     931    0    0    0
H 934.52087845 -65.24202396 41.72359554     6     931    0    0    0
C 936.91935413 -63.28575375 44.24104996     2     931   935   936   937
H 938.30267557 -62.88651883 42.65805298     6    934    0    0    0
H 936.93917158 -61.44436102 45.35363574     6    934    0    0    0
C 937.63069219 -65.31005650 46.16290219     2    934   938   939   940
H 935.94281331 -65.50445900 47.48123239     6    937    0    0    0
H 937.86111798 -66.96187032 45.04095424     6    937    0    0    0
C 939.93530517 -64.60597638 47.75411730     2    937   941   942   943
H 940.07336344 -62.62410062 48.16638993     6    940    0    0    0
H 939.94488784 -65.69593801 49.45476589     6    940    0    0    0
C 942.32399896 -65.02941920 46.25618393     2    940   944   945   946
H 942.03165554 -64.53777178 44.24144732     6    943    0    0    0
H 944.01495238 -63.94042631 46.79127695     6    943    0    0    0
C 943.31019521 -67.81266160 46.25123749     2    943   947   948   949
H 944.22172173 -68.22367429 48.12429724     6    946    0    0    0
H 941.86306343 -69.19921032 45.92111800     6    946    0    0    0
C 945.10272961 -68.25208606 44.13553576     2    946   950   951   952
H 944.10323867 -68.16270355 42.41486524     6    949    0    0    0
H 946.60973023 -66.87842944 43.97727164     6    949    0    0    0
C 946.08073069 -70.98376387 44.32368348     2    949   953   954   955
H 946.92110593 -71.35343512 46.13601466     6    952    0    0    0
H 944.43516362 -72.14968765 44.15189304     6    952    0    0    0
C 948.21200398 -71.85684450 42.43441997     2    952   956   957   958
H 950.03966394 -71.00999243 42.91734790     6    955    0    0    0
H 948.23128479 -74.03765091 42.29890858     6    955    0    0    0
C 947.31294875 -71.13715796 39.74820338     1    955   959   960   961
H 947.75422845 -69.17551226 39.34776836     6    958    0    0    0
H 945.37383693 -71.48786133 39.32494752     6    958    0    0    0
H 948.36933843 -72.20528923 38.28468094     6    958    0    0    0
H 929.93062096 -71.19680662 81.18020003     6     963    0    0    0 
C 929.10172212 -71.07934975 79.30557692     1     962    964    965    966
H 930.54870850 -70.76962424 77.86180520     6     963    0    0    0
H 927.94331724 -72.81075546 79.13351221     6     963    0    0    0
C 927.28260803 -68.86864143 79.24418500     2     963    967    968    969
H 927.21191069 -68.34747794 77.34731648     6     966    0    0    0
H 925.38289576 -69.38295139 79.95840452     6     966    0    0    0
C 928.45272185 -66.61062541 80.79044803     2     966    970   971   972
H 929.04670745 -67.10492775 82.63443491     6     969    0    0    0
H 929.99340284 -66.06969176 79.75866364     6     969    0    0    0
C 926.47771553 -64.62357582 81.07169312     2     969   973   974   975
H 925.86732050 -64.42540489 79.10122419     6    972    0    0    0
H 924.85861428 -65.37177393 82.02134308     6    972    0    0    0
C 927.40945265 -62.05025603 82.22330369     2    972   976   977   978
H 928.58581494 -62.45693395 83.86033249     6    975    0    0    0
H 928.29228485 -61.11982906 80.52151564     6    975    0    0    0
C 924.98007249 -60.59492303 82.98246873     2    975   979   980   981
H 923.72290917 -60.58029190 81.36398588     6    978    0    0    0
H 924.01688731 -61.48018830 84.44924037     6    978    0    0    0
C 925.68963549 -57.86591430 83.78115761     2    978   982   983   984
H 926.91733802 -57.73707063 85.41824096     6    981    0    0    0
H 926.57095440 -56.91511551 82.21317955     6    981    0    0    0
C 923.20340786 -56.37929333 84.20667522     2    981   985   986   987
H 921.79383369 -56.58780777 82.78935844     6    984    0    0    0
H 922.27726568 -56.84808715 86.02167279     6    984    0    0    0
C 923.83901915 -53.51912574 84.27724659     2    984   988   989   990
H 922.34148043 -52.63723555 85.29596232     6    987    0    0    0
H 925.64570837 -53.28754718 85.30754715     6    987    0    0    0
C 924.14673930 -52.07772050 81.80091137     2    987   991   992   993
H 925.82055935 -52.82329415 80.85702358     6    990    0    0    0
H 922.64257034 -52.88306992 80.63661386     6    990    0    0    0
C 924.40613874 -49.28098133 81.97670147     2    990   994   995   996
H 922.67694013 -48.60357881 82.83616916     6    993    0    0    0
H 925.80553972 -48.52166414 83.26201963     6    993    0    0    0
C 924.98569099 -48.13877121 79.35301994     1    993   997   998   999
H 927.03068061 -47.93361097 78.95871238     6    996    0    0    0
H 924.21125903 -46.38227040 79.02520725     6    996    0    0    0
H 923.91802564 -49.15105736 77.81639404     6    996    0    0    0
H 926.78264935 -82.17816239 81.78062088     6     1001    0    0    0 
C 928.04025907 -81.36712348 83.20713780     1     1000    1002    1003    1004
H 927.77878825 -82.46747429 84.93662457     6     1001    0    0    0
H 929.90641999 -81.74194764 82.64921760     6     1001    0    0    0
C 927.75379808 -78.54563686 83.76074484     2     1001    1005    1006    1007
H 928.13618584 -77.47656214 81.90041868     6     1004    0    0    0
H 925.85709053 -78.23075415 84.10614064     6     1004    0    0    0
C 929.62022214 -77.54673865 85.78563170     2     1004    1008   1009   1010
H 929.62981576 -78.85479298 87.30520178     6     1007    0    0    0
H 931.36314933 -77.76390525 84.95112685     6     1007    0    0    0
C 929.52118751 -74.81414670 86.54657183     2     1007   1011   1012   1013
H 929.74315347 -73.63218207 84.87301897     6    1010    0    0    0
H 927.50604077 -74.43564863 87.39181962     6    1010    0    0    0
C 931.58029649 -74.08364720 88.54887869     2    1010   1014   1015   1016
H 931.57771063 -75.30867377 90.22598642     6    1013    0    0    0
H 933.39868601 -74.46671545 87.56534018     6    1013    0    0    0
C 931.53688315 -71.30021142 89.38289295     2    1013   1017   1018   1019
H 932.05806420 -70.03956031 87.83769492     6    1016    0    0    0
H 929.68020489 -70.94825052 89.84457701     6    1016    0    0    0
C 933.32006950 -70.78748747 91.52889708     2    1016   1020   1021   1022
H 932.82007229 -72.35009068 92.73808078     6    1019    0    0    0
H 935.20320374 -71.44961323 91.17022434     6    1019    0    0    0
C 933.27113181 -68.34573976 92.96585796     2    1019   1023   1024   1025
H 931.36209315 -68.27796087 93.79695153     6    1022    0    0    0
H 934.69996356 -68.28892570 94.48125219     6    1022    0    0    0
C 933.93053404 -66.09988047 91.33126906     2    1022   1026   1027   1028
H 936.01176363 -66.05505128 90.91564658     6    1025    0    0    0
H 932.84367176 -66.19878313 89.62973837     6    1025    0    0    0
C 933.37912207 -63.62054553 92.75715064     2    1025   1029   1030   1031
H 931.22107721 -63.33260995 92.84159816     6    1028    0    0    0
H 933.57187152 -63.70321872 94.81869502     6    1028    0    0    0
C 934.79013335 -61.35688696 91.87021658     2    1028   1032   1033   1034
H 936.76787886 -61.61938643 92.15219620     6    1031    0    0    0
H 934.43175451 -61.18122577 89.87271173     6    1031    0    0    0
C 934.08311732 -59.10889745 93.49898659     1    1031   1035   1036   1037
H 935.61091911 -57.73858079 93.32068871     6    1034    0    0    0
H 933.99100904 -59.51786605 95.51545706     6    1034    0    0    0
H 932.43937747 -58.17401247 92.92992834     6    1034    0    0    0
H 907.37704897 -64.46316576 62.71985072     6     1039    0    0    0 
C 907.09730546 -63.74574386 60.80984812     1     1038    1040    1041    1042
H 905.09599648 -63.24774128 60.64296935     6     1039    0    0    0
H 908.38512155 -62.26765157 60.37997389     6     1039    0    0    0
C 907.52570681 -65.94716753 58.90195071     2     1039    1043    1044    1045
H 909.21418880 -66.97711678 59.37702774     6     1042    0    0    0
H 906.01927502 -67.33527004 59.11590745     6     1042    0    0    0
C 907.89233260 -65.02922273 56.11478763     2     1042    1046   1047   1048
H 906.11228378 -64.02841502 55.63743402     6     1045    0    0    0
H 909.37621197 -63.51808890 56.02941123     6     1045    0    0    0
C 908.09114906 -67.17370191 54.16534530     2     1045   1049   1050   1051
H 909.76222779 -68.31207948 54.81703836     6    1048    0    0    0
H 906.37333680 -68.43439185 54.07951579     6    1048    0    0    0
C 908.53326263 -66.05688141 51.42087705     2    1048   1052   1053   1054
H 907.12863523 -64.60232129 51.02777431     6    1051    0    0    0
H 910.39638306 -65.00753209 51.80108907     6    1051    0    0    0
C 908.69523345 -68.07393922 49.33896820     2    1051   1055   1056   1057
H 910.35888351 -69.32130122 49.73348654     6    1054    0    0    0
H 906.92664764 -69.33435514 49.29686844     6    1054    0    0    0
C 909.19567091 -67.04597275 46.63363305     2    1054   1058   1059   1060
H 907.68693002 -65.78179323 46.06086216     6    1057    0    0    0
H 911.02719462 -66.35181829 46.45262912     6    1057    0    0    0
C 909.18971311 -69.41320304 44.81523896     2    1057   1061   1062   1063
H 910.42624881 -70.94966377 45.46185803     6    1060    0    0    0
H 907.35863804 -70.39770199 44.72083547     6    1060    0    0    0
C 909.80614380 -68.43417089 42.19267599     2    1060   1064   1065   1066
H 908.62923640 -66.97706659 41.46262071     6    1063    0    0    0
H 911.64190309 -67.49495180 42.37391358     6    1063    0    0    0
C 910.35540779 -70.56681544 40.28822603     2    1063   1067   1068   1069
H 911.48935230 -72.06839083 41.16347861     6    1066    0    0    0
H 908.52997696 -71.35357986 39.67586859     6    1066    0    0    0
C 911.88453390 -69.63268575 37.96796292     2    1066   1070   1071   1072
H 910.84594289 -68.11315344 37.16436986     6    1069    0    0    0
[...]
 1619      H     901.2102695300   -56.0944088500    61.6753786300
 1620      H     899.3213230700   -54.2683382200    59.5597029800
 1621      C     898.0151346800   -54.1507683700    63.7168463400
 1622      H     896.5574218500   -53.0786636700    62.8588134400
 1623      H     897.1270572700   -55.2349620600    65.2100913100
 1624      C     899.9803434300   -52.3733462300    64.8346362100
 1625      H     901.7012609200   -53.3603932100    65.4306608900
 1626      H     900.6602674300   -51.1158030700    63.2929101800
 1627      C     899.0126427500   -50.6817645400    66.8358047300
 1628      H     897.1746242600   -49.8224882300    66.1242506800
 1629      H     898.4618711100   -51.7570511900    68.5609579800
 1630      C     900.7066487000   -48.3553943300    67.4722208100
 1631      H     902.5098894700   -49.1714345100    67.7926711300
 1632      H     900.7732287400   -47.2601941300    65.7726052300
 1633      C     899.7333190100   -47.0256342800    69.8418218100
 1634      H     897.7347990400   -47.0688688800    69.8440327800
 1635      H     900.0531361600   -48.3909616800    71.4468570100
 1636      C     900.9769676500   -44.4000203600    70.4080772300
 1637      H     902.9961587500   -44.5829867100    70.3056020700
 1638      H     900.6414522900   -43.2449214100    68.6428733600
 1639      C     900.0233250600   -43.2572145200    72.8466679700
 1640      H     898.0636678900   -42.8650006500    73.0504307600
 1641      H     900.9034965200   -44.6661373200    74.2127462800
 1642      C     901.6443818100   -40.8243834000    73.3116885900
 1643      H     901.3841037500   -40.4020527900    75.3283232300
 1644      H     900.9828544100   -39.3275739800    72.0083671200
 1645      H     903.6391936000   -40.8456581500    72.9840016600
 1646      H     903.2648903500   -79.1602199800    80.4923298200
 1647      C     903.3732643700   -77.1085026100    80.2343304100
 1648      H     904.3826532800   -76.7047310000    78.3845687600
 1649      H     901.5611442000   -76.3895020300    80.0697266600
 1650      C     904.8552390400   -75.7412239800    82.3773989600
 1651      H     904.7769482200   -73.6468431100    82.0789933300
 1652      H     903.8170222600   -76.1173163600    84.1835857100
 1653      C     907.5214111400   -76.6837224100    82.5521347000
 1654      H     907.5813309700   -78.6719818500    82.3893429100
 1655      H     908.5478060600   -75.8141523000    80.8920927100
 1656      C     909.1027827100   -75.9112320600    84.9355535300
 1657      H     908.0440759300   -76.2539336700    86.5690698400
 1658      H     910.7720376700   -76.9957144800    85.0614558600
 1659      C     909.5926326600   -72.9912773800    85.0143854500
 1660      H     911.1304263400   -72.5985350200    83.7318743400
 1661      H     907.8230267100   -72.0505566600    84.5453553000
 1662      C     910.4348921300   -72.0952315000    87.8355859000
 1663      H     908.9071271500   -72.4772903000    89.2121441200
 1664      H     912.1021528500   -73.3514006200    88.5052244200
 1665      C     911.2518333400   -69.4154022700    87.8300642000
 1666      H     912.6437553900   -69.1616679300    86.4486125500
 1667      H     909.5702961900   -68.4483715400    87.1311737900
 1668      C     911.9784614400   -68.2563733900    90.4657620300
 1669      H     910.7475248600   -69.0819467700    91.8233041100
 1670      H     913.9157196300   -68.8778917300    91.0905809400
 1671      C     911.7537211400   -65.4243111600    90.6418044600
 1672      H     909.8780981700   -64.9994529300    89.9595352900
 1673      H     912.2723801200   -64.6074610100    92.4246127300
 1674      C     913.7972575900   -64.1123830900    88.6493327000
 1675      H     915.7295252400   -64.9135471000    88.8070471000
 1676      H     913.0929439600   -64.7741552100    86.7781292100
 1677      C     913.9876603400   -61.1883989500    88.5573013900
 1678      H     912.2361443000   -60.4233953800    88.0126195300
 1679      H     914.3532635900   -60.5258216300    90.4123006400
 1680      C     916.1687950100   -60.1517347200    86.9621461800
 1681      H     915.7651388100   -58.3254662600    86.0770996400
 1682      H     916.3315810000   -61.3700031700    85.2746476500
 1683      H     918.0925642100   -60.1022609100    87.9408395500
 1684      H     924.4663565800   -79.8277604300    76.6258889900
 1685      C     923.2399251200   -78.3380091700    77.3349882400
 1686      H     921.5367434400   -79.0960128100    78.3609537900
 1687      H     924.2284344300   -77.6123019000    78.9026772200
 1688      C     922.4759736500   -76.3953171200    75.4320265100
 1689      H     924.0603476300   -75.6615457000    74.2939793600
 1690      H     921.2465284700   -77.4886446100    74.0539572300
 1691      C     921.0144403100   -74.3329023100    76.6420125400
 1692      H     919.5421768100   -75.3853527800    77.5892607500
 1693      H     921.9933453000   -73.5232190800    78.3701545900
 1694      C     919.8690093700   -72.5166003200    74.6670462500
 1695      H     919.1141250000   -73.4332006900    72.9605880800
 1696      H     918.3796715200   -71.4789754000    75.5724950700
 1697      C     921.9228602300   -70.7147475800    73.6946884500
 1698      H     922.5684888700   -69.3674934000    75.2312428800
 1699      H     923.5616821500   -71.8658229400    73.1770616300
 1700      C     921.1810307200   -69.0568913200    71.5399778300
 1701      H     922.4528507600   -67.5817788600    71.0846409600
 1702      H     921.3088188900   -70.1989291700    69.8555433200
 1703      C     918.5461449600   -67.9808101300    71.7795556400
 1704      H     917.1477254700   -69.3255787000    71.2100907100
 1705      H     918.1733709800   -67.3260733000    73.6688508900
 1706      C     918.1252106400   -65.8022404500    69.9125351300
 1707      H     918.8047907700   -64.0475312000    70.6675329300
 1708      H     919.1735573100   -66.1850928600    68.1411900700
 1709      C     915.3830872500   -65.2475741700    69.1223439700
 1710      H     914.7199646600   -66.9502036500    68.2651269000
 1711      H     914.2041904000   -64.9706885600    70.7070694300
 1712      C     915.1639704700   -62.8860526600    67.2992075500
 1713      H     915.6131162800   -61.2000040300    68.3547162400
 1714      H     916.9148477200   -62.8914629500    65.9894763600
 1715      C     912.6692125200   -62.7317295700    65.9513541700
 1716      H     912.8218825300   -61.3387966500    64.4809140200
 1717      H     912.3224720500   -64.4606848600    64.7955625700
 1718      C     910.4399644900   -62.1646941700    67.8110211500
 1719      H     910.2597605200   -63.6845386800    69.0463985000
 1720      H     908.7196614000   -61.8339673200    66.7295463400
 1721      H     910.9879888100   -60.3556061800    68.7725635900
 1722      H     926.6330632300   -51.3589864600    93.1084172000
 1723      C     928.4492724800   -50.9452330300    93.7472834300
 1724      H     928.9541433900   -48.9393901500    93.1520758300
 1725      H     928.5993498100   -51.2692001800    95.6653907100
 1726      C     930.1306004500   -52.8793440900    92.4741748100
 1727      H     932.0477357100   -52.5041113200    93.0810352300
 1728      H     929.6047668100   -54.6768072300    93.2609121600
 1729      C     929.7005650900   -52.9178618000    89.6595902700
 1730      H     927.8969742400   -53.7958434200    89.2800631800
 1731      H     929.5841880500   -50.9447370500    88.8628057500
 1732      C     931.5073707700   -54.7412886600    88.2058295100
 1733      H     933.3427700000   -54.1654832700    88.8563207900
 1734      H     931.0757452600   -56.7410443000    88.8849676100
 1735      C     931.5312392600   -54.6916009300    85.3210124600
 1736      H     929.6313993100   -54.8599185700    84.7189839700
 1737      H     932.3139554900   -52.8488782400    84.7409215900
 1738      C     932.9249032800   -56.9156828700    83.8546168100
 1739      H     934.8667030200   -56.9491681800    84.6793362200
 1740      H     932.1286483100   -58.9240802200    84.2706362400
 1741      C     932.9114349100   -56.6288879900    80.9804377700
 1742      H     931.0018114400   -56.3487797000    80.2386343200
 1743      H     933.8353889700   -54.7881649700    80.5174575100
 1744      C     934.3052969500   -58.8700775100    79.6465051300
 1745      H     936.2968848800   -58.8933876800    80.0732871800
 1746      H     933.4037525400   -60.5714843900    80.2216784200
 1747      C     933.8527415400   -58.8648108200    76.7640582900
 1748      H     931.8242049000   -58.7485464000    76.3165956100
 1749      H     934.6811639400   -57.2342002300    75.9729805400
 1750      C     935.1243220600   -61.0650880800    75.4491436400
 1751      H     937.1813809300   -61.0470098300    75.6058729700
 1752      H     934.5925018200   -62.8245991600    76.1729333500
 1753      C     934.1099412100   -60.9382467800    72.6427517400
 1754      H     932.0728760800   -60.4546406700    72.6093168500
 1755      H     935.0679095000   -59.5594144600    71.7664908800
 1756      C     934.3509929500   -63.3056236600    71.2277458400
 1757      H     934.3914281100   -62.8053331100    69.1597258300
 1758      H     932.7446454500   -64.4114870700    71.8589147500
 1759      H     936.0589617000   -64.1637228000    71.7814704200
 1760      H     950.6210841800   -55.6835337200    83.7627498200
 1761      C     948.6661263600   -55.6840202400    83.1335511200
 1762      H     948.6556676200   -55.8319231300    81.0139474800
 1763      H     947.7575425100   -57.3658696200    83.8795048900
 1764      C     947.1634401100   -53.2965740000    84.0144825300
 1765      H     947.8768568700   -51.7730398900    82.8812530900
 1766      H     945.1550982700   -53.5392720800    83.4537036800
 1767      C     947.4007867900   -52.3417263900    86.8158730800
 1768      H     947.2399358700   -53.8287992200    88.1810171200
 1769      H     949.1505884500   -51.4778855300    87.0831799300
 1770      C     945.4014794000   -50.3084896700    87.5290618400
 1771      H     945.3113755000   -49.0387653700    85.8376402600
 1772      H     943.5772961900   -51.1473354100    87.7763561900
 1773      C     945.9337589500   -48.9080443300    89.9445472200
 1774      H     946.6326142900   -50.2930855600    91.3057282400
 1775      H     947.3270262700   -47.4239555300    89.5606617200
 1776      C     943.5160115900   -47.5960088500    91.1707771200
 1777      H     942.1911204000   -49.1677481400    91.6443196900
 1778      H     943.6801065400   -46.8448170200    93.1012541000
 1779      C     941.8010237200   -45.9472642400    89.3438146500
 1780      H     943.2353878700   -44.7919415600    88.5318936300
 1781      H     940.9776624300   -46.8407163200    87.6329351100
 1782      C     939.7469618600   -44.4294669900    90.5916602000
 1783      H     940.4173597900   -42.7613994600    91.6755045900
 1784      H     938.7138270900   -43.5584550000    89.0285660400
 1785      C     937.7538251300   -45.9130757800    92.2095529200
 1786      H     937.2549200300   -47.4736017100    90.9309413900
 1787      H     938.7176790100   -46.9847430900    93.7484909100
 1788      C     935.5572615100   -44.2795457000    92.9633739900
 1789      H     936.1344419400   -43.2955557700    94.5931990400
 1790      H     935.0927787000   -42.9016282100    91.4385983300
 1791      C     933.1462456400   -45.8518574000    93.6217534600
 1792      H     932.6403713100   -47.1563396800    92.1397610800
 1793      H     933.7808947900   -46.7495363800    95.4008320700
 1794      C     930.9352217200   -44.1800249600    94.3752234700
 1795      H     930.1889865100   -43.1694498400    92.7863492400
 1796      H     931.4914211600   -42.9462173700    96.0043108900
 1797      H     929.3578056900   -45.3884400000    95.2233708500
 1798      H     914.7151122900   -51.9914219500    47.1204722300
 1799      C     916.4180110300   -51.3406736400    46.0993759500
 1800      H     915.6209005700   -50.3503252400    44.3148763500
 1801      H     917.2483058300   -49.9431754900    47.2765885300
 1802      C     918.0675317900   -53.6445801300    45.6213491200
 1803      H     916.8275030500   -55.1851622900    44.8780840200
 1804      H     919.4692977700   -53.2523503400    44.0789536000
 1805      C     919.7832407000   -54.4413377700    47.9294038800
 1806      H     920.8066134800   -52.7839433700    48.6184003300
 1807      H     918.4106363300   -55.0659630100    49.4387598400
 1808      C     921.4633803000   -56.5567285400    47.0298915300
 1809      H     920.2804105900   -58.0432524700    46.0318015600
 1810      H     922.8212260700   -55.7476849900    45.6678752900
 1811      C     922.8402414700   -57.8563226600    49.1403813100
 1812      H     923.8691168100   -56.4056679800    50.0603085000
 1813      H     921.3911443100   -58.5687456800    50.5334630800
 1814      C     924.4891795800   -60.1428534600    48.4648451200
 1815      H     923.1230101900   -61.3689978100    47.5758383900
 1816      H     925.7519472700   -59.7706426600    46.9211064300
 1817      C     926.2140653900   -60.8808173900    50.7341338600
 1818      H     926.8916052500   -59.0923019400    51.5245710500
 1819      H     925.0785063300   -61.8507300000    52.1758451900
 1820      C     928.3975094600   -62.6985934800    50.1597946200
 1821      H     927.5132277500   -64.3036722900    49.0853281100
 1822      H     929.7819407700   -61.7281509200    49.0303167500
 1823      C     929.7229245600   -63.3695284400    52.6991004300
 1824      H     930.0733378500   -61.5968097900    53.6756831800
 1825      H     928.4577274700   -64.5109859600    53.8106153500
 1826      C     932.1515987700   -64.8970581400    52.1255646800
 1827      H     931.8032279800   -66.7351227200    51.3080552200
 1828      H     933.3118209400   -63.9980257200    50.6914649800
 1829      C     933.6166088900   -65.2724707500    54.4178991300
 1830      H     934.1865054300   -63.4983034800    55.2373781500
 1831      H     932.3136712900   -66.0460132800    55.8093441500
 1832      C     935.9405393700   -66.9409629700    54.2724460600
 1833      H     937.2628359100   -66.1632667200    52.8388333400
 1834      H     935.3941760800   -68.7781032700    53.7267114600
 1835      H     937.0922374800   -67.1856118100    56.0397537000
 1836      H     931.0255350000   -61.3151490700    60.9533571500
 1837      C     932.6338530900   -60.5937999400    62.0594625800
 1838      H     931.9947688300   -58.6727322300    62.5850562100
 1839      H     932.7251559000   -61.8005527700    63.7217957100
 1840      C     935.0631227500   -60.2375932400    60.5350066900
 1841      H     936.7049247400   -59.5599391200    61.5088350300
 1842      H     935.5983359200   -61.9928998700    59.6297062900
 1843      C     934.6378300400   -58.3543174800    58.2788608400
 1844      H     932.8826573300   -58.7004830400    57.1223838100
 1845      H     934.2350701300   -56.4977189300    59.2385131800
 1846      C     936.8509255600   -58.0095148000    56.4684514100
 1847      H     938.1976368400   -56.5562919600    56.9287673900
 1848      H     937.7753880300   -59.7855415700    56.7465529000
 1849      C     936.2182629200   -57.5742935300    53.6104932100
 1850      H     934.7206894900   -58.7658604800    52.8585986900
 1851      H     935.5733340100   -55.6680110100    53.2787446400
 1852      C     938.2494848500   -58.1861550400    51.6008093300
 1853      H     939.4172140800   -59.8645088000    51.8853695800
 1854      H     937.3262626300   -58.1370699300    49.7951717800
 1855      C     940.2272619100   -56.1067331800    51.4466960000
 1856      H     939.3416333700   -54.3519649200    51.6556027800
 1857      H     941.5081763500   -56.1277708900    53.1090377000
 1858      C     941.8221641800   -56.1434595200    48.9874037900
 1859      H     942.5521618400   -57.9540818900    48.8740136500
 1860      H     940.5215939600   -55.7933819000    47.4615280800
 1861      C     943.9514383200   -54.1698380200    48.8967181400
 1862      H     943.0148475100   -52.3651466400    49.1053448100
 1863      H     945.1920578300   -54.6011239300    50.5693945500
 1864      C     945.6296165400   -54.5313821000    46.5328822100
 1865      H     946.5891707900   -56.3913544700    46.7083395100
 1866      H     944.3399608100   -54.7470373700    45.0529927700
 1867      C     947.3143558100   -52.2047669100    45.9922041600
 1868      H     946.5948457100   -50.4890229900    46.7596082200
 1869      H     948.7122177900   -52.4015965200    47.3874400900
 1870      C     948.0671398500   -51.9533578800    43.0725466400
 1871      H     949.0745527800   -50.1796744300    42.6807314100
 1872      H     946.3289885300   -51.8841777700    41.9155696800
 1873      H     949.1789786500   -53.6133089700    42.3514142300
 1874      H     925.3099548800   -37.2237569800    66.3123216900
 1875      C     924.8318204400   -39.1487445100    66.6363869500
 1876      H     924.3958910300   -39.7950477800    64.7385488800
 1877      H     926.5785906700   -40.1149293100    66.9021452800
 1878      C     922.8759723500   -39.5913827100    68.7425058400
 1879      H     923.6114624300   -39.1918143000    70.5469854300
 1880      H     921.3044745600   -38.3947505500    68.5036597600
 1881      C     922.1103656000   -42.4490973300    68.7681299300
 1882      H     920.7256554600   -42.7104802300    67.2480826100
 1883      H     923.6998460700   -43.6934259400    68.6599110700
 1884      C     920.9661935400   -42.9360512800    71.4074651200
 1885      H     922.4515543500   -42.6208643300    72.9244673000
 1886      H     919.5472092300   -41.4993725600    71.8684805000
 1887      C     919.8911757100   -45.6729749000    71.7185727600
 1888      H     918.5898244600   -45.5786986400    73.2091739000
 1889      H     918.7306344000   -46.1339553100    70.0822033100
 1890      C     922.0232931000   -47.6386465500    71.9555752100
 1891      H     923.4372295700   -47.2802464100    70.5125738000
 1892      H     922.8200908100   -47.2845922000    73.8493618400
 1893      C     920.7226162000   -50.1628212200    71.6469135200
 1894      H     918.9208142800   -50.2472360600    72.7943625800
 1895      H     920.0115318300   -50.3697590800    69.7981109000
 1896      C     922.5341965300   -52.4216883300    72.3875664600
 1897      H     924.2787270100   -52.2773308900    71.2807976900
 1898      H     923.0384554200   -52.3223433500    74.4023731800
 1899      C     921.3096287800   -55.0443686900    71.6920987600
 1900      H     919.3895473400   -55.2333086600    72.3067637300
 1901      H     921.1218439200   -55.2336732700    69.6281670700
 1902      C     922.8671468100   -57.0780300600    73.2005298700
 1903      H     924.8801309900   -56.7181640900    72.7790530300
 1904      H     922.6123995700   -56.6554185900    75.2216925300
 1905      C     922.2834068300   -59.7832832200    72.5000712500
 1906      H     920.3005201200   -60.3325969500    72.4243888400
 1907      H     922.4559806500   -59.6416681100    70.4960421400
 1908      C     924.0462614000   -61.8761601200    73.5749912400
 1909      H     924.0620297700   -61.7860959100    75.5891640900
 1910      H     925.8708916700   -61.6046467000    72.9843638100
 1911      H     923.5581173800   -63.7561386500    73.0527398900
 ----------------------------------------------------------------
 Nuclear Repulsion Energy =           0.00000000 hartrees
 There are       48 alpha and       48 beta electrons
 Total job time:  125.21s(wall), 247.14s(cpu) 
 Wed Jun  1 23:32:45 2022

        *************************************************************
        *                                                           *
        *  Thank you very much for using Q-Chem.  Have a nice day.  *
        *                                                           *
        *************************************************************


