                  Welcome to Q-Chem
     A Quantum Leap Into The Future Of Chemistry


 Q-Chem 5.4 (devel), Q-Chem, Inc., Pleasanton, CA (2021)

 E. Epifanovsky,  A. T. B. Gilbert,  Xintian Feng,  Joonho Lee,  Yuezhi Mao,  
 N. Mardirossian,  P. Pokhilko,  A. White,  M. Wormit,  M. P. Coons,  
 A. L. Dempwolff,  Zhengting Gan,  D. Hait,  P. R. Horn,  L. D. Jacobson,  
 I. Kaliman,  J. Kussmann,  A. W. Lange,  Ka Un Lao,  D. S. Levine,  Jie Liu,  
 S. C. McKenzie,  A. F. Morrison,  K. Nanda,  F. Plasser,  D. R. Rehn,  
 M. L. Vidal,  Zhi-Qiang You,  Ying Zhu,  B. Alam,  B. Albrecht,  
 A. Aldossary,  E. Alguire,  J. H. Andersen,  D. Barton,  K. Begam,  A. Behn,  
 Y. A. Bernard,  E. J. Berquist,  H. Burton,  A. Carreras,  K. Carter-Fenk,  
 R. Chakraborty,  A. D. Chien,  K. D. Closser,  V. Cofer-Shabica,  
 S. Dasgupta,  Jia Deng,  M. de Wergifosse,  M. Diedenhofen,  Hainam Do,  
 S. Ehlert,  Po-Tung Fang,  S. Fatehi,  Qingguo Feng,  T. Friedhoff,  
 J. Gayvert,  Qinghui Ge,  G. Gidofalvi,  M. Goldey,  J. Gomes,  
 C. Gonzalez-Espinoza,  S. Gulania,  A. Gunina,  M. W. D. Hanson-Heine,  
 P. H. P. Harbach,  A. W. Hauser,  M. F. Herbst,  M. Hernandez Vera,  
 M. Hodecker,  Z. C. Holden,  S. Houck,  Xunkun Huang,  Kerwin Hui,  
 B. C. Huynh,  M. Ivanov,  Hyunjun Ji,  Hanjie Jiang,  B. Kaduk,  S. Kaehler,  
 K. Khistyaev,  Jaehoon Kim,  P. Klunzinger,  Z. Koczor-Benda,  
 Joong Hoon Koh,  D. Kosenkov,  L. Koulias,  T. Kowalczyk,  C. M. Krauter,  
 K. Kue,  A. Kunitsa,  T. Kus,  A. Landau,  K. V. Lawler,  D. Lefrancois,  
 S. Lehtola,  Rain Li,  Yi-Pei Li,  Jiashu Liang,  M. Liebenthal,  
 Hung-Hsuan Lin,  You-Sheng Lin,  Fenglai Liu,  Kuan-Yu Liu,  
 M. Loipersberger,  A. Luenser,  A. Manjanath,  P. Manohar,  E. Mansoor,  
 S. F. Manzer,  Shan-Ping Mao,  A. V. Marenich,  T. Markovich,  S. Mason,  
 S. A. Maurer,  P. F. McLaughlin,  M. F. S. J. Menger,  J.-M. Mewes,  
 S. A. Mewes,  P. Morgante,  J. W. Mullinax,  K. J. Oosterbaan,  G. Paran,  
 Alexander C. Paul,  Suranjan K. Paul,  F. Pavosevic,  Zheng Pei,  S. Prager,  
 E. I. Proynov,  E. Ramos,  B. Rana,  A. E. Rask,  A. Rettig,  R. M. Richard,  
 F. Rob,  E. Rossomme,  T. Scheele,  M. Scheurer,  M. Schneider,  
 N. Sergueev,  S. M. Sharada,  W. Skomorowski,  D. W. Small,  C. J. Stein,  
 Yu-Chuan Su,  E. J. Sundstrom,  Zhen Tao,  J. Thirman,  T. Tsuchimochi,  
 N. M. Tubman,  S. P. Veccham,  O. Vydrov,  J. Wenzel,  J. Witte,  A. Yamada,  
 Kun Yao,  S. Yeganeh,  S. R. Yost,  A. Zech,  Igor Ying Zhang,  Xing Zhang,  
 Yu Zhang,  D. Zuev,  A. Aspuru-Guzik,  A. T. Bell,  N. A. Besley,  
 K. B. Bravaya,  B. R. Brooks,  D. Casanova,  Jeng-Da Chai,  S. Coriani,  
 C. J. Cramer,  A. E. DePrince, III,  R. A. DiStasio Jr.,  A. Dreuw,  
 B. D. Dunietz,  T. R. Furlani,  W. A. Goddard III,  S. Grimme,  
 S. Hammes-Schiffer,  T. Head-Gordon,  W. J. Hehre,  Chao-Ping Hsu,  
 T.-C. Jagau,  Yousung Jung,  A. Klamt,  Jing Kong,  D. S. Lambrecht,  
 WanZhen Liang,  N. J. Mayhall,  C. W. McCurdy,  J. B. Neaton,  
 C. Ochsenfeld,  J. A. Parkhill,  R. Peverati,  V. A. Rassolov,  Yihan Shao,  
 L. V. Slipchenko,  T. Stauch,  R. P. Steele,  J. E. Subotnik,  
 A. J. W. Thom,  A. Tkatchenko,  D. G. Truhlar,  T. Van Voorhis,  
 T. A. Wesolowski,  K. B. Whaley,  H. L. Woodcock III,  P. M. Zimmerman,  
 S. Faraji,  P. M. W. Gill,  M. Head-Gordon,  J. M. Herbert,  A. I. Krylov

 Additional authors for Version 5.4.1: 
 S. Kotaru,  Shaozhi Li,  Xiangyuan Li,  F. Matz,  A. Molle,  Haisheng Ren,  
 Yingli Su,  Hung-Yi Tsai,  C. Utku,  Fang Wang

 Contributors to earlier versions of Q-Chem not listed above: 
 R. D. Adamson,  B. Austin,  R. Baer,  J. Baker,  G. J. O. Beran,  
 K. Brandhorst,  S. T. Brown,  E. F. C. Byrd,  A. K. Chakraborty,  
 G. K. L. Chan,  Chun-Min Chang,  Yunqing Chen,  C.-L. Cheng,  
 Siu Hung Chien,  D. M. Chipman,  D. L. Crittenden,  H. Dachsel,  
 R. J. Doerksen,  A. D. Dutoi,  R. G. Edgar,  J. Fosso-Tande,  
 L. Fusti-Molnar,  D. Ghosh,  A. Ghysels,  A. Golubeva-Zadorozhnaya,  
 J. Gonthier,  M. S. Gordon,  S. R. Gwaltney,  G. Hawkins,  J. E. Herr,  
 A. Heyden,  S. Hirata,  E. G. Hohenstein,  G. Kedziora,  F. J. Keil,  
 C. Kelley,  Jihan Kim,  R. A. King,  R. Z. Khaliullin,  P. P. Korambath,  
 W. Kurlancheek,  A. Laurent,  A. M. Lee,  M. S. Lee,  S. V. Levchenko,  
 Ching Yeh Lin,  D. Liotard,  E. Livshits,  R. C. Lochan,  I. Lotan,  
 L. A. Martinez-Martinez,  P. E. Maslen,  N. Nair,  D. P. O'Neill,  
 D. Neuhauser,  E. Neuscamman,  C. M. Oana,  R. Olivares-Amaya,  R. Olson,  
 T. M. Perrine,  B. Peters,  P. A. Pieniazek,  A. Prociuk,  Y. M. Rhee,  
 J. Ritchie,  M. A. Rohrdanz,  E. Rosta,  N. J. Russ,  H. F. Schaefer III,  
 M. W. Schmidt,  N. E. Schultz,  S. Sharma,  N. Shenvi,  C. D. Sherrill,  
 A. C. Simmonett,  A. Sodt,  T. Stein,  D. Stuck,  K. S. Thanthiriwatte,  
 V. Vanovschi,  L. Vogt,  Tao Wang,  A. Warshel,  M. A. Watson,  
 C. F. Williams,  Q. Wu,  X. Xu,  Jun Yang,  W. Zhang,  Yan Zhao

 Please cite Q-Chem as follows:
 Y. Shao et al., Mol. Phys. 113, 184-215 (2015)
 DOI: 10.1080/00268976.2014.952696

 Q-Chem 5.4.1 for Intel X86 EM64T Linux

 Parts of Q-Chem use Armadillo 9.900.5 (Nocturnal Misbehaviour).
 http://arma.sourceforge.net/

 Q-Chem begins on Wed Jun 22 16:41:24 2022  

 Host: p09r14n13.grace.hpc.yale.internal
0

     Scratch files written to /home/tl686/scratch60/qchem_dev/scratch/qchem247567//
 Processing $rem in /home/tl686/qchem_dev/qchem/config/preferences:
 Processing $rem in /home/tl686/.qchemrc:
Applying user defined connections for MM calculations

 Checking the input file for inconsistencies... 	...done.

--------------------------------------------------------------
User input:
--------------------------------------------------------------
$molecule
0   1
 Fe 362.93354311 11.80412399 -39.84825496    -1  0   0   0   0
C 360.51349417 13.32613771 -41.80187058    -2  0   0   0   0 
C 366.36924734 11.55416272 -40.62894191    -2  0   0   0   0
C 363.42707023 14.91640202 -38.67059591    -2  0   0   0   0
C 362.23225595 10.51764064 -36.77527467    -2  0   0   0   0
C 362.28378500 8.85209926 -41.35863278    -2  0   0   0   0
O 359.03493658 14.15538258 -43.23631126    -3  0   0   0   0
O 368.69440381 11.44469988 -40.94482895    -3  0   0   0   0 
O 364.09177115 16.88923879 -37.82496317    -3  0   0   0   0
O 361.47719617 9.33869312 -35.06379671    -3  0   0   0   0 
O 362.01289210 7.05516689 -42.67055801    -3  0   0   0   0
H 350.72376870 37.44312939 -43.70972402      6     13    0    0    0 
C 349.51912931 36.50328893 -45.18023605     1     12    14    15    16
H 348.51551799 38.00319957 -45.91687102     6     13    0    0    0
H 350.54707615 35.50971172 -46.55371761     6     13    0    0    0
C 347.81124845 34.69904157 -43.63924993     2     13    17    18    19
H 346.42150507 35.81845395 -42.48676080     6     16    0    0    0
H 346.71354183 33.64291151 -45.07047223     6     16    0    0    0
C 348.97483082 32.88096957 -41.71923072     2     16    20   21   22
H 350.74597764 31.98061773 -42.64270625     6     19    0    0    0
H 349.80572943 34.04935864 -40.15859006     6     19    0    0    0
C 347.09719135 30.98666592 -40.44325619     2     19   23   24   25
H 345.50601181 31.96669735 -39.67504181     6    22    0    0    0
H 346.63104809 29.87281337 -42.06263818     6    22    0    0    0
C 348.48212593 29.39016353 -38.35458642     2    22   26   27   28
H 350.24971574 28.47338220 -38.99981256     6    25    0    0    0
H 348.81688684 30.42070205 -36.61007825     6    25    0    0    0
C 346.86740423 27.09898004 -37.42173100     2    25   29   30   31
H 345.08243113 27.77649832 -36.87631673     6    28    0    0    0
H 346.27072253 25.91647827 -39.12846830     6    28    0    0    0
C 348.17980880 25.63806943 -35.43078970     2    28   32   33   34
H 350.10450519 25.34056546 -35.87053155     6    31    0    0    0
H 348.04768984 26.73997883 -33.56575056     6    31    0    0    0
C 346.63635750 23.15098384 -35.19933065     2    31   35   36   37
H 344.66569852 23.70294037 -35.04857132     6    34    0    0    0
H 346.49438843 21.99981728 -36.98777481     6    34    0    0    0
C 347.44772688 21.79543825 -32.86153611     2    34   38   39   40
H 349.45186114 21.54480400 -32.79168947     6    37    0    0    0
H 346.99169781 23.13801346 -31.42865920     6    37    0    0    0
C 345.91405919 19.29802875 -32.48561113     2    37   41   42   43
H 343.95205373 19.64314983 -33.17004220     6    40    0    0    0
H 346.65215895 17.50913761 -33.36259256     6    40    0    0    0
C 345.96333714 18.30188994 -29.78088731     2    40   44   45   46
H 347.98419758 18.02598418 -29.47726035     6    43    0    0    0
H 345.16129022 19.76304895 -28.53163938     6    43    0    0    0
C 344.56540463 15.78349638 -29.46540403     1    43   47   48   49
H 342.49412081 16.18595659 -29.39548788     6    46    0    0    0
H 345.04129272 14.78835749 -27.65854980     6    46    0    0    0
H 345.06755112 14.49818805 -31.15605452     6    46    0    0    0
H 353.28866819 8.02868131 -43.67157559     6     51    0    0    0 
C 353.39166658 7.92434192 -41.66788115     1     50    52    53    54
H 351.41533445 7.73229959 -41.07316200     6     51    0    0    0
H 354.40267303 6.25938915 -41.05493328     6     51    0    0    0
C 354.71893005 10.29839036 -40.86157590     2     51    55    56    57
H 356.74561499 10.21967761 -41.28956541     6     54    0    0    0
H 353.78509241 11.81913551 -41.88440881     6     54    0    0    0
C 354.31122778 10.84998292 -37.98889137     2     54    58   59   60
H 355.15257736 9.23968053 -37.04673798     6     57    0    0    0
H 355.46514277 12.45157183 -37.49830338     6     57    0    0    0
C 351.68523632 11.36742963 -36.84404873     2     57   61   62   63
H 350.77947155 12.81357366 -37.94030965     6    60    0    0    0
H 350.52427284 9.74500148 -37.31403413     6    60    0    0    0
C 351.66175630 11.91559160 -33.89083989     2    60   64   65   66
H 353.01526537 10.60114496 -32.95369890     6    63    0    0    0
H 352.52454878 13.69737608 -33.59357718     6    63    0    0    0
C 348.93045644 11.54020021 -32.74280816     2    63   67   68   69
H 348.94001059 12.31322812 -30.80103751     6    66    0    0    0
H 347.52097747 12.50953784 -33.90104771     6    66    0    0    0
C 348.20445280 8.82130631 -32.57991110     2    66   70   71   72
H 348.18866878 8.10983751 -34.49318465     6    69    0    0    0
H 349.69815388 7.72732540 -31.66672657     6    69    0    0    0
C 345.62575824 8.14452805 -31.50995592     2    69   73   74   75
H 345.29483238 9.27627755 -29.82980786     6    72    0    0    0
H 344.30097339 9.00843533 -32.95258278     6    72    0    0    0
C 345.14239705 5.32130764 -31.52648459     2    72   76   77   78
H 345.27224562 4.72328626 -33.41493349     6    75    0    0    0
H 346.46490869 4.08900798 -30.74028368     6    75    0    0    0
C 342.58709126 4.64756395 -30.61513961     2    75   79   80   81
H 342.62519699 4.48949798 -28.46056070     6    78    0    0    0
H 341.21221837 6.13844431 -30.81671314     6    78    0    0    0
C 341.49835946 2.34120609 -31.95174131     2    78   82   83   84
H 341.52889874 2.45601450 -33.87949220     6    81    0    0    0
H 342.75619125 0.73785352 -31.46975200     6    81    0    0    0
C 338.98523624 1.71673489 -30.80546757     1    81   85   86   87
H 338.27937628 -0.11076651 -31.34215528     6    84    0    0    0
H 337.32653861 2.93190133 -31.06758396     6    84    0    0    0
H 339.04885750 1.55069529 -28.76205743     6    84    0    0    0
H 343.45055202 43.10994298 -25.19055044     6     89    0    0    0 
C 341.59068504 42.42142758 -24.68289539     1     88    90    91    92
H 341.61737856 42.35665523 -22.62952064     6     89    0    0    0
H 340.20719099 43.60169609 -25.47950263     6     89    0    0    0
C 341.32687227 39.71894756 -25.62803293     2     89    93    94    95
H 341.81457744 39.29420891 -27.60911894     6     92    0    0    0
H 342.76406676 38.72755681 -24.41343378     6     92    0    0    0
C 338.59747221 38.56441090 -24.99012868     2     92    96   97   98
H 338.09684304 38.58813203 -22.96198978     6     95    0    0    0
H 337.09383476 39.66453797 -25.88919644     6     95    0    0    0
C 338.38671860 35.79453682 -25.79005063     2     95   99   100   101
H 338.56207081 35.50535209 -27.84400792     6    98    0    0    0
H 339.96272427 34.79414144 -24.78445645     6    98    0    0    0
C 336.01039097 34.59870705 -24.78450536     2    98   102   103   104
H 335.97197904 34.57215753 -22.72730653     6    101    0    0    0
H 334.61180571 35.79934220 -25.66242068     6    101    0    0    0
C 335.76402019 31.90934908 -25.85442879     2    101   105   106   107
H 335.91571570 31.96932423 -27.92331092     6    104    0    0    0
H 337.23737148 30.60174853 -25.20646081     6    104    0    0    0
C 333.27146636 30.85125218 -24.79086835     2    104   108   109   110
H 333.55350382 30.93668044 -22.78282534     6    107    0    0    0
H 331.73769376 32.10913886 -25.32332671     6    107    0    0    0
C 332.88507486 28.13586170 -25.69473522     2    107   111   112   113
H 332.88898199 27.83387685 -27.71873123     6    110    0    0    0
H 334.42878373 27.13969704 -24.98802130     6    110    0    0    0
C 330.27568996 27.11369279 -24.65991363     2    110   114   115   116
H 330.43998564 26.89420751 -22.62762208     6    113    0    0    0
H 328.77580346 28.59055263 -24.83926661     6    113    0    0    0
C 329.22822549 24.61513259 -25.53916525     2    113   117   118   119
H 328.94980874 24.81909885 -27.58685610     6    116    0    0    0
H 330.72409832 23.09763912 -25.48414187     6    116    0    0    0
C 327.01464062 23.47952327 -24.22691555     2    116   120   121   122
H 326.45412140 21.75919251 -25.44819208     6    119    0    0    0
H 327.58955073 22.66946253 -22.43261259     6    119    0    0    0
C 324.71518742 25.11413874 -24.14628555     1    119   123   124   125
H 322.94288882 23.97304080 -24.14840263     6    122    0    0    0
H 324.73640318 26.56340965 -25.66754203     6    122    0    0    0
H 324.75908436 25.89089016 -22.31630759     6    122    0    0    0
H 358.40170654 34.83846471 -16.94049995     6     127    0    0    0 
C 359.31512336 32.90812851 -17.23230481     1     126    128    129    130
H 359.77269042 32.17538658 -15.41301200     6     127    0    0    0
H 357.73604994 31.77483933 -17.91928258     6     127    0    0    0
C 361.53180862 33.08557689 -19.17853161     2     127    131    132    133
H 360.52913859 33.48466729 -20.99742384     6     130    0    0    0
H 362.80011631 34.61592316 -18.88190048     6     130    0    0    0
C 363.30258841 30.79358998 -19.44092371     2     130    134   135   136
H 364.37194775 30.45986234 -17.60783747     6     133    0    0    0
H 362.24363414 29.15877667 -19.72080231     6     133    0    0    0
C 364.92475897 31.18499722 -21.71859058     2     133   137   138   139
H 363.65107993 31.45749139 -23.31580202     6    136    0    0    0
H 366.13752674 32.95597535 -21.39595518     6    136    0    0    0
C 366.84995568 29.07545944 -22.62080835     2    136   140   141   142
H 368.14179897 28.91618802 -21.11881334     6    139    0    0    0
H 366.06980084 27.23687755 -22.96075624     6    139    0    0    0
C 368.41783117 29.86211552 -24.91494469     2    139   143   144   145
H 367.13503473 30.11769227 -26.50214742     6    142    0    0    0
H 369.28561226 31.56301001 -24.62831243     6    142    0    0    0
C 370.30958341 27.74415368 -25.65687026     2    142   146   147   148
H 371.60239572 27.44386602 -24.02820500     6    145    0    0    0
H 369.32443310 25.88742763 -25.85050631     6    145    0    0    0
C 372.02063087 28.50401090 -28.03996162     2    145   149   150   151
H 370.98222445 29.25370139 -29.59695673     6    148    0    0    0
H 373.23986914 30.11460680 -27.31360514     6    148    0    0    0
C 373.47846646 26.29371228 -29.23839587     2    148   152   153   154
H 374.79565352 25.42839961 -27.89175466     6    151    0    0    0
H 372.29403104 24.89041090 -30.01184455     6    151    0    0    0
C 375.41008788 27.22460708 -31.33908685     2    151   155   156   157
H 374.41927936 27.58810230 -33.03467007     6    154    0    0    0
H 376.51604608 28.91338534 -30.86107136     6    154    0    0    0
C 377.28530746 25.09617757 -31.85764524     2    154   158   159   160
H 378.27919067 24.59338907 -30.20873787     6    157    0    0    0
H 376.50614714 23.32999714 -32.46898964     6    157    0    0    0
C 379.34234560 25.76631802 -34.09835586     1    157   161   162   163
H 381.03184793 24.56509391 -34.29466417     6    160    0    0    0
H 379.97927640 27.64860199 -33.95067923     6    160    0    0    0
H 378.52626372 25.55741245 -35.98305262     6    160    0    0    0
H 347.31497629 23.11848245 -4.28352555     6     165    0    0    0 
C 348.15914644 23.61064974 -6.18341781     1     164    166    167    168
H 347.70771311 22.18868628 -7.56586046     6     165    0    0    0
H 347.51236525 25.50364812 -6.78891348     6     165    0    0    0
C 351.02546531 23.60068797 -5.85113263     2     165    169    170    171
H 351.43403762 24.85808678 -4.36483546     6     168    0    0    0
H 351.54856005 21.67250582 -5.08850805     6     168    0    0    0
C 352.56442451 24.58364870 -8.10135574     2     168    172   173   174
H 352.00836562 23.47254374 -9.73922937     6     171    0    0    0
H 352.00906711 26.56287255 -8.44973784     6     171    0    0    0
C 355.42863298 24.32123295 -7.77059189     2     171   175   176   177
H 356.17771096 25.38895081 -6.13738909     6    174    0    0    0
H 356.08922239 22.41454580 -7.42331934     6    174    0    0    0
C 356.92449462 24.95796417 -10.09201377     2    174   178   179   180
H 356.53863629 23.40615647 -11.39793503     6    177    0    0    0
H 356.12509479 26.50504168 -11.20992847     6    177    0    0    0
C 359.64673834 25.51629223 -9.42345852     2    177   181   182   183
H 359.84397230 27.12636970 -8.20093368     6    180    0    0    0
H 360.64794878 23.88120793 -8.72393588     6    180    0    0    0
C 361.40493538 26.02221298 -11.62402598     2    180   184   185   186
H 361.09138191 24.56466605 -13.00825068     6    183    0    0    0
H 361.24751039 27.80949147 -12.55566338     6    183    0    0    0
C 364.31560110 26.06645872 -10.80129739     2    183   187   188   189
H 364.40856570 27.11324624 -9.04538668     6    186    0    0    0
H 365.22253673 24.20276437 -10.32661497     6    186    0    0    0
C 365.81733416 27.60759064 -12.77449163     2    186   190   191   192
H 365.43659031 26.92927889 -14.56072961     6    189    0    0    0
H 365.38484668 29.61007426 -12.73501276     6    189    0    0    0
C 368.57152371 27.54719321 -12.44729924     2    189   193   194   195
H 369.04481233 27.79987131 -10.47329143     6    192    0    0    0
H 368.93390686 25.63456592 -12.79207457     6    192    0    0    0
C 370.15085251 29.40520238 -14.08760470     2    192   196   197   198
H 369.68163865 29.15909356 -16.02308960     6    195    0    0    0
H 369.59836507 31.28208152 -13.54463083     6    195    0    0    0
C 373.09550051 29.35210069 -13.51570390     1    195   199   200   201
H 373.50930135 30.22345907 -11.66799829     6    198    0    0    0
H 374.16181417 30.21129505 -14.95940917     6    198    0    0    0
H 373.95207980 27.44305896 -13.27937282     6    198    0    0    0
H 357.27512251 15.79317133 -8.59632282     6     203    0    0    0 
C 355.49819040 15.79411546 -7.38064322     1     202    204    205    206
H 355.40075738 17.57486317 -6.23949186     6     203    0    0    0
H 353.67593030 15.78915114 -8.51001199     6     203    0    0    0
C 355.61165950 13.37999617 -5.95228470     2     203    207    208    209
H 357.45908155 13.46896620 -4.90136277     6     206    0    0    0
H 354.05469911 13.22565551 -4.77251468     6     206    0    0    0
C 355.44892890 10.97558159 -7.76749602     2     206    210   211   212
H 353.71300069 10.75668879 -8.72039384     6     209    0    0    0
H 356.99753398 11.17334998 -9.22201743     6     209    0    0    0
C 356.10551991 8.50110441 -6.37740725     2     209   213   214   215
H 358.30437096 8.55641082 -6.18859020     6    212    0    0    0
H 355.32174512 8.68051259 -4.52150837     6    212    0    0    0
C 355.28049334 6.08226089 -7.92679405     2    212   216   217   218
H 353.52040047 6.62746021 -8.94829897     6    215    0    0    0
H 356.62893366 6.00499330 -9.41758074     6    215    0    0    0
C 355.10097121 3.69240573 -6.26695229     2    215   219   220   221
H 356.98551218 3.30817765 -5.28968140     6    218    0    0    0
H 353.77330740 4.15574966 -4.81477592     6    218    0    0    0
C 354.14916337 1.30087712 -7.64118058     2    218   222   223   224
H 352.06154954 1.41998534 -8.05896484     6    221    0    0    0
H 355.12394992 1.20578002 -9.45070563     6    221    0    0    0
C 354.58906070 -1.10639710 -6.08823311     2    221   225   226   227
H 356.62078008 -1.37836735 -5.55491800     6    224    0    0    0
H 353.69752344 -0.91321498 -4.23301326     6    224    0    0    0
C 353.53039057 -3.42460948 -7.63958069     2    224   228   229   230
H 351.39005733 -3.44259571 -7.76108977     6    227    0    0    0
H 354.24993405 -3.40028658 -9.51648504     6    227    0    0    0
C 354.17491195 -5.84827410 -6.40513982     2    227   231   232   233
H 356.10413391 -5.99088478 -5.63191651     6    230    0    0    0
H 353.09031370 -6.07744025 -4.76796870     6    230    0    0    0
C 353.68761834 -8.00069776 -8.20797621     2    230   234   235   236
H 351.97672503 -7.61490809 -9.23606557     6    233    0    0    0
H 355.04261350 -7.95569137 -9.72867081     6    233    0    0    0
C 353.41417406 -10.50887625 -6.85919563     1    233   237   238   239
H 352.34534366 -11.88010521 -8.01775680     6    236    0    0    0
H 352.34192823 -10.52235183 -5.15073694     6    236    0    0    0
H 355.34418872 -11.20240384 -6.58339052     6    236    0    0    0
H 336.40800117 8.99906843 -31.55631262     6     241    0    0    0 
C 337.70984188 10.64380508 -31.02771030     1     240    242    243    244
H 339.12214791 10.56679487 -32.59499108     6     241    0    0    0
H 336.72626353 12.39578491 -31.15493169     6     241    0    0    0
C 339.03326578 10.30684224 -28.34003449     2     241    245    246    247
H 339.84062671 8.42842847 -28.16670839     6     244    0    0    0
H 340.50898131 11.71680374 -27.97973488     6     244    0    0    0
C 337.14785510 10.46376361 -26.26482775     2     244    248   249   250
H 338.03975021 10.69918129 -24.36958971     6     247    0    0    0
H 336.23370132 12.22231601 -26.59007396     6     247    0    0    0
C 335.04478852 8.43409432 -26.17279003     2     247   251   252   253
H 333.36296070 9.28561360 -25.41225622     6    250    0    0    0
H 334.28816382 8.17956703 -28.02642810     6    250    0    0    0
C 336.01013841 6.14311710 -24.57613250     2    250   254   255   256
H 337.33422226 4.94462296 -25.63629046     6    253    0    0    0
H 336.72004712 6.75189639 -22.80546077     6    253    0    0    0
C 333.87983816 4.38839357 -23.62329664     2    253   257   258   259
H 334.43471920 3.02594234 -22.08417800     6    256    0    0    0
H 332.43230507 5.63069648 -22.96487119     6    256    0    0    0
C 332.65864007 2.81916339 -25.81072209     2    256   260   261   262
H 331.65559064 4.23894814 -26.76515755     6    259    0    0    0
H 333.88479997 2.28571079 -27.31551786     6    259    0    0    0
C 330.82333497 0.62175307 -25.14497478     2    259   263   264   265
H 331.21397132 -0.63951151 -23.51901711     6    262    0    0    0
H 329.10348104 1.45987739 -24.50625839     6    262    0    0    0
C 330.12417342 -0.86181208 -27.63966072     2    262   266   267   268
H 328.50060198 -2.14261157 -27.15352195     6    265    0    0    0
H 329.36188092 0.31545030 -29.23692213     6    265    0    0    0
C 332.38213434 -2.41030239 -28.73899096     2    265   269   270   271
H 334.14583434 -1.38601792 -29.42201315     6    268    0    0    0
H 332.98137616 -3.72442532 -27.28431405     6    268    0    0    0
C 331.65502301 -4.15630650 -30.89155532     2    268   272   273   274
H 333.11922582 -5.55510796 -31.07932747     6    271    0    0    0
H 329.97937857 -5.17073816 -30.27502547     6    271    0    0    0
C 331.38191747 -2.79534477 -33.34465276     1    271   275   276   277
H 329.70078390 -1.52620179 -33.35796148     6    274    0    0    0
H 331.23378714 -4.06226317 -34.88300003     6    274    0    0    0
H 333.14527729 -1.77952895 -33.80662310     6    274    0    0    0
H 347.09246525 28.09904368 -14.90540015     6     279    0    0    0 
C 345.83343096 26.63231450 -14.29108691     1     278    280    281    282
H 345.42591730 26.91952135 -12.22293049     6     279    0    0    0
H 344.08509731 26.57187740 -15.14594849     6     279    0    0    0
C 346.91048933 23.84010433 -14.80533061     2     279    283    284    285
H 347.09800467 23.47833381 -16.78317634     6     282    0    0    0
H 348.89602776 24.00335303 -13.96957688     6     282    0    0    0
C 345.43662562 21.59070537 -13.62558545     2     282    286   287   288
H 344.80497718 21.92257767 -11.64474247     6     285    0    0    0
H 343.75882291 21.14432665 -14.68312843     6     285    0    0    0
C 347.27256453 19.15031133 -13.47575091     2     285   289   290   291
H 348.34703749 18.98596579 -15.21435593     6    288    0    0    0
H 348.74946412 19.46612111 -12.14474440     6    288    0    0    0
C 345.92333980 16.70726307 -12.61449570     2    288   292   293   294
H 344.64957867 17.26211827 -11.00583445     6    291    0    0    0
H 344.50112253 16.47532553 -13.96517258     6    291    0    0    0
C 347.60300340 14.34671529 -12.18753794     2    291   295   296   297
H 349.16249672 14.34891338 -13.59532048     6    294    0    0    0
H 348.38603534 14.85062824 -10.31578591     6    294    0    0    0
C 346.47551042 11.61013196 -12.15103942     2    294   298   299   300
H 345.06476657 11.51437077 -10.51145061     6    297    0    0    0
H 345.62038767 11.19308740 -13.99503339     6    297    0    0    0
C 348.55424783 9.66452934 -11.81417663     2    297   301   302   303
H 350.31189554 10.55200023 -12.44309511     6    300    0    0    0
H 348.78650571 9.39641578 -9.79112636     6    300    0    0    0
C 348.28699542 7.37009937 -13.58243486     2    300   304   305   306
H 346.41647491 6.56930115 -13.13648638     6    303    0    0    0
H 348.44376993 7.91683413 -15.55144349     6    303    0    0    0
C 350.29504228 5.28064161 -13.63662043     2    303   307   308   309
H 352.06651241 6.17309644 -13.89168126     6    306    0    0    0
H 350.46941747 4.40815088 -11.84415190     6    306    0    0    0
C 349.87335955 3.10289268 -15.48760711     2    306   310   311   312
H 348.00946190 2.08287204 -15.21036602     6    309    0    0    0
H 350.01486577 3.64886933 -17.44563614     6    309    0    0    0
C 351.87194516 1.04643882 -14.92000842     1    309   313   314   315
H 351.74015962 0.46327578 -12.91633664     6    312    0    0    0
H 353.72566417 1.80439765 -15.37889389     6    312    0    0    0
H 351.88998767 -0.74709808 -15.91262007     6    312    0    0    0
H 355.76194840 32.85195330 -23.46749878     6     317    0    0    0 
C 355.76247744 33.18390038 -25.39446753     1     316    318    319    320
H 354.02042864 32.61375215 -26.33638625     6     317    0    0    0
H 355.50482952 35.21600147 -25.92077196     6     317    0    0    0
C 358.13500363 32.17934105 -26.68039699     2     317    321    322    323
H 358.12251222 32.61553274 -28.71841767     6     320    0    0    0
H 359.69282974 33.15564755 -25.68776258     6     320    0    0    0
C 358.58349938 29.25168268 -26.37490328     2     320    324   325   326
H 359.04194727 28.60818041 -24.48124406     6     323    0    0    0
H 356.88128609 28.19668637 -26.83020309     6     323    0    0    0
C 360.77047582 28.54376005 -28.15497154     2     323   327   328   329
H 360.10797786 28.65218111 -30.10914839     6    326    0    0    0
H 362.39284392 29.75247504 -27.78540970     6    326    0    0    0
C 361.64656561 26.00093473 -27.72285629     2    326   330   331   332
H 362.46560227 26.01663296 -25.80962866     6    329    0    0    0
H 360.06973716 24.72120853 -27.65332055     6    329    0    0    0
C 363.80014441 25.03590459 -29.34793651     2    329   333   334   335
H 365.54750614 26.07140060 -29.26916852     6    332    0    0    0
H 364.26764858 23.32401251 -28.46115011     6    332    0    0    0
C 362.84723090 24.35650028 -31.94980534     2    332   336   337   338
H 361.47223601 22.84639937 -31.56528727     6    335    0    0    0
H 361.93661527 25.88043043 -32.89322030     6    335    0    0    0
C 365.05226573 23.65841593 -33.73794367     2    335   339   340   341
H 364.20436590 23.27951810 -35.60711692     6    338    0    0    0
H 366.34824126 25.24078052 -33.74350288     6    338    0    0    0
C 366.49849459 21.19929263 -32.90929593     2    338   342   343   344
H 367.40552426 21.75963241 -31.12582637     6    341    0    0    0
H 365.17590138 19.62378642 -32.37768595     6    341    0    0    0
C 368.26681258 20.30821647 -35.02651349     2    341   345   346   347
H 368.90639870 18.32704585 -34.75191443     6    344    0    0    0
H 367.40348905 20.52851854 -36.82500639     6    344    0    0    0
C 370.82508308 21.82024087 -35.21774112     2    344   348   349   350
H 370.51490864 23.82831045 -35.55075134     6    347    0    0    0
H 371.60242171 21.67835171 -33.36265234     6    347    0    0    0
C 372.78418037 20.76622851 -37.10794844     1    347   351   352   353
H 374.43270277 21.96703630 -37.23081412     6    350    0    0    0
H 372.11827047 21.09415165 -39.11068686     6    350    0    0    0
H 373.59620293 18.93420919 -36.59538843     6    350    0    0    0
H 341.23592120 3.39203531 -18.14772704     6     355    0    0    0 
C 341.03740711 4.93534436 -19.41688837     1     354    356    357    358
H 341.98826139 4.41060851 -21.09130400     6     355    0    0    0
H 339.03646539 5.30313310 -19.93599665     6     355    0    0    0
C 342.11867722 7.41874746 -18.26761348     2     355    359    360    361
H 341.26078167 7.97119836 -16.47014838     6     358    0    0    0
H 344.18308387 7.25068026 -17.94532917     6     358    0    0    0
C 341.85645956 9.46523331 -20.21333013     2     358    362   363   364
H 342.67530810 8.85647273 -22.11979858     6     361    0    0    0
H 339.85980182 9.87436668 -20.51733032     6     361    0    0    0
C 343.12656594 11.89724322 -19.48048465     2     361   365   366   367
H 342.54594317 12.54721342 -17.64274489     6    364    0    0    0
H 345.19301123 11.76002773 -18.94331698     6    364    0    0    0
C 343.14586745 13.91587510 -21.51798547     2    364   368   369   370
H 344.35809466 13.44912650 -23.24409454     6    367    0    0    0
H 341.16788197 13.98513320 -22.14864859     6    367    0    0    0
C 343.86763909 16.49809845 -20.38948280     2    367   371   372   373
H 342.75417251 16.93340925 -18.73001569     6    370    0    0    0
H 345.68487165 16.25352072 -19.60981053     6    370    0    0    0
C 343.86766088 18.57705199 -22.19399934     2    370   374   375   376
H 344.93474715 18.12278263 -23.92086958     6    373    0    0    0
H 341.92418608 19.12110849 -22.94582730     6    373    0    0    0
C 344.90289460 21.05657644 -20.97515574     2    373   377   378   379
H 343.89703758 21.59700750 -19.22271037     6    376    0    0    0
H 346.93259362 20.71935597 -20.45701343     6    376    0    0    0
C 344.65915156 23.36045326 -22.66175903     2    376   380   381   382
H 345.30087733 22.76097028 -24.52009138     6    379    0    0    0
H 342.65077074 23.94104145 -22.76679973     6    379    0    0    0
C 346.27679794 25.71957651 -21.74454550     2    379   383   384   385
H 346.37540887 26.30711763 -19.73245013     6    382    0    0    0
H 348.26373069 25.09254944 -21.89922661     6    382    0    0    0
C 346.05536668 28.24055597 -23.26209929     2    382   386   387   388
H 347.48728424 29.42740407 -22.42980649     6    385    0    0    0
H 346.50065725 27.88075234 -25.26688719     6    385    0    0    0
C 343.30531870 29.50905966 -23.00091405     1    385   389   390   391
H 342.79276459 29.68002749 -20.96259932     6    388    0    0    0
H 341.65546135 28.38811297 -23.72229170     6    388    0    0    0
H 343.23379494 31.45077224 -23.70871893     6    388    0    0    0
H 374.82962512 18.10765056 -55.36343084     6     393    0    0    0 
C 373.64346113 17.15242729 -56.80707989     1     392    394    395    396
H 373.88905616 18.45861236 -58.50664800     6     393    0    0    0
H 374.66054128 15.37671922 -57.35984101     6     393    0    0    0
C 370.98740025 16.81324705 -55.85329570     2     393    397    398    399
H 370.88954034 16.16908205 -53.87518291     6     396    0    0    0
H 369.77501600 18.43299715 -55.84045584     6     396    0    0    0
C 369.56453612 14.76209141 -57.16041970     2     396    400   401   402
H 369.45780550 15.07165475 -59.23288653     6     399    0    0    0
H 370.50785145 12.92694848 -56.70351306     6     399    0    0    0
C 366.69521510 14.55359026 -56.46994547     2     399   403   404   405
H 366.33669158 14.98519169 -54.47390758     6    402    0    0    0
H 365.87526316 16.21620680 -57.47212722     6    402    0    0    0
C 365.73942091 12.00969975 -57.14314012     2    402   406   407   408
H 365.80940868 12.02612538 -59.25338037     6    405    0    0    0
H 366.85727342 10.47009085 -56.40265980     6    405    0    0    0
C 362.97876567 11.50032404 -56.36063329     2    405   409   410   411
H 362.71194187 11.84598246 -54.43428882     6    408    0    0    0
H 361.96448647 12.85810863 -57.49501336     6    408    0    0    0
C 361.80270095 9.02211098 -56.98733945     2    408   412   413   414
H 362.10563492 8.68409557 -58.92807882     6    411    0    0    0
H 362.86023529 7.72974255 -55.76010312     6    411    0    0    0
C 358.96278458 8.91225887 -56.24194454     2    411   415   416   417
H 359.15886887 9.29499086 -54.21985011     6    414    0    0    0
H 357.93036209 10.43103824 -57.15608723     6    414    0    0    0
C 357.83975209 6.38319249 -56.63563991     2    414   418   419   420
H 357.90658081 5.94739319 -58.65407611     6    417    0    0    0
H 359.05238078 4.95308793 -55.77908861     6    417    0    0    0
C 355.02516318 6.05164909 -55.98823880     2    417   421   422   423
H 354.86946161 6.93882296 -54.10009354     6    420    0    0    0
H 353.81656250 7.33845518 -57.09380623     6    420    0    0    0
C 353.98286395 3.39656143 -56.17100111     2    420   424   425   426
H 351.98288352 3.55695751 -55.99231925     6    423    0    0    0
H 354.43026036 2.68327081 -58.09323581     6    423    0    0    0
C 354.79273838 1.60081453 -54.04484945     1    423   427   428   429
H 354.30613568 -0.27572041 -54.72284008     6    426    0    0    0
H 353.99512809 1.83556684 -52.22138232     6    426    0    0    0
H 356.78606866 1.60355126 -53.90444665     6    426    0    0    0
H 344.65549087 19.08130438 -54.48777037     6     431    0    0    0 
C 345.94200727 20.28374831 -55.47011687     1     430    432    433    434
H 345.27695784 20.43884466 -57.45846040     6     431    0    0    0
H 345.55101864 22.12015219 -54.61672120     6     431    0    0    0
C 348.80604874 19.80678258 -55.58387350     2     431    435    436    437
H 349.48937669 19.57968251 -53.66541724     6     434    0    0    0
H 349.04791915 17.88742690 -56.41992500     6     434    0    0    0
C 350.18816005 22.20618082 -56.82340476     2     434    438   439   440
H 349.26370425 22.50984087 -58.51684081     6     437    0    0    0
H 349.84611031 23.98063796 -55.72435886     6     437    0    0    0
C 353.02214719 21.96166319 -57.15475653     2     437   441   442   443
H 353.82030876 23.86645318 -57.61905611     6    440    0    0    0
H 353.81708066 21.42556122 -55.34453258     6    440    0    0    0
C 353.63352174 20.08262720 -59.28474508     2    440   444   445   446
H 352.95561158 18.26808972 -58.79525719     6    443    0    0    0
H 352.98736159 20.75603024 -61.21936241     6    443    0    0    0
C 356.42872079 19.51263539 -59.90502463     2    443   447   448   449
H 357.42376185 21.30293121 -59.77423883     6    446    0    0    0
H 357.39628798 18.55441575 -58.32025520     6    446    0    0    0
C 356.81816468 18.18985215 -62.52508624     2    446   450   451   452
H 356.27159598 16.21438071 -62.76934762     6    449    0    0    0
H 355.69457014 19.13795567 -63.95789250     6    449    0    0    0
C 359.62370920 18.64085984 -63.18237792     2    449   453   454   455
H 359.93519302 20.61843339 -63.60307753     6    452    0    0    0
H 360.55910353 18.16856317 -61.51218494     6    452    0    0    0
C 360.48793289 16.75734507 -65.18410934     2    452   456   457   458
H 360.29577168 14.73342655 -64.83369764     6    455    0    0    0
H 359.07801989 17.16379230 -66.67490251     6    455    0    0    0
C 363.12961889 17.21674706 -66.20742010     2    455   459   460   461
H 362.99853734 16.66144570 -68.14312795     6    458    0    0    0
H 363.37760134 19.32084296 -66.20645857     6    458    0    0    0
C 365.21225520 16.13283956 -64.56653006     2    458   462   463   464
H 365.24713452 17.12792272 -62.74041774     6    461    0    0    0
H 364.68362179 14.27510444 -64.16881607     6    461    0    0    0
C 367.85517758 16.27047286 -65.75561679     1    461   465   466   467
H 368.59510981 18.17809724 -65.87484244     6    464    0    0    0
H 367.97114950 15.02689308 -67.42841441     6    464    0    0    0
H 369.23675596 15.56631643 -64.34331663     6    464    0    0    0
H 340.83886016 30.94410057 -17.46602223     6     469    0    0    0 
C 338.83516392 30.70097519 -17.30561959     1     468    470    471    472
H 338.43464377 30.02727770 -15.31764167     6     469    0    0    0
H 337.95279388 32.47136066 -17.36285815     6     469    0    0    0
C 337.86513273 28.70946502 -19.17168346     2     469    473    474    475
H 335.84529838 28.71705938 -19.05431115     6     472    0    0    0
H 338.28896923 29.19628995 -21.10306843     6     472    0    0    0
C 338.49706048 25.96304092 -18.35255257     2     472    476   477   478
H 340.55816737 25.65415817 -18.25548153     6     475    0    0    0
H 337.81379013 25.84820738 -16.42468352     6     475    0    0    0
C 337.41347957 23.87312062 -20.14684760     2     475   479   480   481
H 335.67398961 24.72584026 -21.02033003     6    478    0    0    0
H 338.55697715 23.15634679 -21.78559035     6    478    0    0    0
C 336.56423576 21.67210213 -18.76050878     2    478   482   483   484
H 337.96798911 21.03139843 -17.40779436     6    481    0    0    0
H 335.14274024 22.22535955 -17.44269835     6    481    0    0    0
C 335.60555043 19.51168311 -20.34313094     2    481   485   486   487
H 334.05977095 20.18572279 -21.51819408     6    484    0    0    0
H 337.14084777 19.01090011 -21.56452862     6    484    0    0    0
C 334.81750643 17.27244881 -18.55144094     2    484   488   489   490
H 336.39602990 16.54626353 -17.58354854     6    487    0    0    0
H 333.45236055 17.82347836 -17.04949039     6    487    0    0    0
C 333.53463005 15.02077688 -20.18268423     2    487   491   492   493
H 331.85753949 15.55524727 -21.03993528     6    490    0    0    0
H 334.57044150 14.26825468 -21.74412394     6    490    0    0    0
C 333.11411426 12.69164867 -18.55360116     2    490   494   495   496
H 334.55619383 12.71398181 -17.27938299     6    493    0    0    0
H 331.37646008 12.88239170 -17.48562342     6    493    0    0    0
C 333.14760248 10.25257330 -19.94276589     2    493   497   498   499
H 332.21747641 10.56447113 -21.79262965     6    496    0    0    0
H 335.18363402 9.67048815 -20.32364164     6    496    0    0    0
C 331.82271885 8.07852374 -18.34043127     2    496   500   501   502
H 332.30021489 6.20690911 -19.11197460     6    499    0    0    0
H 332.43998235 8.14910523 -16.43231328     6    499    0    0    0
C 328.91802048 8.29796076 -18.49916865     1    499   503   504   505
H 328.10678313 6.68217789 -17.36891172     6    502    0    0    0
H 327.99100336 8.38019979 -20.33104021     6    502    0    0    0
H 328.41493477 10.04536784 -17.46617095     6    502    0    0    0
H 327.00857750 0.90617980 -40.78924057     6     507    0    0    0 
C 328.11528814 2.69853149 -40.99853042     1     506    508    509    510
H 326.91042199 4.37464935 -41.39586228     6     507    0    0    0
H 328.81678500 3.11370578 -39.13893516     6     507    0    0    0
C 330.40442540 2.33656946 -42.93754223     2     507    511    512    513
H 331.84465947 1.05772291 -42.36315647     6     510    0    0    0
H 329.63819867 1.72957113 -44.77006624     6     510    0    0    0
C 331.87514334 4.93753755 -43.58740936     2     510    514   515   516
H 330.80594472 6.24748013 -44.70115823     6     513    0    0    0
H 332.93497100 5.89630391 -41.97925034     6     513    0    0    0
C 334.28590633 4.41897355 -45.27332768     2     513   517   518   519
H 335.46660129 3.08212305 -44.27222478     6    516    0    0    0
H 333.82338752 3.29826204 -46.97041020     6    516    0    0    0
C 335.73192431 6.86451926 -45.66349773     2    516   520   521   522
H 334.52895200 7.93485883 -46.97854508     6    519    0    0    0
H 335.93970616 7.93311916 -43.87602117     6    519    0    0    0
C 338.33940682 6.38476883 -46.63701956     2    519   523   524   525
H 339.36452421 4.73950836 -45.75319380     6    522    0    0    0
H 337.93616897 5.62736015 -48.59367025     6    522    0    0    0
C 340.06643809 8.72340226 -46.52857327     2    522   526   527   528
H 338.98488540 10.32965383 -47.12421873     6    525    0    0    0
H 340.74630340 9.17254482 -44.68291952     6    525    0    0    0
C 342.27659135 8.36733018 -48.50660120     2    525   529   530   531
H 343.83338382 7.13744378 -47.79006994     6    528    0    0    0
H 341.50485603 7.56928940 -50.26587150     6    528    0    0    0
C 343.51299024 10.76496792 -49.54824587     2    528   532   533   534
H 342.15766138 12.15261581 -50.11524494     6    531    0    0    0
H 344.74346340 11.35517434 -48.03085627     6    531    0    0    0
C 345.01236129 10.11367892 -51.86316912     2    531   535   536   537
H 346.66753479 9.09398924 -51.31835080     6    534    0    0    0
H 344.07889147 8.77450833 -53.07475541     6    534    0    0    0
C 345.89528791 12.28293531 -53.41091651     2    534   538   539   540
H 344.19505185 13.19377495 -54.17040458     6    537    0    0    0
H 346.78387977 13.67173398 -52.07687489     6    537    0    0    0
C 347.75441879 11.67851160 -55.53291734     1    537   541   542   543
H 348.10420842 13.12741883 -56.83217703     6    540    0    0    0
H 347.21772597 10.22105698 -56.82766648     6    540    0    0    0
H 349.63884184 11.23493633 -55.00373238     6    540    0    0    0
H 362.52897817 19.47583026 -43.20631288     6     545    0    0    0 
C 364.01169715 18.58086461 -44.36957864     1     544    546    547    548
H 363.75658394 16.50889601 -44.04386774     6     545    0    0    0
H 363.79782922 18.92180287 -46.42282267     6     545    0    0    0
C 366.69591716 19.32398808 -43.66995836     2     545    549    550    551
H 366.95646032 21.42460044 -43.80793364     6     548    0    0    0
H 366.73554408 18.83891062 -41.70853357     6     548    0    0    0
C 368.75788801 18.16595791 -45.21952883     2     548    552   553   554
H 368.40361857 16.10443564 -45.56843194     6     551    0    0    0
H 368.67366551 19.12446205 -47.07432103     6     551    0    0    0
C 371.27288742 18.42270870 -43.85914522     2     551   555   556   557
H 371.48839689 20.43916030 -43.61518293     6    554    0    0    0
H 371.32128334 17.52534344 -41.92393144     6    554    0    0    0
C 373.36680762 17.34629539 -45.45915807     2    554   558   559   560
H 372.96230522 15.32427492 -45.58853273     6    557    0    0    0
H 373.44090002 18.12048172 -47.28711285     6    557    0    0    0
C 376.17007118 17.61744288 -44.51701225     2    557   561   562   563
H 377.51705798 17.38649748 -46.05413298     6    560    0    0    0
H 376.42228295 19.46939372 -43.72286396     6    560    0    0    0
C 376.83623352 15.86749630 -42.31303758     2    560   564   565   566
H 375.58561055 16.36290668 -40.85837627     6    563    0    0    0
H 376.29655606 13.92852456 -42.78525158     6    563    0    0    0
C 379.58013270 16.36667846 -41.58419979     2    563   567   568   569
H 380.86322909 15.57822705 -42.97008806     6    566    0    0    0
H 379.86977864 18.41002271 -41.67685441     6    566    0    0    0
C 380.03430576 15.60830957 -38.88358708     2    566   570   571   572
H 378.67579515 16.63936047 -37.64201293     6    569    0    0    0
H 379.39260083 13.64593978 -38.87135714     6    569    0    0    0
C 382.76335832 15.81298149 -38.19962505     2    569   573   574   575
H 383.95546658 16.05342300 -39.87596424     6    572    0    0    0
H 383.07890082 17.50704459 -36.98951885     6    572    0    0    0
C 383.51640007 13.72285804 -36.51523897     2    572   576   577   578
H 382.94846383 12.10291326 -37.49299089     6    575    0    0    0
H 385.65652778 13.71600810 -36.44558303     6    575    0    0    0
C 382.03039492 13.89074116 -33.92065552     1    575   579   580   581
H 382.96991716 15.05947329 -32.55017601     6    578    0    0    0
H 382.25242156 12.13432768 -33.02203210     6    578    0    0    0
H 380.08944566 14.47834425 -33.90197820     6    578    0    0    0
H 355.32026487 13.05281914 -17.51340477     6     583    0    0    0 
C 354.73667366 13.99343413 -15.74164905     1     582    584    585    586
H 352.65383441 14.17499491 -15.79463794     6     583    0    0    0
H 355.16413476 12.76127420 -14.18549527     6     583    0    0    0
C 355.91715606 16.67710074 -15.49535885     2     583    587    588    589
H 355.43165394 17.91872177 -16.86236130     6     586    0    0    0
H 354.97796218 17.59544012 -13.84817099     6     586    0    0    0
C 358.75426370 16.66931059 -15.00008887     2     586    590   591   592
H 359.18413259 15.67799461 -13.31434358     6     589    0    0    0
H 359.54872189 15.18702763 -16.24802999     6     589    0    0    0
C 360.07553869 19.26619040 -15.54507200     2     589   593   594   595
H 359.69493485 19.73642925 -17.45635027     6    592    0    0    0
H 359.34996920 20.86797603 -14.34685463     6    592    0    0    0
C 362.94510633 19.23027357 -15.40353795     2    592   596   597   598
H 363.33879024 18.95474572 -13.48541035     6    595    0    0    0
H 363.61122138 17.55985132 -16.28954224     6    595    0    0    0
C 364.10996864 21.58311759 -16.83370311     2    595   599   600   601
H 363.68368872 21.27884530 -18.76710090     6    598    0    0    0
H 363.25618880 23.32099319 -16.38333810     6    598    0    0    0
C 366.96822697 21.62664665 -16.33536587     2    598   602   603   604
H 367.32647897 22.10071795 -14.42107078     6    601    0    0    0
H 367.58944370 19.71492393 -16.66287958     6    601    0    0    0
C 368.55936559 23.23687463 -18.08996380     2    601   605   606   607
H 368.05643033 23.08173569 -20.13527383     6    604    0    0    0
H 368.17268697 25.32707628 -17.85713201     6    604    0    0    0
C 371.21893418 22.51600102 -17.75149878     2    604   608   609   610
H 371.77426670 22.44708836 -15.70235735     6    607    0    0    0
H 371.80875807 20.60573050 -18.37540364     6    607    0    0    0
C 372.74931512 24.38698537 -19.23317202     2    607   611   612   613
H 372.19584648 24.29174748 -21.29402136     6    610    0    0    0
H 372.35276850 26.29083434 -18.68431019     6    610    0    0    0
C 375.53003378 23.97984486 -18.89498578     2    610   614   615   616
H 376.12963442 24.04930782 -16.90476699     6    613    0    0    0
H 375.88815089 22.15206033 -19.74991424     6    613    0    0    0
C 377.20899471 25.77994660 -20.35480423     1    613   617   618   619
H 376.73623614 25.70399188 -22.39903465     6    616    0    0    0
H 379.06693341 24.96990362 -20.26307734     6    616    0    0    0
H 377.00957913 27.74639479 -19.76253464     6    616    0    0    0
H 359.90696240 0.14898582 -44.73673780     6     621    0    0    0 
C 361.90063300 -0.05643408 -44.93669256     1     620    622    623    624
H 362.22614314 -1.24062438 -46.62191003     6     621    0    0    0
H 362.75394518 1.83556171 -45.37280399     6     621    0    0    0
C 363.06322294 -1.31136945 -42.56676502     2     621    625    626    627
H 365.15203961 -1.58601786 -43.00890605     6     624    0    0    0
H 362.83601909 -0.04642452 -41.01447706     6     624    0    0    0
C 361.95962924 -4.01649140 -42.29954617     2     624    628   629   630
H 359.99175052 -3.90876481 -42.72717675     6     627    0    0    0
H 362.76565261 -5.16479748 -43.81077021     6     627    0    0    0
C 362.48581059 -5.21273595 -39.72224191     2     627   631   632   633
H 364.40756899 -4.85504221 -39.06545996     6    630    0    0    0
H 361.32799358 -4.16820880 -38.39536576     6    630    0    0    0
C 361.84096681 -8.13022062 -39.60544622     2    630   634   635   636
H 359.87281392 -8.45164796 -39.40486113     6    633    0    0    0
H 362.64138846 -9.28621523 -41.23633919     6    633    0    0    0
C 362.90872207 -9.31464102 -37.09721897     2    633   637   638   639
H 364.94226761 -8.97470369 -37.05796703     6    636    0    0    0
H 362.04889917 -8.46244572 -35.40365386     6    636    0    0    0
C 362.46043055 -12.12582383 -36.87670546     2    636   640   641   642
H 360.38849114 -12.61808119 -36.70312574     6    639    0    0    0
H 363.27196602 -13.05364978 -38.52014341     6    639    0    0    0
C 363.68126282 -13.28538654 -34.38364697     2    639   643   644   645
H 365.69421064 -13.03274008 -34.28429879     6    642    0    0    0
H 363.09072073 -12.18095145 -32.73844051     6    642    0    0    0
C 362.88570395 -16.06193361 -33.69149388     2    642   646   647   648
H 360.91105927 -16.38205819 -33.99629874     6    645    0    0    0
H 363.50958010 -17.48635785 -34.89032600     6    645    0    0    0
C 363.96405481 -16.86107433 -31.08031088     2    645   649   650   651
H 362.98034577 -15.77624962 -29.56602718     6    648    0    0    0
H 363.62592814 -18.85492507 -30.89865301     6    648    0    0    0
C 366.89458859 -16.70850646 -30.88322474     2    648   652   653   654
H 367.83447414 -17.74507949 -32.39060272     6    651    0    0    0
H 367.52420172 -14.70145977 -31.02134061     6    651    0    0    0
C 367.75052591 -17.96247140 -28.36688215     1    651   655   656   657
H 366.51364415 -17.21206772 -26.89323255     6    654    0    0    0
H 369.65349576 -17.27686754 -27.98228291     6    654    0    0    0
H 367.78836627 -19.89295403 -28.42805882     6    654    0    0    0
H 361.05403079 6.32415508 -18.15110826     6     659    0    0    0 
C 361.56158409 8.25096665 -18.64269241     1     658    660    661    662
H 360.29125188 9.55678117 -17.46615754     6     659    0    0    0
H 363.54003182 8.34282923 -18.10822172     6     659    0    0    0
C 361.29859954 9.03318726 -21.53991224     2     659    663    664    665
H 362.62938394 8.03811688 -22.88513434     6     662    0    0    0
H 359.36998380 8.55435526 -22.19805054     6     662    0    0    0
C 361.62495238 11.82642161 -22.01300493     2     662    666   667   668
H 360.58089127 12.51354635 -23.73009139     6     665    0    0    0
H 360.71275259 12.86874508 -20.43972127     6     665    0    0    0
C 364.38853279 12.81548938 -22.20295357     2     665   669   670   671
H 365.65455155 12.23032593 -20.71506965     6    668    0    0    0
H 365.44167910 12.22737596 -23.93220085     6    668    0    0    0
C 364.35772649 15.77524709 -22.11912200     2    668   672   673   674
H 363.08058911 16.65669055 -23.48626669     6    671    0    0    0
H 363.57951221 16.13586565 -20.35269050     6    671    0    0    0
C 366.97408630 17.12889122 -22.13935309     2    671   675   676   677
H 366.59494665 18.87285083 -21.53485589     6    674    0    0    0
H 368.23145129 16.26264286 -20.78188162     6    674    0    0    0
C 368.20466611 17.07742645 -24.75141085     2    674   678   679   680
H 368.05182112 15.15142789 -25.39460182     6    677    0    0    0
H 367.25176453 18.32937772 -26.02348481     6    677    0    0    0
C 370.90926000 17.69914719 -24.68446758     2    677   681   682   683
H 371.07592209 19.71560030 -23.79612729     6    680    0    0    0
H 371.93983790 16.28455926 -23.51446596     6    680    0    0    0
C 372.25438653 17.99329146 -27.27907962     2    680   684   685   686
H 372.10491402 16.05693963 -28.20941429     6    683    0    0    0
H 371.01968654 19.27001742 -28.40460794     6    683    0    0    0
C 375.02057577 19.20105951 -27.02881933     2    683   687   688   689
H 375.34022476 20.05519864 -28.90381807     6    686    0    0    0
H 374.59921769 20.76291537 -25.82521524     6    686    0    0    0
C 377.35448135 17.66979498 -26.15301068     2    686   690   691   692
H 376.98613719 16.61778118 -24.33421171     6    689    0    0    0
H 377.89892578 16.18380009 -27.55667516     6    689    0    0    0
C 379.70530544 19.12891164 -25.46207649     1    689   693   694   695
H 381.28687655 17.83917903 -25.17947290     6    692    0    0    0
H 379.56560350 20.22687560 -23.65740324     6    692    0    0    0
H 380.27054550 20.55773999 -26.85409362     6    692    0    0    0
H 387.08796691 30.90757060 -49.57976512     6     697    0    0    0 
C 387.16354299 29.15802189 -48.59105905     1     696    698    699    700
H 387.93266694 27.93280761 -49.97904676     6     697    0    0    0
H 388.76648603 29.55528512 -47.16226050     6     697    0    0    0
C 384.56915129 28.49457158 -47.39260268     2     697    701    702    703
H 384.81372976 26.69592204 -46.54810522     6     700    0    0    0
H 384.21460507 29.99046779 -46.06868719     6     700    0    0    0
C 382.60517696 28.48330995 -49.49728473     2     700    704   705   706
H 382.17185725 30.38154523 -50.18021021     6     703    0    0    0
H 383.39316190 27.56120226 -51.04810424     6     703    0    0    0
C 380.10835355 27.19100190 -48.57726881     2     703   707   708   709
H 380.59731769 25.31627767 -47.80398719     6    706    0    0    0
H 379.12758537 28.29616387 -47.07396518     6    706    0    0    0
C 378.43936165 26.77837454 -50.96799699     2    706   710   711   712
H 377.81716344 28.62898739 -51.67413402     6    709    0    0    0
H 379.58662563 25.91502469 -52.33011552     6    709    0    0    0
C 375.94880141 25.36097645 -50.42762808     2    709   713   714   715
H 376.26523024 23.53261269 -49.54511124     6    712    0    0    0
H 374.92863131 26.36536350 -48.92754191     6    712    0    0    0
C 374.39085736 24.96806671 -52.92969448     2    712   716   717   718
H 374.52393835 26.62938092 -54.13367532     6    715    0    0    0
H 375.10696809 23.45781929 -54.13263705     6    715    0    0    0
C 371.54393261 24.35824586 -52.32590549     2    715   719   720   721
H 371.41499468 22.48961603 -51.39011301     6    718    0    0    0
H 370.85607431 25.76313748 -50.96718696     6    718    0    0    0
C 369.93438333 24.18739505 -54.64258814     2    718   722   723   724
H 369.89383111 25.96631548 -55.67663424     6    721    0    0    0
H 370.60616713 22.78670621 -55.94415733     6    721    0    0    0
C 367.14447030 23.63773197 -53.76255798     2    721   725   726   727
H 367.19326251 21.94155462 -52.70792708     6    724    0    0    0
H 366.60020079 25.21159461 -52.50540504     6    724    0    0    0
C 365.20041082 23.73519808 -55.90952503     2    724   728   729   730
H 365.94716018 22.37754420 -57.28088055     6    727    0    0    0
H 363.36081056 23.00382454 -55.36425628     6    727    0    0    0
C 364.67323684 26.37848218 -57.05942986     1    727   731   732   733
H 362.77026272 26.24377806 -57.93899882     6    730    0    0    0
H 365.91577801 26.60964926 -58.61560199     6    730    0    0    0
H 364.97447782 28.10428049 -56.15173325     6    730    0    0    0
H 352.43292831 32.25879534 -31.90968930     6     735    0    0    0 
C 351.47147911 34.12172220 -32.23052873     1     734    736    737    738
H 352.62554993 35.75300180 -32.09761165     6     735    0    0    0
H 350.94807445 34.05800089 -34.28029410     6     735    0    0    0
C 349.00045680 34.31814437 -30.78582552     2     735    739    740    741
H 349.34446858 34.90677603 -28.88387306     6     738    0    0    0
H 347.83150348 35.73609606 -31.80589840     6     738    0    0    0
C 347.52352860 31.69579905 -31.05524417     2     738    742   743   744
H 347.06921942 31.29406451 -33.07395020     6     741    0    0    0
H 348.67013915 30.08460187 -30.24143795     6     741    0    0    0
C 344.84864900 31.51826014 -29.93091892     2     741   745   746   747
H 345.04665541 32.00257224 -27.82812604     6    744    0    0    0
H 344.09140146 33.16355582 -30.80755651     6    744    0    0    0
C 343.58252234 28.96393755 -30.25516318     2    744   748   749   750
H 343.61131826 28.27803030 -32.20838259     6    747    0    0    0
H 344.54720993 27.64953412 -29.06094204     6    747    0    0    0
C 340.89819366 29.17438205 -29.68526629     2    747   751   752   753
H 340.38153230 30.10674613 -27.91375146     6    750    0    0    0
H 340.09222998 30.43590542 -31.16071462     6    750    0    0    0
C 339.38247369 26.70548624 -30.01269653     2    750   754   755   756
H 337.41700181 27.05924451 -29.71459096     6    753    0    0    0
H 339.92195232 25.82586599 -31.67536908     6    753    0    0    0
C 339.93435264 24.85729723 -27.77233615     2    753   757   758   759
H 341.92781100 24.55849199 -27.47208248     6    756    0    0    0
H 339.43495401 25.92891302 -26.15277442     6    756    0    0    0
C 339.08520085 22.16150566 -27.91168651     2    756   760   761   762
H 340.06360212 21.29973930 -29.59687842     6    759    0    0    0
H 339.98498800 21.24020166 -26.39783162     6    759    0    0    0
C 336.12936892 21.77861012 -27.71120792     2    759   763   764   765
H 335.30920966 22.79403733 -26.03913265     6    762    0    0    0
H 335.16381533 22.28457238 -29.32309836     6    762    0    0    0
C 335.47278180 18.92195158 -27.34803148     2    762   766   767   768
H 336.47970643 17.79269868 -28.85901781     6    765    0    0    0
H 336.50982166 18.04236588 -25.78953927     6    765    0    0    0
C 332.80735280 18.26126648 -27.23705350     1    765   769   770   771
H 332.18130647 19.21898074 -25.51430696     6    768    0    0    0
H 332.13606697 16.38837726 -26.93509214     6    768    0    0    0
H 331.62991083 19.00646445 -28.75004149     6    768    0    0    0
H 349.01515246 -15.70664964 -41.14703719     6     773    0    0    0 
C 350.30232802 -15.99091261 -42.71415685     1     772    774    775    776
H 351.42778901 -17.76697914 -42.67545271     6     773    0    0    0
H 349.16515338 -15.87941325 -44.39279566     6     773    0    0    0
C 351.98081757 -13.68942484 -42.71848219     2     773    777    778    779
H 350.93899125 -12.11019698 -43.48874373     6     776    0    0    0
H 352.36386385 -12.95717029 -40.69250056     6     776    0    0    0
C 354.53344207 -14.03981276 -43.94248163     2     776    780   781   782
H 355.51667592 -15.38302649 -42.86113093     6     779    0    0    0
H 354.09760159 -14.83394661 -45.90712063     6     779    0    0    0
C 356.24296763 -11.69777179 -44.14457852     2     779   783   784   785
H 355.27670803 -10.17582406 -45.04097008     6    782    0    0    0
H 356.78702657 -10.80517743 -42.29723966     6    782    0    0    0
C 358.36120448 -12.19476868 -46.01025694     2    782   786   787   788
H 359.99120855 -13.45887179 -45.30511472     6    785    0    0    0
H 357.40433579 -13.28695905 -47.64350421     6    785    0    0    0
C 359.47734345 -9.74411224 -46.99775190     2    785   789   790   791
H 358.40952152 -8.72436615 -48.29484589     6    788    0    0    0
H 359.69268987 -8.48560909 -45.41825783     6    788    0    0    0
C 362.22857441 -10.39018909 -48.04779064     2    788   792   793   794
H 363.49128008 -10.75642727 -46.36389886     6    791    0    0    0
H 362.47680635 -12.10149019 -49.33017174     6    791    0    0    0
C 363.33403822 -8.23655248 -49.69775238     2    791   795   796   797
H 361.91692332 -7.94475993 -51.22744527     6    794    0    0    0
H 363.55986232 -6.45455058 -48.51430953     6    794    0    0    0
C 365.78886291 -8.99986948 -51.12081120     2    794   798   799   800
H 367.25986073 -9.53568307 -49.87520907     6    797    0    0    0
H 365.21489276 -10.53479459 -52.40038806     6    797    0    0    0
C 367.25620032 -6.83713590 -52.39800902     2    797   801   802   803
H 366.76600558 -4.94125956 -51.54888145     6    800    0    0    0
H 369.25755334 -7.01892283 -51.95225431     6    800    0    0    0
C 366.69493143 -6.87726428 -55.17630340     2    800   804   805   806
H 367.04024132 -8.72646764 -56.07603299     6    803    0    0    0
H 364.73489964 -6.15545667 -55.34393484     6    803    0    0    0
C 368.55330459 -4.86618088 -56.32612550     1    803   807   808   809
H 370.30099987 -5.83829553 -56.42793422     6    806    0    0    0
H 368.82049698 -3.35479234 -54.96484235     6    806    0    0    0
H 368.08424171 -4.19370293 -58.18558425     6    806    0    0    0
H 351.52856704 17.57180854 -22.91292383     6     811    0    0    0 
C 351.95024629 15.65023617 -22.11392494     1     810    812    813    814
H 353.94725968 15.33878848 -21.70307770     6     811    0    0    0
H 350.88759503 15.83296719 -20.48049430     6     811    0    0    0
C 350.90148451 13.49780431 -23.56856503     2     811    815    816    817
H 348.82923176 13.87125674 -23.76461033     6     814    0    0    0
H 351.89551586 13.25899960 -25.35835774     6     814    0    0    0
C 351.17965315 10.80610852 -22.30153492     2     814    818   819   820
H 353.07478688 10.14411084 -22.12032886     6     817    0    0    0
H 350.29706457 10.92047551 -20.51192470     6     817    0    0    0
C 349.61044605 8.98548173 -23.94610598     2     817   821   822   823
H 347.75357997 9.69056791 -24.53771231     6    820    0    0    0
H 350.44580601 8.83199323 -25.88658084     6    820    0    0    0
C 349.23725621 6.51238639 -22.76186121     2    820   824   825   826
H 351.03550666 5.72320544 -22.09567703     6    823    0    0    0
H 348.11664927 6.74076338 -21.01308395     6    823    0    0    0
C 347.65687500 4.58940038 -24.35109417     2    823   827   828   829
H 346.07937022 5.60048277 -25.23587369     6    826    0    0    0
H 348.82154841 3.74427578 -25.81215134     6    826    0    0    0
C 346.99739912 2.31442964 -22.87018920     2    826   830   831   832
H 348.65541974 1.35846856 -22.37522099     6    829    0    0    0
H 345.98741516 2.94402226 -21.09561568     6    829    0    0    0
C 344.85007234 0.63206496 -24.16840492     2    829   833   834   835
H 343.48511669 1.93291051 -24.92229232     6    832    0    0    0
H 345.74011301 -0.60155690 -25.70920139     6    832    0    0    0
C 343.43184233 -1.12399492 -22.30581850     2    832   836   837   838
H 344.61020490 -2.77285389 -22.00178121     6    835    0    0    0
H 343.21423432 0.01364037 -20.53402612     6    835    0    0    0
C 340.83928524 -1.94772045 -23.55165618     2    835   839   840   841
H 339.75578835 -0.25241081 -23.60975271     6    838    0    0    0
H 341.17383987 -2.79331733 -25.41650837     6    838    0    0    0
C 339.23748988 -3.81964965 -22.10060431     2    838   842   843   844
H 340.06265748 -5.67374791 -22.08836325     6    841    0    0    0
H 339.05771862 -3.27809990 -20.06048735     6    841    0    0    0
C 336.55108331 -4.02507664 -23.23664634     1    841   845   846   847
H 335.97422820 -2.18211190 -23.86984260     6    844    0    0    0
H 335.26459174 -4.73755540 -21.73733269     6    844    0    0    0
H 336.46954736 -5.45579925 -24.72969105     6    844    0    0    0
H 385.36780846 19.15370955 -16.58136337     6     849    0    0    0 
C 385.08611651 21.01885160 -15.71918057     1     848    850    851    852
H 386.83124459 22.17892788 -15.55169615     6     849    0    0    0
H 384.12715498 22.24660777 -17.21082565     6     849    0    0    0
C 383.33714397 21.09157067 -13.47824861     2     849    853    854    855
H 383.84915655 19.63712801 -12.06368171     6     852    0    0    0
H 383.48086796 22.90133389 -12.58705958     6     852    0    0    0
C 380.53139147 20.59485555 -14.10766710     2     852    856   857   858
H 379.83548264 21.67206663 -15.72184387     6     855    0    0    0
H 380.31623127 18.55997587 -14.65753400     6     855    0    0    0
C 378.51114711 20.78751700 -11.98449204     2     855   859   860   861
H 379.29579769 19.58572053 -10.34154765     6    858    0    0    0
H 378.13552740 22.76005027 -11.51263418     6    858    0    0    0
C 375.98880958 19.41881372 -12.29062344     2    858   862   863   864
H 374.95899715 20.39640156 -13.77721876     6    861    0    0    0
H 376.33279425 17.54046503 -12.97767882     6    861    0    0    0
C 374.19460218 19.31035223 -9.87654552     2    861   865   866   867
H 374.98598405 18.05038094 -8.49872680     6    864    0    0    0
H 374.15548527 21.22539139 -9.10026933     6    864    0    0    0
C 371.42235860 18.49774626 -10.27872878     2    864   868   869   870
H 370.51756921 19.54833394 -11.85444341     6    867    0    0    0
H 371.35546601 16.44049351 -10.83219657     6    867    0    0    0
C 369.69658430 18.94741787 -7.93154277     2    867   871   872   873
H 370.26807200 17.72598669 -6.30441292     6    870    0    0    0
H 369.94126888 20.87152356 -7.34765183     6    870    0    0    0
C 366.81064131 18.35919178 -8.50238671     2    870   874   875   876
H 366.29170127 19.85046662 -9.67429196     6    873    0    0    0
H 366.66537784 16.63672338 -9.54950868     6    873    0    0    0
C 365.27543257 18.29708131 -6.00092919     2    873   877   878   879
H 365.70569368 16.67379831 -4.75102766     6    876    0    0    0
H 365.90023897 19.96351259 -4.86005776     6    876    0    0    0
C 362.32757854 18.42852134 -6.45951054     2    876   880   881   882
H 361.90333862 20.08224926 -7.58290975     6    879    0    0    0
H 361.66021212 16.73406378 -7.46759901     6    879    0    0    0
C 361.17262531 18.40797752 -3.78552171     1    879   883   884   885
H 362.32539852 19.67480442 -2.42460050     6    882    0    0    0
H 361.17428559 16.47885460 -2.79121658     6    882    0    0    0
H 359.22965650 18.99512943 -3.79973293     6    882    0    0    0
H 356.25865662 1.50135359 -24.61170403     6     887    0    0    0 
C 358.18272345 2.22599063 -24.88852511     1     886    888    889    890
H 358.72231573 3.18710308 -23.13785238     6     887    0    0    0
H 359.62597866 0.77101449 -24.90028870     6     887    0    0    0
C 358.36322959 3.95061943 -27.12189510     2     887    891    892    893
H 360.19135190 4.75043976 -27.34764633     6     890    0    0    0
H 357.99510629 3.02360117 -28.90462112     6     890    0    0    0
C 356.46866498 6.27146228 -27.07512733     2     890    894   895   896
H 354.46039058 5.76800307 -27.37127513     6     893    0    0    0
H 356.79496163 7.20545221 -25.20809415     6     893    0    0    0
C 357.21232464 8.29290234 -29.02227480     2     893   897   898   899
H 359.18850552 8.26802371 -29.30923719     6    896    0    0    0
H 356.33585032 7.62201067 -30.78785171     6    896    0    0    0
C 356.36260739 10.99230066 -28.37777732     2    896   900   901   902
H 354.25557846 11.18320843 -28.60708647     6    899    0    0    0
H 356.61039190 11.03237911 -26.25076068     6    899    0    0    0
C 358.23391814 12.99447371 -29.40657725     2    899   903   904   905
H 360.09387224 12.46516773 -28.63475845     6    902    0    0    0
H 358.33545224 12.47472401 -31.34994061     6    902    0    0    0
C 357.39632659 15.80394849 -29.29142206     2    902   906   907   908
H 358.70543876 16.77694673 -30.45636646     6    905    0    0    0
H 355.52836790 16.09290666 -30.04598212     6    905    0    0    0
C 357.91263743 16.79377275 -26.69537668     2    905   909   910   911
H 356.87070930 15.69927398 -25.41660655     6    908    0    0    0
H 359.88685267 16.83488184 -25.99483683     6    908    0    0    0
C 356.93788090 19.44126653 -26.32881721     2    908   912   913   914
H 357.99474906 20.65164374 -27.41247920     6    911    0    0    0
H 354.95345240 19.49391451 -26.82012014     6    911    0    0    0
C 357.35171725 20.51078029 -23.68955079     2    911   915   916   917
H 357.02367898 19.23610784 -21.99645817     6    914    0    0    0
H 359.43616906 20.71954375 -23.48233463     6    914    0    0    0
C 356.07465198 23.05596258 -23.02537093     2    914   918   919   920
H 356.69852090 24.49766157 -24.26635850     6    917    0    0    0
H 354.13798056 22.72050285 -23.08780080     6    917    0    0    0
C 357.06093217 23.94681049 -20.40627118     1    917   921   922   923
H 356.73020137 25.82283800 -19.91489621     6    920    0    0    0
H 359.06886325 23.87962918 -20.01989353     6    920    0    0    0
H 356.24496130 22.76946510 -18.94413742     6    920    0    0    0
H 377.77215093 2.92665556 -22.62505035     6     925    0    0    0 
C 376.95254540 1.09205141 -22.29469905     1     924    926    927    928
H 374.92096014 1.41955552 -22.56293540     6     925    0    0    0
H 377.73002115 0.09444520 -23.87873385     6     925    0    0    0
C 377.64103032 0.01526341 -19.65906184     2     925    929    930    931
H 379.68355675 -0.28263551 -19.60111286     6     928    0    0    0
H 377.46350871 1.62759076 -18.21610783     6     928    0    0    0
C 376.24797897 -2.30571653 -18.86365686     2     928    932   933   934
H 376.24592102 -3.53064049 -20.50257330     6     931    0    0    0
H 377.43150558 -3.28799073 -17.42460231     6     931    0    0    0
C 373.50961755 -1.68361868 -17.94879004     2     931   935   936   937
H 373.51618617 0.02778493 -16.73834657     6    934    0    0    0
H 372.51849258 -1.32398221 -19.61789359     6    934    0    0    0
C 372.20161433 -3.85200614 -16.52993788     2    934   938   939   940
H 372.47507174 -5.39550339 -17.77883178     6    937    0    0    0
H 373.20132190 -4.59760165 -14.86108969     6    937    0    0    0
C 369.30681810 -3.79283820 -16.16353482     2    937   941   942   943
H 368.25829000 -3.41055917 -17.89816393     6    940    0    0    0
H 368.63509415 -5.62374342 -15.29884371     6    940    0    0    0
C 368.59200197 -1.58077575 -14.43046813     2    940   944   945   946
H 369.53886021 -1.52607147 -12.62476876     6    943    0    0    0
H 369.21302809 0.21040849 -15.27819182     6    943    0    0    0
C 365.86733353 -1.39358116 -13.99023569     2    943   947   948   949
H 364.91835543 -2.39975308 -15.67511339     6    946    0    0    0
H 365.30653557 -2.64158281 -12.32303657     6    946    0    0    0
C 364.80091286 1.25407084 -13.46997649     2    946   950   951   952
H 366.33590377 2.31775492 -12.28524838     6    949    0    0    0
H 364.58048404 2.49669009 -15.08383572     6    949    0    0    0
C 362.23445211 1.43147514 -12.09328424     2    949   953   954   955
H 360.58308249 1.04630325 -13.24251711     6    952    0    0    0
H 361.97472013 0.11515426 -10.68465780     6    952    0    0    0
C 361.83841122 4.00353690 -10.82070813     2    952   956   957   958
H 360.65023417 3.57258052 -9.19241535     6    955    0    0    0
H 363.67827208 4.42294087 -9.95019109     6    955    0    0    0
C 360.97354162 6.32069629 -12.33055052     1    955   959   960   961
H 361.01760705 7.90223909 -11.12808046     6    958    0    0    0
H 359.16572183 5.92641087 -13.20250101     6    958    0    0    0
H 362.31038536 6.51922881 -13.87095545     6    958    0    0    0
H 341.61581495 15.68264170 -36.85779317     6     963    0    0    0 
C 342.31755275 13.82877192 -36.55200090     1     962    964    965    966
H 343.76847615 13.77457199 -35.30642412     6     963    0    0    0
H 340.67259921 12.67347864 -35.89070606     6     963    0    0    0
C 343.43795177 12.70530322 -39.01503374     2     963    967    968    969
H 344.42998831 10.97202651 -38.82458452     6     966    0    0    0
H 341.95344007 12.34658663 -40.41148351     6     966    0    0    0
C 345.64036875 14.42923779 -40.04380746     2     966    970   971   972
H 345.17774450 16.39196914 -39.79120165     6     969    0    0    0
H 347.22352362 14.10202629 -38.82754536     6     969    0    0    0
C 346.56751283 13.92711680 -42.85440897     2     969   973   974   975
H 346.67478413 11.90480070 -43.19708744     6    972    0    0    0
H 345.17776012 14.43180571 -44.28093098     6    972    0    0    0
C 349.06485534 15.09291041 -43.35715497     2    972   976   977   978
H 349.12622207 17.13335350 -43.04678255     6    975    0    0    0
H 350.40298787 14.56726572 -41.96066873     6    975    0    0    0
C 350.08097755 14.20880399 -45.96697204     2    975   979   980   981
H 350.90569850 12.37836934 -46.25361628     6    978    0    0    0
H 348.51708724 13.68572665 -47.16600376     6    978    0    0    0
C 351.63781157 16.32914681 -47.17523756     2    978   982   983   984
H 350.79201387 18.24301835 -47.01834734     6    981    0    0    0
H 353.46877946 16.21360803 -46.13255166     6    981    0    0    0
C 351.98756523 15.58802050 -50.05889735     2    981   985   986   987
H 352.59810085 13.63494904 -49.97787830     6    984    0    0    0
H 350.14849136 15.49986026 -50.94047883     6    984    0    0    0
C 353.95708831 17.18973863 -51.56076122     2    984   988   989   990
H 354.02145314 16.76888757 -53.49231161     6    987    0    0    0
H 353.57214102 19.20793271 -51.38574442     6    987    0    0    0
C 356.59617276 16.71655065 -50.36525643     2    987   991   992   993
H 356.44240815 18.01188445 -48.74097975     6    990    0    0    0
H 356.81440215 14.66259603 -49.83646839     6    990    0    0    0
C 358.55710716 17.49415876 -52.43431462     2    990   994   995   996
H 358.72076280 15.91832854 -53.81497421     6    993    0    0    0
H 357.94307228 19.05528341 -53.62391110     6    993    0    0    0
C 361.27538717 18.05211247 -51.39215844     1    993   997   998   999
H 361.90079119 16.58024486 -50.09755885     6    996    0    0    0
H 361.40038794 19.91848128 -50.53454338     6    996    0    0    0
H 362.37511422 18.15710230 -53.16770876     6    996    0    0    0
H 333.16848632 17.44976107 -39.58671642     6     1001    0    0    0 
C 333.39911967 19.36038585 -40.26155071     1     1000    1002    1003    1004
H 332.99598922 19.49529302 -42.26377564     6     1001    0    0    0
H 331.87051097 20.32700776 -39.52929592     6     1001    0    0    0
C 335.90752851 20.65710625 -39.60519876     2     1001    1005    1006    1007
H 335.79149403 22.62355392 -40.12438489     6     1004    0    0    0
H 336.48997400 20.50741736 -37.53464390     6     1004    0    0    0
C 338.09800747 19.45692862 -41.01025242     2     1004    1008   1009   1010
H 338.37665615 17.70168665 -40.22561960     6     1007    0    0    0
H 337.60131831 19.09245516 -42.94322348     6     1007    0    0    0
C 340.36059981 21.09611119 -40.72071362     2     1007   1011   1012   1013
H 340.04387417 23.04412108 -40.82426008     6    1010    0    0    0
H 341.23190927 20.76005700 -38.92971238     6    1010    0    0    0
C 342.36887584 20.46570708 -42.84493072     2    1010   1014   1015   1016
H 343.07868406 18.45601178 -42.71281498     6    1013    0    0    0
H 341.19891763 20.63290904 -44.53824649     6    1013    0    0    0
C 344.59120773 22.19556251 -43.34953574     2    1013   1017   1018   1019
H 344.19367876 24.25264296 -42.94267649     6    1016    0    0    0
H 345.94955477 21.81531480 -41.93473967     6    1016    0    0    0
C 345.34439621 21.92095392 -46.22982902     2    1016   1020   1021   1022
H 345.43316703 19.91272581 -46.71427433     6    1019    0    0    0
H 344.05094029 22.83038830 -47.52096731     6    1019    0    0    0
C 347.75008472 23.20776640 -46.96559514     2    1019   1023   1024   1025
H 348.96728655 23.18938683 -45.37016666     6    1022    0    0    0
H 348.59935663 22.13638536 -48.54831461     6    1022    0    0    0
C 347.32555446 26.01369806 -47.95621669     2    1022   1026   1027   1028
H 346.27164004 25.83598965 -49.77358696     6    1025    0    0    0
H 346.14971815 27.16625259 -46.71556185     6    1025    0    0    0
C 349.75770113 27.39609445 -48.24087364     2    1025   1029   1030   1031
H 350.75505024 27.02170499 -46.38195698     6    1028    0    0    0
H 350.83205801 26.42557847 -49.61644102     6    1028    0    0    0
C 349.34015233 30.05769133 -48.85960924     2    1028   1032   1033   1034
H 347.45692061 30.27525573 -49.75531488     6    1031    0    0    0
H 349.41106255 31.22653203 -47.12631801     6    1031    0    0    0
C 351.44767582 31.20928716 -50.63033910     1    1031   1035   1036   1037
H 351.50403726 33.25155775 -50.62906444     6    1034    0    0    0
H 351.44947066 30.50185420 -52.55693155     6    1034    0    0    0
H 353.21014530 30.74267783 -49.77644132     6    1034    0    0    0
H 356.11486989 -2.63418449 -38.58505838     6     1039    0    0    0 
C 354.89539113 -4.09072786 -37.92244513     1     1038    1040    1041    1042
H 353.09194109 -3.00971924 -37.58343095     6     1039    0    0    0
H 354.61472398 -5.43561604 -39.46867677     6     1039    0    0    0
C 355.72954882 -5.46385582 -35.45642818     2     1039    1043    1044    1045
H 357.60522475 -6.24782716 -35.54679988     6     1042    0    0    0
H 355.81238086 -4.13578538 -33.85579578     6     1042    0    0    0
C 353.80885560 -7.38755747 -34.53026418     2     1042    1046   1047   1048
H 352.32421363 -6.21888325 -33.84768018     6     1045    0    0    0
H 352.93644955 -8.55417720 -36.15412098     6     1045    0    0    0
C 354.69677059 -8.99201217 -32.32389703     2     1045   1049   1050   1051
H 356.16394368 -10.26030995 -33.06162661     6    1048    0    0    0
H 355.53056923 -7.80397583 -30.89406786     6    1048    0    0    0
C 352.67170014 -10.45671277 -31.12844562     2    1048   1052   1053   1054
H 351.53420476 -8.95254896 -30.65293462     6    1051    0    0    0
H 351.62832108 -11.51713902 -32.75361920     6    1051    0    0    0
C 353.63224400 -11.92482417 -28.80970760     2    1051   1055   1056   1057
H 355.23290074 -13.11364557 -29.36719915     6    1054    0    0    0
H 354.27172538 -10.73334395 -27.37306103     6    1054    0    0    0
C 351.74309417 -13.79638634 -27.90882288     2    1054   1058   1059   1060
H 349.96525704 -12.76652767 -27.42191004     6    1057    0    0    0
H 351.53317641 -15.13107828 -29.38945855     6    1057    0    0    0
C 352.60950826 -15.17982043 -25.59917424     2    1057   1061   1062   1063
H 354.16040526 -16.36764196 -26.20125909     6    1060    0    0    0
H 353.55459347 -13.94541808 -24.21508683     6    1060    0    0    0
C 350.56199166 -16.63631210 -24.11008856     2    1060   1064   1065   1066
H 349.25804532 -15.15874982 -23.60191086     6    1063    0    0    0
H 349.65935103 -17.94373021 -25.31980080     6    1063    0    0    0
C 351.35170511 -17.98764718 -21.65290752     2    1063   1067   1068   1069
H 352.66405066 -19.62212794 -21.92095337     6    1066    0    0    0
H 352.44333239 -16.65780260 -20.51525732     6    1066    0    0    0
C 349.03045397 -19.03245761 -20.29547539     2    1066   1070   1071   1072
H 348.01339037 -17.23521294 -20.03743154     6    1069    0    0    0
H 347.75203276 -20.30530421 -21.46924333     6    1069    0    0    0
C 349.49848080 -20.14800243 -17.64670636     1    1069   1073   1074   1075
H 347.83590031 -21.08976993 -16.94291013     6    1072    0    0    0
[...]
 1763      H     366.1755490400    29.6232073500   -34.4235156600
 1764      C     363.9888342800    32.4867189300   -35.9122370700
 1765      H     362.8277996400    31.1021556800   -37.0039790100
 1766      H     362.7578530000    34.0111652200   -35.1350087500
 1767      C     366.0106020300    33.7294989900   -37.5752413600
 1768      H     366.6636382700    35.5018248600   -36.5185261800
 1769      H     367.5232040900    32.5181249200   -37.6901647800
 1770      C     364.9105918400    34.2940877500   -40.2414983000
 1771      H     364.6095940800    32.4953494200   -41.3313293000
 1772      H     363.1431308500    35.3670727800   -39.9962294900
 1773      C     366.8649631100    35.7951800900   -41.8787376300
 1774      H     367.3092197900    37.6677878000   -41.0324469300
 1775      H     368.7084231800    34.9371104800   -41.9735525100
 1776      C     366.0371134300    36.2578326800   -44.7100298500
 1777      H     365.9920465100    34.3873352500   -45.4735243900
 1778      H     364.0765344600    36.8573203400   -44.9803893700
 1779      C     368.1569369900    37.6180971800   -46.0586698400
 1780      H     368.2864592400    39.6464744400   -45.5794128600
 1781      H     370.0429449600    36.8663990700   -45.6288181100
 1782      C     367.9820265600    37.1415841000   -48.9799886300
 1783      H     366.0369011600    37.2758579900   -49.5956021400
 1784      H     368.9712211400    38.6102113000   -50.1002058400
 1785      C     368.9390379000    34.5287961100   -49.8776082500
 1786      H     370.6554883200    34.0680450600   -48.9136895600
 1787      H     367.5740691000    33.2273254500   -49.2030615100
 1788      C     369.1946818900    34.2474050400   -52.6615711000
 1789      H     367.2433665600    34.3507058800   -53.5657308000
 1790      H     370.1974716800    35.8741640700   -53.4242029300
 1791      C     370.6010818200    31.8607545200   -53.6834301000
 1792      H     372.5887742700    31.9010629900   -53.2338715200
 1793      H     369.9414377500    30.1408514700   -52.8585017800
 1794      C     370.5375730700    31.5494293800   -56.6133366500
 1795      H     370.9675964300    33.3008490400   -57.5730723600
 1796      H     368.6050204800    30.8955859700   -57.0770260600
 1797      H     371.8527062900    30.0324928600   -57.2781718400
 1798      H     384.6278101600    -5.4265035200   -37.7183250000
 1799      C     382.7186383600    -5.5294290200   -37.2723812100
 1800      H     381.8158377500    -4.5750571000   -38.8282593700
 1801      H     382.5355080900    -7.6471170800   -37.2595296000
 1802      C     382.0114315000    -4.5239426200   -34.7414562700
 1803      H     383.1672683900    -5.5119538500   -33.3404654500
 1804      H     382.6683676600    -2.5328764100   -34.7093038400
 1805      C     379.1917026000    -4.8945012600   -34.1223752200
 1806      H     377.9674879000    -4.1798173700   -35.8118663800
 1807      H     378.6652288300    -6.8826879400   -33.8879018200
 1808      C     378.3667826900    -3.6792080600   -31.6629377600
 1809      H     379.4594555600    -4.3934251100   -30.2676736700
 1810      H     378.6443334900    -1.6196749300   -31.7381244500
 1811      C     375.5327685400    -4.2462865100   -30.8270062800
 1812      H     374.4997732900    -3.5017526300   -32.3624289600
 1813      H     375.1736114900    -6.1991531900   -31.0029028500
 1814      C     374.6862031100    -3.2032035600   -28.2660615200
 1815      H     375.5176329900    -4.3519408000   -26.8662341300
 1816      H     375.4495881000    -1.3333866500   -28.0300351800
 1817      C     371.8256971400    -3.1759896400   -27.9251046900
 1818      H     370.7764723100    -2.3994146100   -29.5618386200
 1819      H     371.4020305400    -5.1458075500   -28.0156478200
 1820      C     371.0275694000    -2.2646561500   -25.2504778700
 1821      H     371.8300770800    -3.5504718000   -23.9248279000
 1822      H     371.7004211900    -0.4039949600   -24.9404535900
 1823      C     368.0910042000    -2.4914495900   -25.1407287500
 1824      H     367.1970777500    -1.7143067800   -26.9138733700
 1825      H     367.2987290100    -4.4862046600   -25.1798095900
 1826      C     366.9984003400    -0.7574035900   -23.0387979100
 1827      H     367.9631428500    -1.1140218600   -21.2577270200
 1828      H     367.2633906900     1.1490991200   -23.3862720600
 1829      C     364.1914907600    -1.1795741100   -22.7909901500
 1830      H     363.2668881800    -0.8149443100   -24.5129856900
 1831      H     363.5594525400    -3.0920851700   -22.5276853300
 1832      C     362.9759838000     0.4092720100   -20.7495715500
 1833      H     362.9856466900     2.5373825100   -21.3512714900
 1834      H     363.9623149500     0.2711707100   -18.8712929900
 1835      H     361.1461842800    -0.3445101000   -20.2496657300
 1836      H     363.6097199000     4.6244303500   -29.1861883800
 1837      C     364.8139604600     5.8161128200   -30.2631011400
 1838      H     365.4499272900     4.6295927100   -31.7011664800
 1839      H     363.5214867300     7.2683040900   -30.9169659300
 1840      C     366.6953194200     7.4575000600   -28.7318779700
 1841      H     367.5128601300     9.0234101000   -29.7393040000
 1842      H     365.5705069700     8.3859019300   -27.1914646500
 1843      C     368.6840130000     5.7273095100   -27.2334059100
 1844      H     367.6240892400     4.3292203600   -26.1437737900
 1845      H     370.1339441500     4.5602554800   -28.3146129400
 1846      C     370.1262692400     7.3747200800   -25.2437973000
 1847      H     371.3125583100     8.7812845700   -26.2388134200
 1848      H     368.6518946700     8.4663949100   -24.3368915100
 1849      C     371.5618473200     5.7510531800   -23.2820933700
 1850      H     370.3320860100     4.1680006300   -22.5760603100
 1851      H     373.2662656300     4.8441208900   -24.2109240800
 1852      C     372.4750435100     7.2416566700   -20.9694463300
 1853      H     370.7382829500     7.9882651900   -20.0719090900
 1854      H     373.3905921800     6.0704947500   -19.5915952900
 1855      C     374.5130992000     9.3293522900   -21.3961221600
 1856      H     376.2633241200     8.4259288800   -21.7401773700
 1857      H     374.1835889100    10.4309528400   -23.0321958200
 1858      C     374.6994880200    11.2931570000   -19.2835544300
 1859      H     376.3879090800    12.5602588100   -19.8137387100
 1860      H     372.9095762300    12.3795250200   -19.4683295600
 1861      C     375.3106458200    10.1148382500   -16.6488564200
 1862      H     373.8156367300     8.9569320600   -15.8418236200
 1863      H     377.0172171500     8.9174283700   -17.0106745400
 1864      C     375.7284822600    12.2415813000   -14.6615969800
 1865      H     377.2204906600    13.5052201800   -15.3269521800
 1866      H     373.8856296200    13.1836995000   -14.0850107200
 1867      C     376.5191711100    11.0475501300   -12.1757705300
 1868      H     375.2339212300     9.6135565100   -11.5912850000
 1869      H     378.0565495100     9.8731102000   -12.7781679400
 1870      C     377.0714377400    12.9156374800   -10.0352090000
 1871      H     377.6363972500    11.7643640900    -8.4142128000
 1872      H     375.3013637000    13.9431290400    -9.4680986900
 1873      H     378.7621529200    14.1344916400   -10.3392964000
 1874      H     378.8290749800    14.8639083000   -51.3900770300
 1875      C     377.5848032400    13.2472685400   -51.7012727200
 1876      H     377.1553841800    13.0040098500   -53.8328231500
 1877      H     378.4798323200    11.5160943300   -51.1240922700
 1878      C     375.1205294900    13.6321577400   -50.1737273900
 1879      H     375.6354189000    13.7136325300   -48.1502376900
 1880      H     374.5117223800    15.6035014200   -50.6207192400
 1881      C     373.1323240600    11.6327796700   -50.9230550300
 1882      H     372.5095856600    11.7251732300   -52.9418077400
 1883      H     374.0551109200     9.7879494100   -50.5115124400
 1884      C     370.5993816800    12.2732283000   -49.5045444500
 1885      H     370.9034716000    12.1050095300   -47.4909209200
 1886      H     369.9594265000    14.2692143200   -49.2141327900
 1887      C     368.4352853700    10.6166654000   -50.4426864200
 1888      H     368.2120308600    10.8364285600   -52.4117542300
 1889      H     368.9893593100     8.7592854100   -50.1615937000
 1890      C     365.9250655500    11.3223129300   -49.1825148400
 1891      H     366.2228459600    11.3507808600   -47.1326520400
 1892      H     365.2426617600    13.1047038500   -49.9004774400
 1893      C     364.0966882100     9.2040046300   -49.5614191700
 1894      H     364.0976771000     8.4203724400   -51.3692197000
 1895      H     364.6854471200     7.6196833100   -48.3619224300
 1896      C     361.3713575700     9.8873142300   -48.9558673300
 1897      H     361.5645575800    10.6507566700   -47.0786463200
 1898      H     360.6521646600    11.2735989100   -50.2671330000
 1899      C     359.6620139500     7.6478322800   -48.5790576900
 1900      H     359.5110647200     6.7109291700   -50.4298854000
 1901      H     360.3518395600     6.1065654800   -47.3897974000
 1902      C     356.9590086600     8.3002943700   -47.9091376900
 1903      H     356.9039144300     9.2773767800   -46.1234343600
 1904      H     356.1711131600     9.6384471100   -49.2202144100
 1905      C     355.1169833100     6.0725544200   -48.0132465400
 1906      H     355.6964184000     4.4932732100   -49.2132086500
 1907      H     354.7194981000     5.1525297200   -46.2327113300
 1908      C     352.4999951000     6.9210983300   -48.9397139500
 1909      H     352.5564863000     7.8306856200   -50.7333435300
 1910      H     351.7272819400     8.3111128200   -47.7197442500
 1911      H     351.1528712600     5.4013262600   -48.9507035500
 ----------------------------------------------------------------
 Nuclear Repulsion Energy =           0.00000000 hartrees
 There are     2498 alpha and     2498 beta electrons

 Total QAlloc Memory Limit   2000 MB
 Mega-Array Size       204 MB
 MEM_STATIC part       192 MB
   **** Step 1: MM calculation on the entire system **** 
 OPLSAA force field loaded.
Reading user-defined FF parameters...
 Reading user defined atom types.
 Found 3 user defined AtomTypes
finished.
Determining angles, torsions, etc. from user defined input
Determining VDW/Coulomb pairs... (useList = 0)

 Time req'd to get MM system information: 0.2 s (CPU) 0.3 s (wall)

 ------ MM Energies ------
   Ebond:           566.305501865067
   Eangle:          880.692506024867
   EUreyBrad:         0.000000000000
   Eimptors:          0.000000000000
   Etorsion:        220.795548314934
   Evdw:         868113.251245032530
   Ecoulomb:        184.231518930456
   Etot:         869965.276320167817 Kcal/mol (   1386.377921808559 hartree)
 -------------------------
 Time req'd to calc MM energy: 0.1 s (CPU) 0.1 s (wall)
 OPLSAA force field loaded.
Reading user-defined FF parameters...
 Reading user defined atom types.
 Found 3 user defined AtomTypes
finished.
 Time req'd to get MM system information: 0.0 s (CPU) 0.0 s (wall)
 Time req'd to calc MM gradient: 0.2 s (CPU) 0.2 s (wall)
   **** Step 2: MM calculation on the model system **** 
 Reading user defined atom types.
 Found 3 user defined AtomTypes
 ----------------------------------------------------------------
             Standard Nuclear Orientation (Bohr)
    I     Atom           X                Y                Z
 ----------------------------------------------------------------
    1      Fe    362.9335431100    11.8041239900   -39.8482549600
    2      C     360.5134941700    13.3261377100   -41.8018705800
    3      C     366.3692473400    11.5541627200   -40.6289419100
    4      C     363.4270702300    14.9164020200   -38.6705959100
    5      C     362.2322559500    10.5176406400   -36.7752746700
    6      C     362.2837850000     8.8520992600   -41.3586327800
    7      O     359.0349365800    14.1553825800   -43.2363112600
    8      O     368.6944038100    11.4446998800   -40.9448289500
    9      O     364.0917711500    16.8892387900   -37.8249631700
   10      O     361.4771961700     9.3386931200   -35.0637967100
   11      O     362.0128921000     7.0551668900   -42.6705580100
 ----------------------------------------------------------------
 Nuclear Repulsion Energy =         793.00242399 hartrees
 There are       48 alpha and       48 beta electrons
 OPLSAA force field loaded.
Reading user-defined FF parameters...
 Reading user defined atom types.
 Found 3 user defined AtomTypes
finished.
Determining VDW/Coulomb pairs... (useList = 0)

 No MM bonds in system. Return all possible pairs.
 Time req'd to get MM system information: 0.0 s (CPU) 0.0 s (wall)

 ------ MM Energies ------
   Ebond:             0.000000000000
   Eangle:            0.000000000000
   EUreyBrad:         0.000000000000
   Eimptors:          0.000000000000
   Etorsion:          0.000000000000
   Evdw:         868563.186056142440
   Ecoulomb:         -6.301506899688
   Etot:         868556.884549242794 Kcal/mol (   1384.133506646695 hartree)
 -------------------------
 Eold: 1386.3779218 mm_energy: 1384.1335066 Enew:    2.2444152
 Time req'd to calc MM energy: 0.0 s (CPU) 0.0 s (wall)
 OPLSAA force field loaded.
Reading user-defined FF parameters...
 Reading user defined atom types.
 Found 3 user defined AtomTypes
finished.
Determining VDW/Coulomb pairs... (useList = 0)

 No MM bonds in system. Return all possible pairs.
 Time req'd to get MM system information: 0.0 s (CPU) 0.0 s (wall)
 Number of fixed atoms: 0
 Time req'd to calc MM gradient: 0.0 s (CPU) 0.0 s (wall)
   **** Step 3: QM calculation on the model system **** 
 Requested basis set is def2-mSVP
 There are 80 shells and 174 basis functions

                       Distance Matrix (Bohrs)
             Fe(  1)   C (  2)   C (  3)   C (  4)   C (  5)   C (  6)
   C (  2)  3.462626
   C (  3)  3.532140  6.229406
   C (  4)  3.364034  4.563195  4.878133
   C (  5)  3.404416  6.009032  5.748028  4.936489
   C (  6)  3.379035  4.831916  4.952232  6.731152  4.876869
   O (  7)  5.675075  2.220675  8.207121  6.380889  8.074714  6.496577
   O (  8)  5.875302  8.438105  2.349068  6.705942  7.746223  6.927398
   O (  9)  5.594068  6.427717  6.442999  2.247000  6.719889  8.963886
   O ( 10)  5.575871  7.888604  7.733777  6.922561  2.211151  6.364929
   O ( 11)  5.600499  6.505989  6.586880  8.933007  6.840410  2.241316
             O (  7)   O (  8)   O (  9)   O ( 10)
   O (  8) 10.290967
   O (  9)  7.894823  7.782082
   O ( 10)  9.795669  9.545150  8.454039
   O ( 11)  7.720192  8.178554 11.158427  7.960168

 A cutoff of  1.0D-11 yielded   2477 shell pairs
 There are     12735 function pairs (     14572 Cartesian)
 Smallest overlap matrix eigenvalue = 2.64E-03
 Guess MOs from SCF MO coefficient file
 Reading MOs from coefficient file
 Reading MOs from coefficient file
 A restricted Kohn-Sham SCF calculation will be
 performed using Pulay DIIS extrapolation
 Exchange:  B88      Correlation:  P86
 Using SG-1 standard quadrature grid
 SCF converges when DIIS error is below 1.0E-08
 Using Q-Chem read-in guess as SCF_GUESS READ specified.

 using 2 threads for integral computing
 -------------------------------------------------------
 OpenMP Integral computing Module                
 Release: version 1.0, May 2013, Q-Chem Inc. Pittsburgh 
 -------------------------------------------------------
 ---------------------------------------
  Cycle       Energy         DIIS Error
 ---------------------------------------
    1   -1830.5080252678      2.65E-09
    2   -1830.5080252676      1.94E-08
    3   -1830.5080252679      7.77E-09 Convergence criterion met
 ---------------------------------------
 SCF time:  CPU 4.02 s  wall 2.14 s
 E(QM + QM/MM):    -1830.5080252679 E(MM):    2.2444152 E(Tot): -1828.263610106007 
 SCF   energy in the final basis set = -1828.26361011
 Total energy in the final basis set = -1828.26361011

 --------------------------------------------------------------

                    Orbital Energies (a.u.)
 --------------------------------------------------------------

 Alpha MOs
 -- Occupied --
******** -29.6420 -25.6019 -25.5894 -25.5849 -18.8887 -18.8854 -18.8848
-18.8798 -18.8767 -10.0632 -10.0572 -10.0572 -10.0550 -10.0472  -3.3264
 -2.1633  -2.1378  -2.1280  -1.0507  -1.0487  -1.0476  -1.0457  -1.0060
 -0.5806  -0.5301  -0.5246  -0.5211  -0.5173  -0.4574  -0.4428  -0.4347
 -0.4328  -0.4293  -0.4257  -0.4228  -0.4182  -0.4164  -0.4063  -0.3989
 -0.3942  -0.3913  -0.3876  -0.3764  -0.2834  -0.2779  -0.2383  -0.2284
 -- Virtual --
 -0.1102  -0.1019  -0.0972  -0.0884  -0.0876  -0.0805  -0.0784  -0.0649
 -0.0632  -0.0504  -0.0341   0.0116   0.1855   0.2037   0.2134   0.2513
  0.2869   0.3197   0.3336   0.3996   0.4083   0.4154   0.4259   0.4283
  0.4351   0.4755   0.4805   0.4995   0.5203   0.5350   0.5607   0.5649
  0.5917   0.6034   0.6152   0.6276   0.7434   0.7534   0.7650   0.7703
  0.7886   0.8217   0.8296   0.8540   0.8747   0.8910   0.9415   0.9515
  0.9621   0.9752   0.9833   0.9946   1.0053   1.0099   1.0297   1.0512
  1.2081   1.2205   1.2604   1.2932   1.3951   1.4057   1.4077   1.4146
  1.4167   1.4211   1.4330   1.4390   1.4473   1.4566   1.4720   1.4808
  1.4991   1.5126   1.5359   1.5598   1.6006   1.6156   1.6357   1.6529
  1.7020   1.8040   1.8165   1.8250   1.8331   1.8367   1.8379   1.8439
  1.8514   1.8551   1.8579   1.8706   1.8822   1.8986   1.9048   1.9403
  2.3290   2.3426   2.3879   2.4031   2.4158   2.4367   2.4460   2.4595
  2.4815   2.4839   2.5953   2.6146   2.6212   2.6434   2.6467   2.7901
  2.8012   2.8612   2.8695   2.9376  13.2375  13.2842  13.2962  13.3368
 13.4457  24.8982  24.9126  24.9330  24.9439  24.9922
 --------------------------------------------------------------

          Ground-State Mulliken Net Atomic Charges

     Atom                 Charge (a.u.)
  ----------------------------------------
      1 Fe                   -0.460964
      2 C                     0.213558
      3 C                     0.259062
      4 C                     0.201489
      5 C                     0.237843
      6 C                     0.211067
      7 O                    -0.116451
      8 O                    -0.172574
      9 O                    -0.127643
     10 O                    -0.117257
     11 O                    -0.128132
  ----------------------------------------
  Sum of atomic charges =     0.000000

 -----------------------------------------------------------------
                    Cartesian Multipole Moments
 -----------------------------------------------------------------
    Charge (ESU x 10^10)
                -0.0000
    Dipole Moment (Debye)
         X      -0.5313205393      Y       0.2330862856      Z       0.2303981779
       Tot       0.6242708165
    Quadrupole Moments (Debye-Ang)
        XX    -275.4334     XY      40.9667     YY     -66.6946
        XZ      55.4949     YZ      -3.4828     ZZ     -79.6155
    Octopole Moments (Debye-Ang^2)
       XXX  -99921.1374    XXY    6691.3686    XYY  -12837.6456
       YYY   -1278.2803    XXZ   14328.8089    XYZ    -592.1782
       YYZ    1416.4499    XZZ  -15526.1156    YZZ    -389.7640
       ZZZ    4731.1485
    Hexadecapole Moments (Debye-Ang^3)
      XXXX ************   XXXY  973199.1735   XXYY ************
      XYYY -245742.9897   YYYY  -16907.1787   XXXZ 3747467.5876
      XXYZ  -89534.0754   XYYZ  272580.1228   YYYZ   26985.7038
      XXZZ ************   XYZZ  -76392.4324   YYZZ  -33014.3729
      XZZZ  913497.8568   YZZZ   27117.2706   ZZZZ -195934.7361
 -----------------------------------------------------------------
 Calculating MO derivatives via CPSCF
 Full subspace dimension requested for CIS/TDDFT
 MAX_CIS_SUBSPACE fits in available memory
    1     0    36    0.0415438  
    2     0    36    0.0068798  
    3     0    36    0.0006583  
