                  Welcome to Q-Chem
     A Quantum Leap Into The Future Of Chemistry


 Q-Chem 5.4 (devel), Q-Chem, Inc., Pleasanton, CA (2021)

 E. Epifanovsky,  A. T. B. Gilbert,  Xintian Feng,  Joonho Lee,  Yuezhi Mao,  
 N. Mardirossian,  P. Pokhilko,  A. White,  M. Wormit,  M. P. Coons,  
 A. L. Dempwolff,  Zhengting Gan,  D. Hait,  P. R. Horn,  L. D. Jacobson,  
 I. Kaliman,  J. Kussmann,  A. W. Lange,  Ka Un Lao,  D. S. Levine,  Jie Liu,  
 S. C. McKenzie,  A. F. Morrison,  K. Nanda,  F. Plasser,  D. R. Rehn,  
 M. L. Vidal,  Zhi-Qiang You,  Ying Zhu,  B. Alam,  B. Albrecht,  
 A. Aldossary,  E. Alguire,  J. H. Andersen,  D. Barton,  K. Begam,  A. Behn,  
 Y. A. Bernard,  E. J. Berquist,  H. Burton,  A. Carreras,  K. Carter-Fenk,  
 R. Chakraborty,  A. D. Chien,  K. D. Closser,  V. Cofer-Shabica,  
 S. Dasgupta,  Jia Deng,  M. de Wergifosse,  M. Diedenhofen,  Hainam Do,  
 S. Ehlert,  Po-Tung Fang,  S. Fatehi,  Qingguo Feng,  T. Friedhoff,  
 J. Gayvert,  Qinghui Ge,  G. Gidofalvi,  M. Goldey,  J. Gomes,  
 C. Gonzalez-Espinoza,  S. Gulania,  A. Gunina,  M. W. D. Hanson-Heine,  
 P. H. P. Harbach,  A. W. Hauser,  M. F. Herbst,  M. Hernandez Vera,  
 M. Hodecker,  Z. C. Holden,  S. Houck,  Xunkun Huang,  Kerwin Hui,  
 B. C. Huynh,  M. Ivanov,  Hyunjun Ji,  Hanjie Jiang,  B. Kaduk,  S. Kaehler,  
 K. Khistyaev,  Jaehoon Kim,  P. Klunzinger,  Z. Koczor-Benda,  
 Joong Hoon Koh,  D. Kosenkov,  L. Koulias,  T. Kowalczyk,  C. M. Krauter,  
 K. Kue,  A. Kunitsa,  T. Kus,  A. Landau,  K. V. Lawler,  D. Lefrancois,  
 S. Lehtola,  Rain Li,  Yi-Pei Li,  Jiashu Liang,  M. Liebenthal,  
 Hung-Hsuan Lin,  You-Sheng Lin,  Fenglai Liu,  Kuan-Yu Liu,  
 M. Loipersberger,  A. Luenser,  A. Manjanath,  P. Manohar,  E. Mansoor,  
 S. F. Manzer,  Shan-Ping Mao,  A. V. Marenich,  T. Markovich,  S. Mason,  
 S. A. Maurer,  P. F. McLaughlin,  M. F. S. J. Menger,  J.-M. Mewes,  
 S. A. Mewes,  P. Morgante,  J. W. Mullinax,  K. J. Oosterbaan,  G. Paran,  
 Alexander C. Paul,  Suranjan K. Paul,  F. Pavosevic,  Zheng Pei,  S. Prager,  
 E. I. Proynov,  E. Ramos,  B. Rana,  A. E. Rask,  A. Rettig,  R. M. Richard,  
 F. Rob,  E. Rossomme,  T. Scheele,  M. Scheurer,  M. Schneider,  
 N. Sergueev,  S. M. Sharada,  W. Skomorowski,  D. W. Small,  C. J. Stein,  
 Yu-Chuan Su,  E. J. Sundstrom,  Zhen Tao,  J. Thirman,  T. Tsuchimochi,  
 N. M. Tubman,  S. P. Veccham,  O. Vydrov,  J. Wenzel,  J. Witte,  A. Yamada,  
 Kun Yao,  S. Yeganeh,  S. R. Yost,  A. Zech,  Igor Ying Zhang,  Xing Zhang,  
 Yu Zhang,  D. Zuev,  A. Aspuru-Guzik,  A. T. Bell,  N. A. Besley,  
 K. B. Bravaya,  B. R. Brooks,  D. Casanova,  Jeng-Da Chai,  S. Coriani,  
 C. J. Cramer,  A. E. DePrince, III,  R. A. DiStasio Jr.,  A. Dreuw,  
 B. D. Dunietz,  T. R. Furlani,  W. A. Goddard III,  S. Grimme,  
 S. Hammes-Schiffer,  T. Head-Gordon,  W. J. Hehre,  Chao-Ping Hsu,  
 T.-C. Jagau,  Yousung Jung,  A. Klamt,  Jing Kong,  D. S. Lambrecht,  
 WanZhen Liang,  N. J. Mayhall,  C. W. McCurdy,  J. B. Neaton,  
 C. Ochsenfeld,  J. A. Parkhill,  R. Peverati,  V. A. Rassolov,  Yihan Shao,  
 L. V. Slipchenko,  T. Stauch,  R. P. Steele,  J. E. Subotnik,  
 A. J. W. Thom,  A. Tkatchenko,  D. G. Truhlar,  T. Van Voorhis,  
 T. A. Wesolowski,  K. B. Whaley,  H. L. Woodcock III,  P. M. Zimmerman,  
 S. Faraji,  P. M. W. Gill,  M. Head-Gordon,  J. M. Herbert,  A. I. Krylov

 Additional authors for Version 5.4.1: 
 S. Kotaru,  Shaozhi Li,  Xiangyuan Li,  F. Matz,  A. Molle,  Haisheng Ren,  
 Yingli Su,  Hung-Yi Tsai,  C. Utku,  Fang Wang

 Contributors to earlier versions of Q-Chem not listed above: 
 R. D. Adamson,  B. Austin,  R. Baer,  J. Baker,  G. J. O. Beran,  
 K. Brandhorst,  S. T. Brown,  E. F. C. Byrd,  A. K. Chakraborty,  
 G. K. L. Chan,  Chun-Min Chang,  Yunqing Chen,  C.-L. Cheng,  
 Siu Hung Chien,  D. M. Chipman,  D. L. Crittenden,  H. Dachsel,  
 R. J. Doerksen,  A. D. Dutoi,  R. G. Edgar,  J. Fosso-Tande,  
 L. Fusti-Molnar,  D. Ghosh,  A. Ghysels,  A. Golubeva-Zadorozhnaya,  
 J. Gonthier,  M. S. Gordon,  S. R. Gwaltney,  G. Hawkins,  J. E. Herr,  
 A. Heyden,  S. Hirata,  E. G. Hohenstein,  G. Kedziora,  F. J. Keil,  
 C. Kelley,  Jihan Kim,  R. A. King,  R. Z. Khaliullin,  P. P. Korambath,  
 W. Kurlancheek,  A. Laurent,  A. M. Lee,  M. S. Lee,  S. V. Levchenko,  
 Ching Yeh Lin,  D. Liotard,  E. Livshits,  R. C. Lochan,  I. Lotan,  
 L. A. Martinez-Martinez,  P. E. Maslen,  N. Nair,  D. P. O'Neill,  
 D. Neuhauser,  E. Neuscamman,  C. M. Oana,  R. Olivares-Amaya,  R. Olson,  
 T. M. Perrine,  B. Peters,  P. A. Pieniazek,  A. Prociuk,  Y. M. Rhee,  
 J. Ritchie,  M. A. Rohrdanz,  E. Rosta,  N. J. Russ,  H. F. Schaefer III,  
 M. W. Schmidt,  N. E. Schultz,  S. Sharma,  N. Shenvi,  C. D. Sherrill,  
 A. C. Simmonett,  A. Sodt,  T. Stein,  D. Stuck,  K. S. Thanthiriwatte,  
 V. Vanovschi,  L. Vogt,  Tao Wang,  A. Warshel,  M. A. Watson,  
 C. F. Williams,  Q. Wu,  X. Xu,  Jun Yang,  W. Zhang,  Yan Zhao

 Please cite Q-Chem as follows:
 Y. Shao et al., Mol. Phys. 113, 184-215 (2015)
 DOI: 10.1080/00268976.2014.952696

 Q-Chem 5.4.1 for Intel X86 EM64T Linux

 Parts of Q-Chem use Armadillo 9.900.5 (Nocturnal Misbehaviour).
 http://arma.sourceforge.net/

 Q-Chem begins on Wed Jun  1 23:30:23 2022  

 Host: p09r14n13.grace.hpc.yale.internal
0

     Scratch files written to /home/tl686/scratch60/qchem_dev/scratch/qchem244136//
 Processing $rem in /home/tl686/qchem_dev/qchem/config/preferences:
 Processing $rem in /home/tl686/.qchemrc:
Applying user defined connections for MM calculations

 Checking the input file for inconsistencies... 	...done.

--------------------------------------------------------------
User input:
--------------------------------------------------------------
$molecule
0   1
 Fe -58.01895460 -28.70937236 7.43812328    -1  0   0   0   0
C -58.87520121 -31.90506361 6.69845829    -2  0   0   0   0 
C -58.77517064 -26.97994610 10.34966079    -2  0   0   0   0
C -56.36144289 -26.66185819 5.22943547    -2  0   0   0   0
C -61.02455343 -27.78765526 6.35741441    -2  0   0   0   0
C -55.07645839 -30.43500413 8.32334940    -2  0   0   0   0
O -59.29672633 -34.02148343 6.31142697    -3  0   0   0   0
O -59.35996879 -25.94420953 12.10639100    -3  0   0   0   0 
O -55.41926027 -25.59358886 3.60830220    -3  0   0   0   0
O -63.02571960 -27.48887291 5.50395395    -3  0   0   0   0 
O -53.12117066 -31.66169028 8.46821317    -3  0   0   0   0
H -60.28086064 -42.09308263 -15.88737096      6     13    0    0    0 
C -58.91991091 -40.64614680 -15.28310923     1     12    14    15    16
H -56.96180246 -41.28023080 -15.96805656     6     13    0    0    0
H -59.32143326 -38.70270879 -15.94294456     6     13    0    0    0
C -58.91690202 -40.74574069 -12.38022213     2     13    17    18    19
H -58.67988820 -42.62299076 -11.93867030     6     16    0    0    0
H -57.29957627 -39.66938180 -11.88392972     6     16    0    0    0
C -61.39672731 -39.78498046 -11.05471390     2     16    20   21   22
H -61.85928256 -37.93555251 -11.77673375     6     19    0    0    0
H -62.83242939 -41.12531121 -11.75574645     6     19    0    0    0
C -61.28187302 -39.65694715 -8.19452074     2     19   23   24   25
H -60.79520369 -41.47409925 -7.49609854     6    22    0    0    0
H -59.77322405 -38.34019685 -7.61965860     6    22    0    0    0
C -63.84078695 -38.72825444 -7.14377583     2    22   26   27   28
H -64.14444950 -36.74661823 -7.67399429     6    25    0    0    0
H -65.29464946 -39.59984764 -8.31985782     6    25    0    0    0
C -64.07706067 -38.95088105 -4.29073777     2    25   29   30   31
H -63.70527759 -40.83393469 -3.53281294     6    28    0    0    0
H -62.93239365 -37.52802658 -3.44678224     6    28    0    0    0
C -66.92450611 -38.59133520 -3.55683463     2    28   32   33   34
H -66.82829550 -38.43569867 -1.44668465     6    31    0    0    0
H -67.61233955 -36.84308326 -4.45901057     6    31    0    0    0
C -68.60624869 -40.81592907 -4.23910510     2    31   35   36   37
H -69.23026461 -41.00163108 -6.24659783     6    34    0    0    0
H -67.53055901 -42.52353261 -3.97473344     6    34    0    0    0
C -70.77298090 -40.85970721 -2.45626623     2    34   38   39   40
H -70.21223627 -40.58763353 -0.48102381     6    37    0    0    0
H -72.12782490 -39.44160254 -3.06758188     6    37    0    0    0
C -72.03819464 -43.44998439 -2.41725721     2    37   41   42   43
H -73.10243249 -43.70381823 -4.10210403     6    40    0    0    0
H -70.54665859 -44.90509238 -2.13723977     6    40    0    0    0
C -73.86139041 -43.58903095 -0.21727137     2    40   44   45   46
H -72.74559613 -43.72094750 1.60281573     6    43    0    0    0
H -74.39285941 -41.65098796 -0.07314105     6    43    0    0    0
C -75.97771911 -45.53789576 -0.55846426     1    43   47   48   49
H -77.30375855 -45.15858491 -2.05789465     6    46    0    0    0
H -77.03959183 -45.56815042 1.26935481     6    46    0    0    0
H -75.17861002 -47.38459397 -0.85040978     6    46    0    0    0
H -66.41493535 -34.68822050 9.20438286     6     51    0    0    0 
C -65.55232151 -33.18475298 8.06848684     1     50    52    53    54
H -66.93600224 -31.64033064 8.17492427     6     51    0    0    0
H -63.83237903 -32.58085499 9.06807744     6     51    0    0    0
C -65.16429270 -34.11366237 5.26622365     2     51    55    56    57
H -63.64171494 -32.89556594 4.58119725     6     54    0    0    0
H -64.59142074 -36.06428317 5.56698612     6     54    0    0    0
C -67.50370505 -33.86462673 3.67182208     2     54    58   59   60
H -68.19740780 -31.94518009 3.79830618     6     57    0    0    0
H -67.30537879 -34.08033631 1.72331591     6     57    0    0    0
C -69.81839720 -35.31972701 4.64602661     2     57   61   62   63
H -68.96011826 -37.11421680 5.02777794     6    60    0    0    0
H -70.54348032 -34.43609452 6.39978215     6    60    0    0    0
C -72.07697678 -35.52466082 2.80509932     2    60   64   65   66
H -73.09614507 -33.77378758 2.94980689     6    63    0    0    0
H -71.43728834 -35.63210181 0.84906696     6    63    0    0    0
C -73.88784883 -37.71814874 3.37042980     2    63   67   68   69
H -75.22725470 -37.84793808 1.79883768     6    66    0    0    0
H -73.07043120 -39.58645245 3.29989362     6    66    0    0    0
C -75.36653505 -37.37804980 5.79616597     2    66   70   71   72
H -74.16669539 -37.13213291 7.45101199     6    69    0    0    0
H -76.28764660 -35.48162439 5.88909430     6    69    0    0    0
C -77.24932136 -39.38260830 6.47810858     2    69   73   74   75
H -78.90982511 -38.96411314 5.26432415     6    72    0    0    0
H -76.42775682 -41.18013530 6.01308871     6    72    0    0    0
C -78.11434217 -39.48902257 9.29295528     2    72   76   77   78
H -76.68991369 -39.09028524 10.65247161     6    75    0    0    0
H -79.62778251 -37.91710289 9.45615077     6    75    0    0    0
C -79.59416954 -41.99305516 9.91111069     2    75   79   80   81
H -81.40834385 -41.72502044 8.92713575     6    78    0    0    0
H -78.47327798 -43.67286777 9.49793746     6    78    0    0    0
C -79.95125043 -42.09531680 12.84951693     2    78   82   83   84
H -78.13420623 -42.16613173 13.88238481     6    81    0    0    0
H -80.82864049 -40.35909749 13.56737737     6    81    0    0    0
C -81.51597595 -44.37565284 13.91453137     1    81   85   86   87
H -81.89897242 -44.17551933 15.92047654     6    84    0    0    0
H -80.41677415 -46.04621892 13.42053046     6    84    0    0    0
H -83.37908205 -44.51493144 13.16652972     6    84    0    0    0
H -58.78050464 -25.12100517 -26.80245458     6     89    0    0    0 
C -60.54718712 -25.96373206 -27.36052254     1     88    90    91    92
H -61.92665828 -24.56006819 -28.01043569     6     89    0    0    0
H -60.13572031 -26.94963219 -29.07289042     6     89    0    0    0
C -61.76369727 -27.93346078 -25.57656373     2     89    93    94    95
H -60.32529056 -29.39269592 -25.22697897     6     92    0    0    0
H -62.14160360 -26.77090791 -23.84502946     6     92    0    0    0
C -64.15335403 -29.10149699 -26.81059687     2     92    96   97   98
H -65.67910016 -27.83508941 -27.37026607     6     95    0    0    0
H -63.50613598 -30.13418435 -28.57828486     6     95    0    0    0
C -65.33908988 -31.01502185 -25.01667373     2     95   99   100   101
H -64.00155522 -32.55891195 -24.68825725     6    98    0    0    0
H -65.70652384 -30.17343012 -23.27101944     6    98    0    0    0
C -67.90436093 -32.01946188 -25.86241468     2    98   102   103   104
H -69.04927831 -30.30881361 -25.88535129     6    101    0    0    0
H -67.90696767 -32.49485973 -27.82918601     6    101    0    0    0
C -68.87629955 -34.10039464 -24.19777040     2    101   105   106   107
H -67.48516113 -35.58185999 -23.97045638     6    104    0    0    0
H -69.36526428 -33.27986101 -22.50402374     6    104    0    0    0
C -71.21303107 -35.32281251 -25.22282670     2    104   108   109   110
H -72.96520201 -33.92903291 -25.00869549     6    107    0    0    0
H -71.42120172 -35.93766952 -27.16006178     6    107    0    0    0
C -71.72704837 -37.74359185 -23.75125052     2    107   111   112   113
H -69.99206814 -38.95039833 -23.60637959     6    110    0    0    0
H -72.64452235 -36.97748746 -21.95693597     6    110    0    0    0
C -73.70286037 -39.21417410 -25.38253284     2    110   114   115   116
H -75.43010930 -38.10679588 -25.64837335     6    113    0    0    0
H -72.79575801 -39.69252241 -27.15407385     6    113    0    0    0
C -74.74633687 -41.66619250 -24.16925978     2    113   117   118   119
H -75.94562548 -42.76775790 -25.25619058     6    116    0    0    0
H -73.01548238 -42.76435582 -23.96497502     6    116    0    0    0
C -76.17508687 -41.00197624 -21.61829343     2    116   120   121   122
H -75.02722222 -39.97864764 -20.26060193     6    119    0    0    0
H -77.78128655 -39.89308736 -22.06983005     6    119    0    0    0
C -77.23502395 -43.35571193 -20.12531996     1    119   123   124   125
H -77.95562775 -42.75446801 -18.26993442     6    122    0    0    0
H -75.70125227 -44.80423502 -20.05022241     6    122    0    0    0
H -78.73644628 -44.33634024 -21.22540432     6    122    0    0    0
H -68.74679474 -11.07281585 -17.24212332     6     127    0    0    0 
C -67.31045605 -12.05579424 -18.35599973     1     126    128    129    130
H -68.38922755 -13.10522342 -19.73560638     6     127    0    0    0
H -66.08416108 -10.88218794 -19.59636291     6     127    0    0    0
C -65.81707969 -13.78192192 -16.56891032     2     127    131    132    133
H -66.83953646 -15.30424647 -15.86805222     6     130    0    0    0
H -64.24962124 -14.63742551 -17.75693007     6     130    0    0    0
C -64.42469235 -12.57940221 -14.33483954     2     130    134   135   136
H -63.48160518 -10.87709375 -14.99150704     6     133    0    0    0
H -65.91502067 -12.02197451 -12.94559594     6     133    0    0    0
C -62.34013519 -14.34494921 -13.13443172     2     133   137   138   139
H -63.00785819 -16.25290834 -12.64748960     6    136    0    0    0
H -60.82657453 -14.74435727 -14.48859236     6    136    0    0    0
C -61.27001885 -13.26314423 -10.61065216     2    136   140   141   142
H -60.57344062 -11.26331104 -10.81313025     6    139    0    0    0
H -62.78245899 -13.08664757 -9.12158698     6    139    0    0    0
C -59.27384392 -14.93409677 -9.50418658     2    139   143   144   145
H -60.03203120 -16.81731037 -9.22131884     6    142    0    0    0
H -57.94347820 -15.32062560 -10.91993988     6    142    0    0    0
C -58.12726027 -13.97988109 -7.12155181     2    142   146   147   148
H -57.24106136 -12.03223976 -7.49240788     6    145    0    0    0
H -59.62472258 -13.71749436 -5.83536097     6    145    0    0    0
C -56.21235283 -15.90905913 -6.11978955     2    145   149   150   151
H -57.25982409 -17.62817612 -5.57214731     6    148    0    0    0
H -55.04853903 -16.27433795 -7.78943286     6    148    0    0    0
C -55.02708566 -15.18771173 -3.56116209     2    148   152   153   154
H -53.60098233 -13.71597292 -3.86721415     6    151    0    0    0
H -56.42736623 -14.22832174 -2.38648687     6    151    0    0    0
C -53.53930814 -17.25913803 -1.99577533     2    151   155   156   157
H -52.94443884 -16.31393587 -0.13585996     6    154    0    0    0
H -54.85403789 -18.78878176 -1.27856506     6    154    0    0    0
C -51.44100990 -18.76374492 -3.38176018     2    154   158   159   160
H -52.29462070 -19.90411540 -4.83972935     6    157    0    0    0
H -50.05557610 -17.44325953 -4.22876284     6    157    0    0    0
C -49.77005509 -20.44819252 -1.58176538     1    157   161   162   163
H -48.26085306 -21.43664337 -2.71266313     6    160    0    0    0
H -50.93198946 -22.02045599 -0.85507397     6    160    0    0    0
H -48.76284052 -19.24969053 -0.17776310     6    160    0    0    0
H -79.62428272 -17.18104395 -14.39059716     6     165    0    0    0 
C -79.33500034 -15.39117560 -13.52401302     1     164    166    167    168
H -80.34821215 -14.12184582 -14.62673104     6     165    0    0    0
H -80.03787841 -15.65837005 -11.61738405     6     165    0    0    0
C -76.58996559 -14.37663646 -13.49413076     2     165    169    170    171
H -75.04969238 -15.46748043 -12.61184410     6     168    0    0    0
H -76.10240699 -14.25622177 -15.48686692     6     168    0    0    0
C -76.34667792 -11.52334986 -12.63898522     2     168    172   173   174
H -77.69259539 -10.55203397 -13.78893666     6     171    0    0    0
H -76.89846465 -11.11023298 -10.68430864     6     171    0    0    0
C -73.76780824 -10.59289129 -13.51028792     2     171   175   176   177
H -72.31810774 -11.69880452 -12.83623920     6    174    0    0    0
H -73.82138538 -10.76039540 -15.59452565     6    174    0    0    0
C -73.04110646 -8.00500310 -12.67477132     2    174   178   179   180
H -73.82255352 -6.78691620 -14.11328736     6    177    0    0    0
H -73.70804205 -7.71978532 -10.68945683     6    177    0    0    0
C -70.17947855 -7.50869811 -12.55494122     2    177   181   182   183
H -69.26381799 -9.22444484 -11.81126702     6    180    0    0    0
H -69.21586424 -7.10258917 -14.41265958     6    180    0    0    0
C -69.28262031 -5.57664467 -10.79270935     2    180   184   185   186
H -70.22544808 -3.72701850 -10.95653657     6    183    0    0    0
H -69.63851622 -5.95146923 -8.81623718     6    183    0    0    0
C -66.33624385 -5.03308936 -11.00907849     2    183   187   188   189
H -65.12698224 -6.57537501 -10.74155300     6    186    0    0    0
H -66.00858883 -4.38234687 -12.89264032     6    186    0    0    0
C -65.58236693 -3.07138791 -9.12458854     2    186   190   191   192
H -66.67785505 -1.31239953 -9.08450528     6    189    0    0    0
H -66.01554810 -3.66787916 -7.11898768     6    189    0    0    0
C -62.80978298 -2.20100639 -9.41824823     2    189   193   194   195
H -61.63688243 -3.73989679 -8.80541086     6    192    0    0    0
H -62.51234552 -1.66258439 -11.36615363     6    192    0    0    0
C -62.12174714 0.02728064 -7.72370601     2    192   196   197   198
H -62.96831739 1.79862763 -8.38662960     6    195    0    0    0
H -62.98410399 -0.25397610 -5.86743609     6    195    0    0    0
C -59.23687299 0.69275503 -7.50168266     1    195   199   200   201
H -58.99137318 2.49010503 -6.47608660     6    198    0    0    0
H -58.55479628 0.85361561 -9.45312286     6    198    0    0    0
H -58.12313669 -0.78170049 -6.60564265     6    198    0    0    0
H -91.02831089 -13.76288191 -6.65907985     6     203    0    0    0 
C -91.51374581 -14.52418528 -4.72958942     1     202    204    205    206
H -91.96048806 -12.94379458 -3.51637718     6     203    0    0    0
H -93.24851049 -15.69630025 -4.93347869     6     203    0    0    0
C -89.30298246 -16.14185079 -3.56038544     2     203    207    208    209
H -89.95915963 -17.58693136 -2.16584068     6     206    0    0    0
H -88.30198910 -17.25871390 -4.98181571     6     206    0    0    0
C -87.31395719 -14.45359112 -2.18579191     2     206    210   211   212
H -85.54403756 -15.51053315 -1.67079141     6     209    0    0    0
H -86.78282827 -12.76343835 -3.22282720     6     209    0    0    0
C -88.23698293 -13.64295825 0.53737026     2     209   213   214   215
H -89.84748975 -12.54259615 -0.00390336     6    212    0    0    0
H -88.82224791 -15.24908808 1.65496510     6    212    0    0    0
C -86.24803314 -12.04049024 2.04188223     2    212   216   217   218
H -84.49261432 -12.81239960 1.75011564     6    215    0    0    0
H -86.09345753 -10.12945481 1.29412843     6    215    0    0    0
C -87.11341584 -11.76969561 4.85317121     2    215   219   220   221
H -88.91555353 -10.84461155 5.01544117     6    218    0    0    0
H -87.26657291 -13.68286863 5.55047442     6    218    0    0    0
C -85.10598380 -10.45491463 6.59007164     2    218   222   223   224
H -83.40678448 -11.53051903 6.26015551     6    221    0    0    0
H -84.69250578 -8.59334426 5.84658180     6    221    0    0    0
C -85.54104336 -10.37156147 9.41329769     2    221   225   226   227
H -87.34745868 -9.38981716 9.60544561     6    224    0    0    0
H -85.59754140 -12.40831942 9.96334740     6    224    0    0    0
C -83.53686434 -8.98259916 11.13582085     2    224   228   229   230
H -81.69200761 -9.97984655 11.15256249     6    227    0    0    0
H -83.00923590 -7.08154267 10.39666548     6    227    0    0    0
C -84.49567679 -8.79530482 13.84832472     2    227   231   232   233
H -86.32572069 -7.86539431 13.69438657     6    230    0    0    0
H -84.68944866 -10.66499758 14.68323209     6    230    0    0    0
C -82.69081234 -7.41171420 15.63191174     2    230   234   235   236
H -80.84720191 -8.30356755 15.45095805     6    233    0    0    0
H -82.53985287 -5.50227982 14.82472554     6    233    0    0    0
C -83.39613637 -7.06100137 18.41383227     1    233   237   238   239
H -81.90923219 -6.10929828 19.53618399     6    236    0    0    0
H -83.85459714 -8.81406685 19.28142639     6    236    0    0    0
H -84.96743422 -5.75938763 18.55652720     6    236    0    0    0
H -88.83258035 -34.32178217 -2.72791511     6     241    0    0    0 
C -86.77126074 -34.63098507 -2.81984940     1     240    242    243    244
H -86.23815001 -33.97566270 -4.62147946     6     241    0    0    0
H -85.99977209 -33.38398873 -1.39727768     6     241    0    0    0
C -86.10861321 -37.25071587 -2.36599563     2     241    245    246    247
H -86.73762705 -38.70450048 -3.87832238     6     244    0    0    0
H -84.08596988 -37.36254916 -2.48235043     6     244    0    0    0
C -86.88031722 -37.94955857 0.32177590     2     244    248   249   250
H -85.88572434 -36.93081487 1.92489701     6     247    0    0    0
H -88.89942775 -37.33993251 0.48248495     6     247    0    0    0
C -86.42770371 -40.80993141 0.96896197     2     247   251   252   253
H -87.39302252 -41.19532454 2.84416527     6    250    0    0    0
H -87.57193576 -41.78289995 -0.31413631     6    250    0    0    0
C -83.71584968 -41.81322725 0.75446196     2    250   254   255   256
H -82.81504246 -41.51217928 -1.10930527     6    253    0    0    0
H -82.61648281 -40.58538637 2.08229273     6    253    0    0    0
C -83.57167489 -44.65725892 1.52013287     2    253   257   258   259
H -81.65758912 -45.08589232 2.29148189     6    256    0    0    0
H -84.79795355 -45.02534096 3.09351488     6    256    0    0    0
C -84.22529313 -46.40899247 -0.68564612     2    256   260   261   262
H -85.98771553 -45.81401960 -1.67270266     6    259    0    0    0
H -82.80767346 -46.34123052 -2.29260025     6    259    0    0    0
C -84.44280613 -49.18717008 0.09819262     2    259   263   264   265
H -82.62737509 -49.66345515 1.07810127     6    262    0    0    0
H -86.00777379 -49.43134509 1.53806288     6    262    0    0    0
C -84.93801212 -51.11611493 -2.09962610     2    262   266   267   268
H -86.43238517 -50.41566798 -3.45893783     6    265    0    0    0
H -83.20210362 -51.47781416 -3.06471003     6    265    0    0    0
C -85.38629159 -53.88545628 -1.12349807     2    265   269   270   271
H -83.78297114 -54.26625092 0.05684938     6    268    0    0    0
H -87.04012619 -53.74600989 0.07830666     6    268    0    0    0
C -85.62776840 -55.88029392 -3.16852281     2    268   272   273   274
H -86.56714000 -57.46366821 -2.14713604     6    271    0    0    0
H -86.51506062 -55.27537718 -4.82241944     6    271    0    0    0
C -83.10044088 -57.03462407 -3.83370648     1    271   275   276   277
H -81.72203226 -55.55891740 -4.49341190     6    274    0    0    0
H -83.50545727 -58.19536796 -5.40601072     6    274    0    0    0
H -82.44804502 -58.19500028 -2.34269157     6    274    0    0    0
H -81.93894619 -21.39295382 -12.32874131     6     279    0    0    0 
C -82.96009651 -22.78210177 -11.08171831     1     278    280    281    282
H -84.92090469 -23.00341017 -11.77218609     6     279    0    0    0
H -81.84922412 -24.44484920 -11.39267584     6     279    0    0    0
C -82.97904349 -22.04058802 -8.20616224     2     279    283    284    285
H -81.07396375 -21.78598115 -7.61785616     6     282    0    0    0
H -83.83736120 -20.30057087 -7.96918346     6     282    0    0    0
C -84.57352391 -24.05434134 -6.67918401     2     282    286   287   288
H -86.10591394 -24.83959625 -7.70297363     6     285    0    0    0
H -83.34096448 -25.67775945 -6.48710359     6     285    0    0    0
C -85.55044030 -23.14319645 -4.13151946     2     285   289   290   291
H -83.72985174 -22.94969640 -3.05118802     6    288    0    0    0
H -86.54240548 -21.27656686 -4.34738606     6    288    0    0    0
C -87.30138006 -25.01216575 -2.60714623     2    288   292   293   294
H -89.11218899 -25.20986115 -3.78246165     6    291    0    0    0
H -86.28147315 -26.73593202 -2.48309620     6    291    0    0    0
C -87.57299247 -24.46183940 0.12364852     2    291   295   296   297
H -85.72944930 -24.52820378 0.96108300     6    294    0    0    0
H -88.48244923 -22.67505080 0.49046737     6    294    0    0    0
C -88.80098318 -26.72424448 1.51571166     2    294   298   299   300
H -90.74815536 -27.09048895 1.10766593     6    297    0    0    0
H -87.73875756 -28.36369379 0.67466097     6    297    0    0    0
C -88.64480164 -26.72949716 4.38732519     2    297   301   302   303
H -86.61673469 -26.48853694 4.80916466     6    300    0    0    0
H -89.86204109 -25.18738634 4.92152580     6    300    0    0    0
C -89.77152143 -29.24296497 5.57755062     2    300   304   305   306
H -91.63931520 -29.49551211 4.88011924     6    303    0    0    0
H -88.54376568 -30.83088012 4.89014616     6    303    0    0    0
C -89.64818524 -29.07264970 8.54090385     2    303   307   308   309
H -87.65334928 -29.18766551 9.17700973     6    306    0    0    0
H -90.27712851 -27.18974086 9.03516152     6    306    0    0    0
C -90.83540899 -31.17331265 10.14033685     2    306   310   311   312
H -92.50867882 -32.11252370 9.38088689     6    309    0    0    0
H -89.41401748 -32.54822913 10.07980465     6    309    0    0    0
C -91.28187336 -30.13362962 12.84342913     1    309   313   314   315
H -93.19562802 -29.49656609 12.94402895     6    312    0    0    0
H -89.97684662 -28.74586048 13.65768325     6    312    0    0    0
H -91.30742942 -31.67792610 14.16044984     6    312    0    0    0
H -63.45309363 -19.57352425 -23.59807445     6     317    0    0    0 
C -64.69259488 -19.49254408 -21.91023488     1     316    318    319    320
H -64.70964034 -17.63900946 -20.84161075     6     317    0    0    0
H -66.64886819 -19.70583837 -22.68204990     6     317    0    0    0
C -64.39733584 -21.58601100 -19.87378027     2     317    321    322    323
H -65.82587353 -21.60755997 -18.52668194     6     320    0    0    0
H -64.31954554 -23.51202058 -20.66125188     6     320    0    0    0
C -61.90291004 -20.77920970 -18.64068144     2     320    324   325   326
H -60.60766951 -20.60164590 -20.22488375     6     323    0    0    0
H -62.23075026 -19.11121716 -17.73545253     6     323    0    0    0
C -60.62135874 -22.48636637 -16.66656929     2     323   327   328   329
H -62.12398491 -22.70239019 -15.24974202     6    326    0    0    0
H -60.42992514 -24.23667116 -17.50315352     6    326    0    0    0
C -58.21883618 -21.34386318 -15.63024238     2    326   330   331   332
H -56.94607771 -20.96135587 -17.27817585     6    329    0    0    0
H -58.50152820 -19.37450941 -14.92163228     6    329    0    0    0
C -57.10085047 -22.95964069 -13.54876588     2    329   333   334   335
H -57.12038426 -24.87848368 -14.30730770     6    332    0    0    0
H -55.10502560 -22.42215109 -13.75992385     6    332    0    0    0
C -58.20639233 -22.39403137 -10.82338455     2    332   336   337   338
H -58.30180178 -20.38869097 -10.57415436     6    335    0    0    0
H -60.16489323 -22.95623069 -10.62682406     6    335    0    0    0
C -56.63322107 -23.78796603 -8.72289891     2    335   339   340   341
H -56.42741970 -25.78841685 -9.49388129     6    338    0    0    0
H -54.67128473 -23.06078509 -8.78509218     6    338    0    0    0
C -57.84791394 -23.73961812 -6.07010909     2    338   342   343   344
H -58.84697745 -21.96048057 -5.80360780     6    341    0    0    0
H -59.22662373 -25.10119487 -6.23020695     6    341    0    0    0
C -56.16175556 -24.23197936 -3.88067063     2    341   345   346   347
H -55.06277254 -22.55951139 -3.76040364     6    344    0    0    0
H -57.27880178 -24.28143935 -2.18920269     6    344    0    0    0
C -54.68380494 -26.61589406 -4.18133417     2    344   348   349   350
H -55.70755662 -28.02510644 -5.21555575     6    347    0    0    0
H -53.07487986 -26.21593809 -5.42722890     6    347    0    0    0
C -53.53937133 -27.74775485 -1.72650683     1    347   351   352   353
H -52.29823502 -26.52242578 -0.68970326     6    350    0    0    0
H -52.64980200 -29.46714778 -2.08221414     6    350    0    0    0
H -54.99559046 -28.22536079 -0.45215700     6    350    0    0    0
H -80.31791910 -35.89752076 0.41033994     6     355    0    0    0 
C -78.86806101 -35.19761043 -0.88938356     1     354    356    357    358
H -77.54035578 -34.42897566 0.52257912     6     355    0    0    0
H -77.90796774 -36.71785895 -1.90907998     6     355    0    0    0
C -79.69790287 -32.91613406 -2.61433551     2     355    359    360    361
H -81.44368825 -33.50123220 -3.53264111     6     358    0    0    0
H -80.41057605 -31.55044984 -1.18080849     6     358    0    0    0
C -77.56081184 -31.63906407 -4.17785245     2     358    362   363   364
H -75.77383128 -31.75974888 -3.32093033     6     361    0    0    0
H -77.40170263 -32.64484998 -6.02885569     6     361    0    0    0
C -78.00031983 -28.94967715 -4.89243335     2     361   365   366   367
H -79.69230183 -29.01525363 -6.04149361     6    364    0    0    0
H -78.61353928 -27.85585609 -3.25894403     6    364    0    0    0
C -75.70133401 -27.71006684 -6.20021345     2    364   368   369   370
H -74.02451005 -27.28377827 -5.14819374     6    367    0    0    0
H -75.03010133 -29.02021354 -7.70554362     6    367    0    0    0
C -76.23004305 -25.34993760 -7.71944641     2    367   371   372   373
H -77.79065275 -25.77900084 -8.96772182     6    370    0    0    0
H -76.85768089 -23.89844474 -6.47384086     6    370    0    0    0
C -73.86409866 -24.57424429 -9.27032111     2    370   374   375   376
H -72.59771687 -23.26532623 -8.22884913     6    373    0    0    0
H -72.80608199 -26.32398687 -9.84547104     6    373    0    0    0
C -74.68419397 -23.24676569 -11.73674286     2    373   377   378   379
H -75.24673087 -24.64118105 -13.17199224     6    376    0    0    0
H -76.31372797 -22.04919207 -11.23500140     6    376    0    0    0
C -72.45255995 -21.57937136 -12.78863142     2    376   380   381   382
H -72.12019016 -20.17261771 -11.37386268     6    379    0    0    0
H -70.71773824 -22.56687445 -13.01026530     6    379    0    0    0
C -73.18388388 -20.19054659 -15.27614136     2    379   383   384   385
H -73.81890380 -21.39596833 -16.84543024     6    382    0    0    0
H -74.49272587 -18.59636344 -14.94709352     6    382    0    0    0
C -70.91117539 -18.78497323 -16.38710207     2    382   386   387   388
H -70.33513726 -17.20653621 -15.25236707     6    385    0    0    0
H -69.22076718 -20.10703766 -16.24342060     6    385    0    0    0
C -71.36071897 -18.04401831 -19.09318005     1    385   389   390   391
H -72.83340852 -16.71878975 -19.16373563     6    388    0    0    0
H -71.90756745 -19.56839616 -20.34551222     6    388    0    0    0
H -69.53048460 -17.37910710 -19.78422787     6    388    0    0    0
H -40.40205996 -40.02223990 28.61436046     6     393    0    0    0 
C -41.66620602 -39.17258098 27.25601315     1     392    394    395    396
H -42.57137928 -37.56526952 28.13938922     6     393    0    0    0
H -40.46675489 -38.50025605 25.72357333     6     393    0    0    0
C -43.71885347 -41.02927509 26.18052744     2     393    397    398    399
H -42.80842857 -42.49443347 24.95819988     6     396    0    0    0
H -44.56490319 -41.90034023 27.85385045     6     396    0    0    0
C -45.85509814 -39.67590403 24.62363987     2     396    400   401   402
H -46.47917796 -37.91579578 25.71217027     6     399    0    0    0
H -45.19404333 -38.81761108 22.87052280     6     399    0    0    0
C -48.10974441 -41.46086880 23.75370760     2     399   403   404   405
H -47.42627797 -43.17892821 22.79066201     6    402    0    0    0
H -49.12091632 -42.40866260 25.33785439     6    402    0    0    0
C -50.07471313 -40.11267023 21.93437687     2    402   406   407   408
H -51.06954161 -38.58853471 22.75402399     6    405    0    0    0
H -48.84247535 -39.53337334 20.32543999     6    405    0    0    0
C -52.23395093 -41.93950700 21.26734386     2    405   409   410   411
H -51.62234394 -43.09134426 19.65936548     6    408    0    0    0
H -52.52130004 -43.37697117 22.77012379     6    408    0    0    0
C -54.49041935 -40.38425807 20.35632609     2    408   412   413   414
H -55.13324869 -39.22741003 21.96682844     6    411    0    0    0
H -54.15419576 -39.10848070 18.84404620     6    411    0    0    0
C -56.69010293 -42.05007875 19.64240713     2    411   415   416   417
H -56.39878628 -42.44098690 17.57575816     6    414    0    0    0
H -56.36226904 -43.82704385 20.75173263     6    414    0    0    0
C -59.54715999 -41.14854473 20.32641596     2    414   418   419   420
H -59.47974910 -40.24593908 22.23307337     6    417    0    0    0
H -60.09617035 -39.70735352 18.88472853     6    417    0    0    0
C -61.50058094 -43.17256037 20.48672992     2    417   421   422   423
H -62.05593966 -43.81991535 18.61988371     6    420    0    0    0
H -60.54822279 -44.89395104 21.37000504     6    420    0    0    0
C -63.91607206 -42.58803203 22.06855327     2    420   424   425   426
H -64.84196206 -44.39223141 22.33585615     6    423    0    0    0
H -63.48315400 -42.17394684 24.08166540     6    423    0    0    0
C -65.92628020 -40.73885313 21.06118599     1    423   427   428   429
H -67.39087180 -40.17985293 22.25004276     6    426    0    0    0
H -66.79493604 -41.68183399 19.45324163     6    426    0    0    0
H -65.07040826 -38.86163816 20.49501623     6    426    0    0    0
H -63.38432606 -55.59837077 4.52764512     6     431    0    0    0 
C -62.32635009 -54.42969138 3.23804215     1     430    432    433    434
H -61.17864981 -55.73078023 2.15172272     6     431    0    0    0
H -63.70049773 -53.42540897 2.12551123     6     431    0    0    0
C -60.57179682 -52.76719361 4.69887792     2     431    435    436    437
H -61.57973369 -51.61136852 6.03411673     6     434    0    0    0
H -59.34820405 -53.96104723 5.90316302     6     434    0    0    0
C -59.05657937 -50.96976944 3.02402652     2     434    438   439   440
H -57.97961609 -51.95414861 1.49906779     6     437    0    0    0
H -60.34403002 -49.57456016 2.02607592     6     437    0    0    0
C -57.05866627 -49.50436239 4.59834113     2     437   441   442   443
H -56.68734822 -47.73374970 3.70088398     6    440    0    0    0
H -58.02026260 -48.94291950 6.30636143     6    440    0    0    0
C -54.53167346 -50.98558437 4.86543069     2    440   444   445   446
H -54.95421143 -52.54039482 6.21683974     6    443    0    0    0
H -54.12706555 -51.58355811 2.85446428     6    443    0    0    0
C -52.29114127 -49.51234232 5.87647285     2    443   447   448   449
H -51.91777125 -47.80527336 4.80810684     6    446    0    0    0
H -52.38099259 -48.88389129 7.93519872     6    446    0    0    0
C -49.93853147 -51.26753207 5.65774648     2    446   450   451   452
H -50.10452436 -52.59124766 7.13672631     6    449    0    0    0
H -50.23053243 -52.39035618 3.89899021     6    449    0    0    0
C -47.49263976 -49.81209829 5.94418550     2    449   453   454   455
H -47.33388482 -48.51862922 4.33882875     6    452    0    0    0
H -47.52069321 -48.85914912 7.61865608     6    452    0    0    0
C -45.03659416 -51.45431568 5.83948162     2    452   456   457   458
H -44.48641372 -52.55560039 7.53992140     6    455    0    0    0
H -45.52184091 -52.68134800 4.28757536     6    455    0    0    0
C -42.83588551 -49.74051195 4.89247762     2    455   459   460   461
H -41.36659955 -51.03940681 4.84763518     6    458    0    0    0
H -43.28003582 -48.78169499 3.00520452     6    458    0    0    0
C -42.26740544 -47.82109282 6.93419694     2    458   462   463   464
H -44.02357947 -46.88858862 7.64245516     6    461    0    0    0
H -41.39596940 -48.82160590 8.49481323     6    461    0    0    0
C -40.22728069 -46.12774685 5.94034817     1    461   465   466   467
H -40.95667602 -45.24206735 4.19812724     6    464    0    0    0
H -38.68158996 -47.42899674 5.57498463     6    464    0    0    0
H -39.86795933 -44.57094182 7.24907748     6    464    0    0    0
H -66.49765257 -26.75783501 -18.16279472     6     469    0    0    0 
C -68.48712116 -26.53963633 -18.40354555     1     468    470    471    472
H -69.21574231 -25.43413539 -16.81484495     6     469    0    0    0
H -68.38978897 -25.27749354 -20.05334821     6     469    0    0    0
C -70.07178993 -28.91883886 -18.73825825     2     469    473    474    475
H -71.61719599 -28.71410575 -20.13801506     6     472    0    0    0
H -68.86699347 -30.29024575 -19.70458678     6     472    0    0    0
C -70.92041931 -30.03062326 -16.24221988     2     472    476   477   478
H -69.21411967 -30.39186026 -15.25238179     6     475    0    0    0
H -72.19309950 -28.80351409 -15.28051754     6     475    0    0    0
C -72.21216971 -32.59453731 -16.53170858     2     475   479   480   481
H -73.81521839 -32.15955768 -17.74907953     6    478    0    0    0
H -71.23165867 -33.96588670 -17.50505131     6    478    0    0    0
C -73.30364530 -33.64500316 -13.97899717     2    478   482   483   484
H -71.96883590 -33.66061081 -12.40911112     6    481    0    0    0
H -74.81756938 -32.46726692 -13.20720602     6    481    0    0    0
C -74.49804472 -36.39692646 -14.14436115     2    481   485   486   487
H -75.74014004 -36.09966912 -15.76215672     6    484    0    0    0
H -73.09364011 -37.86499557 -14.48658526     6    484    0    0    0
C -76.12526102 -37.06863813 -11.82565482     2    484   488   489   490
H -75.22107982 -36.28485795 -10.05065735     6    487    0    0    0
H -77.85735874 -36.06442275 -12.02696243     6    487    0    0    0
C -76.21930411 -39.89845567 -11.18238401     2    487   491   492   493
H -76.42241713 -40.89905686 -12.99618074     6    490    0    0    0
H -74.55435988 -40.69767685 -10.34697221     6    490    0    0    0
C -78.43286513 -40.83325856 -9.64068114     2    490   494   495   496
H -78.00590195 -40.37105330 -7.63661450     6    493    0    0    0
H -80.13231759 -39.73849157 -10.20119425     6    493    0    0    0
C -78.71709801 -43.60739431 -9.78858742     2    493   497   498   499
H -76.92010875 -44.62965334 -9.40085989     6    496    0    0    0
H -79.86937993 -44.42477295 -8.41859456     6    496    0    0    0
C -79.56150756 -44.76609797 -12.22338578     2    496   500   501   502
H -81.42491383 -44.07312047 -12.67969546     6    499    0    0    0
H -78.18207166 -44.49309484 -13.72037653     6    499    0    0    0
C -79.94637434 -47.70253301 -11.85786579     1    499   503   504   505
H -80.62366875 -48.49832475 -13.64322352     6    502    0    0    0
H -81.31846253 -48.00105217 -10.42103209     6    502    0    0    0
H -78.18672697 -48.59380859 -11.41403417     6    502    0    0    0
H -78.68755485 -59.32135728 3.66032078     6     507    0    0    0 
C -76.93913854 -60.26017202 4.24984613     1     506    508    509    510
H -77.17410789 -62.26098475 4.46723284     6     507    0    0    0
H -75.82661055 -59.99549276 2.51988009     6     507    0    0    0
C -76.02065133 -59.26768991 6.84420615     2     507    511    512    513
H -76.31719327 -57.21631101 6.70976708     6     510    0    0    0
H -77.16074602 -59.85516601 8.34426604     6     510    0    0    0
C -73.17457301 -59.35779539 7.48022147     2     510    514   515   516
H -72.77260791 -61.24741706 8.23827343     6     513    0    0    0
H -72.05091521 -59.29780456 5.82376497     6     513    0    0    0
C -72.25402216 -57.41979833 9.29580544     2     513   517   518   519
H -72.70597277 -55.55160958 8.60177896     6    516    0    0    0
H -73.25443805 -57.77475650 11.09629896     6    516    0    0    0
C -69.39086313 -57.80101391 10.07700360     2    516   520   521   522
H -69.06948820 -59.70272688 10.85309869     6    519    0    0    0
H -68.34585283 -57.76095254 8.31112574     6    519    0    0    0
C -68.44067648 -55.51313390 11.70984042     2    519   523   524   525
H -69.08182863 -53.78910403 10.91779815     6    522    0    0    0
H -68.95019701 -55.62081618 13.55066928     6    522    0    0    0
C -65.56391117 -55.36568798 11.78782879     2    522   526   527   528
H -64.89137904 -57.08116755 12.56788387     6    525    0    0    0
H -65.13093171 -55.19297763 9.73793564     6    525    0    0    0
C -64.42819842 -52.99817644 13.11147875     2    525   529   530   531
H -64.90446433 -51.29566966 12.00245098     6    528    0    0    0
H -64.75177340 -52.76365042 15.15776167     6    528    0    0    0
C -61.42368314 -53.34712716 12.81109337     2    528   532   533   534
H -60.84276241 -55.13957835 13.82742648     6    531    0    0    0
H -61.00362626 -53.43798532 10.75686037     6    531    0    0    0
C -60.14151976 -51.00353706 13.82059436     2    531   535   536   537
H -60.87202607 -49.26353385 12.98356456     6    534    0    0    0
H -60.59225997 -50.86604481 15.78033380     6    534    0    0    0
C -57.30621030 -51.05366951 13.40325661     2    534   538   539   540
H -56.54346027 -52.47090694 14.65386569     6    537    0    0    0
H -57.02100625 -51.51856199 11.42689496     6    537    0    0    0
C -55.89791957 -48.64383492 14.26260162     1    537   541   542   543
H -53.92595284 -48.57996046 13.67830107     6    540    0    0    0
H -56.06540499 -48.50626027 16.31901338     6    540    0    0    0
H -56.76719247 -47.01203671 13.60936815     6    540    0    0    0
H -49.99885223 -37.82894874 4.29006891     6     545    0    0    0 
C -49.04673508 -36.14760652 5.17138518     1     544    546    547    548
H -49.25897700 -36.14970241 7.27296157     6     545    0    0    0
H -47.05031380 -36.36205739 4.68757036     6     545    0    0    0
C -50.04338550 -33.61673615 4.00962131     2     545    549    550    551
H -49.81433262 -33.87154250 1.90717145     6     548    0    0    0
H -52.02105923 -33.07166657 4.10650570     6     548    0    0    0
C -48.32947179 -31.35490392 5.14865489     2     548    552   553   554
H -48.20595084 -31.68871801 7.21249564     6     551    0    0    0
H -46.21862355 -31.53155779 4.65477399     6     551    0    0    0
C -49.06807952 -28.63566066 4.56174757     2     551   555   556   557
H -48.46843069 -28.41052409 2.52598665     6    554    0    0    0
H -51.16774995 -28.44777618 4.55290668     6    554    0    0    0
C -47.87475502 -26.47215199 6.08719659     2    554   558   559   560
H -48.32675210 -26.80020759 8.10796471     6    557    0    0    0
H -45.69536267 -26.51071985 6.24517042     6    557    0    0    0
C -48.88687828 -23.86968065 5.11233546     2    557   561   562   563
H -48.35826315 -23.53424278 3.20564367     6    560    0    0    0
H -50.93626148 -23.84268595 5.13657205     6    560    0    0    0
C -48.07813627 -21.53453603 6.60024221     2    560   564   565   566
H -48.92793754 -21.60974443 8.45039959     6    563    0    0    0
H -46.17431622 -21.74865702 7.15710432     6    563    0    0    0
C -48.67467161 -19.02193039 5.26635799     2    563   567   568   569
H -47.60115812 -18.73403037 3.46109951     6    566    0    0    0
H -50.68831144 -19.03436007 4.73099813     6    566    0    0    0
C -48.22448509 -16.67174814 7.12260548     2    566   570   571   572
H -49.44389142 -17.06635406 8.57728651     6    569    0    0    0
H -46.30225533 -16.80994761 7.92204419     6    569    0    0    0
C -48.83247480 -14.08920196 5.81954008     2    569   573   574   575
H -47.43304603 -13.54142001 4.41549839     6    572    0    0    0
H -50.69324762 -14.28953865 4.80792702     6    572    0    0    0
C -49.24238602 -11.85003764 7.61448209     2    572   576   577   578
H -47.59343371 -11.80965459 8.69268578     6    575    0    0    0
H -49.59826948 -10.08756422 6.56175870     6    575    0    0    0
C -51.29844930 -12.29176024 9.63550809     1    575   579   580   581
H -53.07193349 -12.59769268 8.65174114     6    578    0    0    0
H -51.39940749 -10.66521425 11.02417873     6    578    0    0    0
H -51.18838345 -14.07677056 10.65307686     6    578    0    0    0
H -77.44589548 -19.51782177 -5.80168606     6     583    0    0    0 
C -77.02914901 -17.50568932 -5.94961001     1     582    584    585    586
H -77.91279638 -16.65622857 -7.57418389     6     583    0    0    0
H -77.87997865 -16.41973430 -4.31511766     6     583    0    0    0
C -74.12550322 -17.35942549 -5.73909391     2     583    587    588    589
H -73.67378346 -18.03739254 -3.97084116     6     586    0    0    0
H -73.22174928 -18.77589427 -6.84275734     6     586    0    0    0
C -73.08238023 -14.63721136 -6.04527228     2     586    590   591   592
H -73.50341885 -14.41278242 -8.06853453     6     589    0    0    0
H -74.08961347 -13.31210073 -4.87178370     6     589    0    0    0
C -70.20157093 -14.30606550 -5.44873796     2     589   593   594   595
H -69.74682015 -15.51027066 -3.70497766     6    592    0    0    0
H -69.09813878 -14.92528519 -7.03095857     6    592    0    0    0
C -69.38231869 -11.57462019 -4.61162502     2    592   596   597   598
H -69.94987235 -10.51203547 -6.23309145     6    595    0    0    0
H -70.17361256 -11.04827675 -2.87498869     6    595    0    0    0
C -66.49372825 -11.31333427 -4.45047379     2    595   599   600   601
H -65.53211694 -12.89662601 -3.41819366     6    598    0    0    0
H -65.97269883 -11.56371684 -6.43114961     6    598    0    0    0
C -65.31538307 -8.78796420 -3.38704748     2    598   602   603   604
H -66.18049589 -7.07840298 -4.31543958     6    601    0    0    0
H -65.45261610 -8.55048726 -1.44273509     6    601    0    0    0
C -62.49153940 -8.35041072 -3.97017130     2    601   605   606   607
H -61.26406133 -10.09857487 -3.88485763     6    604    0    0    0
H -62.23369662 -7.89102825 -6.07949580     6    604    0    0    0
C -61.40052631 -6.25882895 -2.28482651     2    604   608   609   610
H -62.14580770 -4.41695966 -2.92864422     6    607    0    0    0
H -61.84765555 -6.32291869 -0.25864722     6    607    0    0    0
C -58.35324346 -5.98688595 -2.67311106     2    607   611   612   613
H -57.51416928 -7.81170962 -2.06520470     6    610    0    0    0
H -57.94506452 -5.58907108 -4.63693481     6    610    0    0    0
C -57.61931657 -3.64289153 -1.11905163     2    610   614   615   616
H -58.96551006 -2.20489843 -1.52533790     6    613    0    0    0
H -57.61640020 -4.13881419 0.93554411     6    613    0    0    0
C -54.97182174 -2.77864226 -2.08053429     1    613   617   618   619
H -54.61105361 -1.10480168 -0.99033124     6    616    0    0    0
H -55.12636710 -2.37839303 -3.98032294     6    616    0    0    0
H -53.57020992 -4.38021891 -1.92198861     6    616    0    0    0
H -63.16344011 -20.79790445 31.98488609     6     621    0    0    0 
C -63.78705859 -22.70567591 32.00022887     1     620    622    623    624
H -62.40989866 -23.73984696 30.66403892     6     621    0    0    0
H -63.81634571 -23.42378053 33.86777531     6     621    0    0    0
C -66.44980680 -22.67328564 30.95217082     2     621    625    626    627
H -67.00332970 -24.76603073 30.66924839     6     624    0    0    0
H -67.63985126 -21.79647231 32.42651010     6     624    0    0    0
C -66.79377501 -21.46160740 28.36527704     2     624    628   629   630
H -65.75518493 -19.67633563 28.34443807     6     627    0    0    0
H -66.08280318 -22.90602328 26.99763896     6     627    0    0    0
C -69.45062300 -20.69659097 27.42693875     2     627   631   632   633
H -69.40548550 -20.02186716 25.42449225     6    630    0    0    0
H -70.62370291 -22.27951206 27.46787822     6    630    0    0    0
C -70.69378659 -18.64861626 28.99920233     2    630   634   635   636
H -70.69211045 -19.25014260 31.06243432     6    633    0    0    0
H -69.82003491 -16.79933575 28.81708616     6    633    0    0    0
C -73.55922955 -18.43345114 28.34830643     2    633   637   638   639
H -73.68079537 -17.82556149 26.30942638     6    636    0    0    0
H -74.41627089 -20.17610887 28.39621337     6    636    0    0    0
C -74.95860286 -16.19225326 29.62561487     2    636   640   641   642
H -74.95572953 -16.24844967 31.61301661     6    639    0    0    0
H -74.07841707 -14.36666697 29.03161155     6    639    0    0    0
C -77.72202708 -16.14975164 28.63437137     2    639   643   644   645
H -77.54730623 -14.74205114 27.12771343     6    642    0    0    0
H -78.25532649 -17.89649568 27.63376900     6    642    0    0    0
C -79.56262992 -15.35790484 30.67360603     2    642   646   647   648
H -79.47499089 -16.75635425 32.15500994     6    645    0    0    0
H -78.88549232 -13.56043713 31.53336980     6    645    0    0    0
C -82.30860842 -15.23915636 29.83843170     2    645   649   650   651
H -82.81961656 -17.05485601 28.92184775     6    648    0    0    0
H -83.57962776 -15.22234980 31.56694487     6    648    0    0    0
C -82.63522763 -13.02700978 28.02747003     2    648   652   653   654
H -81.91785806 -11.26829148 28.81936129     6    651    0    0    0
H -81.61629196 -13.31529088 26.27657523     6    651    0    0    0
C -85.49300053 -12.31796335 27.11268503     1    651   655   656   657
H -86.48368294 -11.74621564 28.81831592     6    654    0    0    0
H -86.53614519 -13.91226747 26.26262395     6    654    0    0    0
H -85.56401453 -10.88369573 25.57677779     6    654    0    0    0
H -72.99881817 -18.53105876 6.22170819     6     659    0    0    0 
C -73.26964573 -18.97667662 4.30099989     1     658    660    661    662
H -72.01738205 -20.50368781 3.59259956     6     659    0    0    0
H -75.13701196 -19.82748832 4.09648556     6     659    0    0    0
C -73.08835825 -16.74110385 2.40713334     2     659    663    664    665
H -72.41244401 -17.43724168 0.52460677     6     662    0    0    0
H -74.96385000 -15.88103493 2.31463702     6     662    0    0    0
C -71.38246459 -14.50064425 3.40803736     2     662    666   667   668
H -71.88870143 -12.80293488 2.34642866     6     665    0    0    0
H -71.87316563 -14.12707407 5.40064374     6     665    0    0    0
C -68.57066057 -15.14771305 3.30170800     2     665   669   670   671
H -68.14644057 -16.15321739 5.10434738     6    668    0    0    0
H -68.13972197 -16.46360813 1.73036935     6    668    0    0    0
C -66.85673043 -12.81328750 3.14376865     2    668   672   673   674
H -67.17694279 -11.70933193 1.41443798     6    671    0    0    0
H -67.37980484 -11.51709795 4.56588112     6    671    0    0    0
C -64.06386957 -13.55643659 3.66546003     2    671   675   676   677
H -64.11193904 -14.66548900 5.42308031     6    674    0    0    0
H -63.29839281 -14.90683282 2.25492312     6    674    0    0    0
C -62.32879848 -11.31063682 4.02743044     2    674   678   679   680
H -62.36330311 -9.89808624 2.55983382     6    677    0    0    0
H -62.79456882 -10.15466042 5.77133224     6    677    0    0    0
C -59.65254348 -12.24156555 4.04285734     2    677   681   682   683
H -59.32873125 -13.39102275 5.77218968     6    680    0    0    0
H -59.30406272 -13.37467525 2.37616802     6    680    0    0    0
C -57.66465374 -10.09621114 4.08911506     2    680   684   685   686
H -58.44251204 -8.56332187 3.10732634     6    683    0    0    0
H -56.94925774 -9.54544098 5.92383581     6    683    0    0    0
C -55.35148634 -10.69842652 2.46054283     2    683   687   688   689
H -54.42714314 -12.29979489 3.41249009     6    686    0    0    0
H -56.15299983 -10.92907078 0.47214598     6    686    0    0    0
C -53.35943438 -8.58653876 2.35326104     2    686   690   691   692
H -54.04223884 -6.73190073 1.75459962     6    689    0    0    0
H -52.53590310 -8.35304419 4.26937261     6    689    0    0    0
C -51.23655762 -9.19864569 0.55703141     1    689   693   694   695
H -49.61414824 -8.04239835 0.13108762     6    692    0    0    0
H -52.02248583 -9.46338138 -1.33924560     6    692    0    0    0
H -50.39359822 -11.03593328 1.02250514     6    692    0    0    0
H -42.22976639 -23.74649760 9.18082075     6     697    0    0    0 
C -42.07760430 -23.37760201 11.20150292     1     696    698    699    700
H -40.78270550 -21.80958264 11.38187863     6     697    0    0    0
H -43.92053262 -22.71025073 11.82893460     6     697    0    0    0
C -41.11820867 -25.71772831 12.65675245     2     697    701    702    703
H -41.35686543 -25.26736829 14.76413879     6     700    0    0    0
H -42.42844747 -27.36332851 12.38935482     6     700    0    0    0
C -38.41114393 -26.84444709 11.96811063     2     700    704   705   706
H -37.39054536 -25.30170595 11.00356968     6     703    0    0    0
H -37.44819919 -27.06179550 13.67548716     6     703    0    0    0
C -38.47207439 -29.37313376 10.53975234     2     703   707   708   709
H -36.55293377 -30.05021956 10.32550431     6    706    0    0    0
H -39.46064065 -30.84982636 11.60580511     6    706    0    0    0
C -39.64221091 -28.99863531 7.84101659     2    706   710   711   712
H -41.53679894 -28.36018527 8.13103650     6    709    0    0    0
H -38.69152423 -27.54537875 6.64753350     6    709    0    0    0
C -39.96680547 -31.41875111 6.24859727     2    709   713   714   715
H -40.46504977 -33.01505739 7.49241918     6    712    0    0    0
H -41.59638063 -30.99898810 5.01414083     6    712    0    0    0
C -37.69105891 -31.83504435 4.52754595     2    712   716   717   718
H -37.65528733 -30.38432956 3.02542201     6    715    0    0    0
H -36.01686486 -31.39315866 5.54691781     6    715    0    0    0
C -37.23693423 -34.38833227 3.31197039     2    715   719   720   721
H -36.34175795 -35.84007338 4.56602251     6    718    0    0    0
H -39.15138012 -35.05711996 2.78543744     6    718    0    0    0
C -35.85273447 -34.15210099 0.81648707     2    718   722   723   724
H -36.28285433 -32.32422474 -0.19882727     6    721    0    0    0
H -33.89756058 -34.02923648 1.32289927     6    721    0    0    0
C -36.09060112 -36.34685274 -1.09159134     2    721   725   726   727
H -35.68546059 -38.01429442 0.15262830     6    724    0    0    0
H -38.01820945 -36.67833533 -1.64479746     6    724    0    0    0
C -34.16852558 -36.45052168 -3.43993177     2    724   728   729   730
H -32.38914909 -35.39797144 -2.73052237     6    727    0    0    0
H -33.70319401 -38.38248186 -3.76230048     6    727    0    0    0
C -35.21760510 -35.31638742 -5.86259677     1    727   731   732   733
H -33.97131100 -35.79611374 -7.36275483     6    730    0    0    0
H -35.02256534 -33.30261193 -6.01265148     6    730    0    0    0
H -37.15620116 -36.01876567 -6.37777068     6    730    0    0    0
H -57.07103530 -31.23443312 -17.73963515     6     735    0    0    0 
C -58.24402762 -31.08973545 -19.40791310     1     734    736    737    738
H -58.09151354 -29.12194912 -19.96662265     6     735    0    0    0
H -57.42286911 -32.13214143 -20.91923873     6     735    0    0    0
C -61.01716695 -31.48980787 -18.90924803     2     735    739    740    741
H -61.50610528 -30.39956600 -17.24473511     6     738    0    0    0
H -62.11039794 -30.45554911 -20.08345548     6     738    0    0    0
C -61.61699471 -34.09807220 -18.44269868     2     738    742   743   744
H -60.94187311 -35.18164089 -20.02143944     6     741    0    0    0
H -60.67528110 -34.41136563 -16.73600885     6     741    0    0    0
C -64.46298665 -34.27601478 -17.91451257     2     741   745   746   747
H -65.05986608 -32.81463660 -16.59543519     6    744    0    0    0
H -65.56451512 -34.07192765 -19.67971205     6    744    0    0    0
C -65.23408691 -36.68547468 -16.57986638     2    744   748   749   750
H -63.91707233 -37.01324494 -14.96643825     6    747    0    0    0
H -67.07835796 -36.39252327 -15.54092810     6    747    0    0    0
C -65.38769266 -38.85708624 -18.39855910     2    747   751   752   753
H -65.93767895 -38.17760970 -20.25484294     6    750    0    0    0
H -63.52941784 -39.37019308 -18.71455260     6    750    0    0    0
C -67.33320377 -40.81670434 -17.52184997     2    750   754   755   756
H -69.03913608 -39.92846030 -17.45785952     6    753    0    0    0
H -67.36974621 -42.46422589 -18.88212388     6    753    0    0    0
C -66.76569494 -42.07544068 -15.00617715     2    753   757   758   759
H -65.28646387 -43.50936599 -15.26586313     6    756    0    0    0
H -66.29913148 -40.67451940 -13.59057506     6    756    0    0    0
C -69.06878806 -43.69305806 -14.26743418     2    756   760   761   762
H -70.37779126 -42.31651347 -13.21687555     6    759    0    0    0
H -70.08541965 -44.44112532 -15.93930887     6    759    0    0    0
C -68.76909643 -45.94100243 -12.52652804     2    759   763   764   765
H -67.21840961 -46.90305018 -13.40968604     6    762    0    0    0
H -68.07110031 -45.03213045 -10.82602182     6    762    0    0    0
C -71.20195577 -47.35138091 -12.07249987     2    762   766   767   768
H -72.71545513 -45.96581539 -11.82492314     6    765    0    0    0
H -71.66755933 -48.63930854 -13.67185112     6    765    0    0    0
C -71.22913956 -48.99156267 -9.57049933     1    765   769   770   771
H -69.55810310 -50.16910813 -9.49949577     6    768    0    0    0
H -73.01451819 -50.05195298 -9.33362997     6    768    0    0    0
H -70.73661290 -47.89492810 -7.86569130     6    768    0    0    0
H -71.83192539 -29.39553633 34.65384817     6     773    0    0    0 
C -71.99773348 -30.91865028 35.95784093     1     772    774    775    776
H -71.42802132 -30.37262518 37.71938011     6     773    0    0    0
H -74.05211214 -31.22020735 36.18240318     6     773    0    0    0
C -70.67707799 -33.28148195 35.16231047     2     773    777    778    779
H -70.42935265 -34.49196826 36.71265607     6     776    0    0    0
H -71.79134958 -34.14525603 33.62908643     6     776    0    0    0
C -67.92193897 -33.02402155 34.10370179     2     776    780   781   782
H -67.79129589 -31.51555534 32.72951094     6     779    0    0    0
H -66.45319631 -32.30158958 35.49547357     6     779    0    0    0
C -67.01081122 -35.42525879 32.86311972     2     779   783   784   785
H -67.39577401 -36.95691485 34.18775484     6    782    0    0    0
H -67.85420016 -35.92497568 31.01520362     6    782    0    0    0
C -64.21772461 -35.56588639 32.51485346     2    782   786   787   788
H -63.41493797 -33.99873211 31.36558021     6    785    0    0    0
H -63.18320293 -35.44371823 34.37713414     6    785    0    0    0
C -63.52078816 -38.16568132 31.50507544     2    785   789   790   791
H -64.36214101 -39.54478688 32.94641384     6    788    0    0    0
H -64.46597665 -38.63734040 29.76588813     6    788    0    0    0
C -60.65968969 -38.54051870 31.14167550     2    788   792   793   794
H -60.05947206 -36.99052682 30.02897138     6    791    0    0    0
H -59.93818136 -38.54087956 33.04402905     6    791    0    0    0
C -60.13644629 -40.98661644 29.87569843     2    791   795   796   797
H -61.08050408 -42.56736483 31.04259607     6    794    0    0    0
H -61.20208192 -40.82855801 28.16037120     6    794    0    0    0
C -57.32933722 -41.33955033 29.49799221     2    794   798   799   800
H -56.40508069 -39.85421061 28.31748825     6    797    0    0    0
H -56.48568981 -41.18886872 31.38210473     6    797    0    0    0
C -56.68484189 -43.94915480 28.62416990     2    797   801   802   803
H -57.32436427 -45.17913794 29.88089763     6    800    0    0    0
H -57.53853019 -44.39732066 26.79165260     6    800    0    0    0
C -53.84680511 -44.51305987 28.41811405     2    800   804   805   806
H -52.81350013 -43.25084611 27.11832145     6    803    0    0    0
H -52.75687820 -44.27347208 30.20570564     6    803    0    0    0
C -53.31315144 -47.19851111 27.32182574     1    803   807   808   809
H -51.41049253 -47.73583833 27.12973578     6    806    0    0    0
H -54.05219672 -47.41712128 25.39155425     6    806    0    0    0
H -54.32018865 -48.56214422 28.54640093     6    806    0    0    0
H -75.89266619 -23.95164361 -1.41555893     6     811    0    0    0 
C -77.29460218 -22.79553921 -0.54051259     1     810    812    813    814
H -76.59009182 -20.79253179 -0.50887818     6     811    0    0    0
H -78.89340617 -22.85334065 -1.95987687     6     811    0    0    0
C -78.12858985 -23.55559149 2.19515809     2     811    815    816    817
H -76.53777810 -23.49429978 3.53694330     6     814    0    0    0
H -79.47059622 -22.21090631 3.10251411     6     814    0    0    0
C -79.54641432 -26.19816806 2.32306511     2     814    818   819   820
H -81.24684331 -26.05991451 1.14097730     6     817    0    0    0
H -78.21028896 -27.69891190 1.41234002     6     817    0    0    0
C -80.33061170 -27.18980057 4.98806407     2     817   821   822   823
H -78.77181499 -27.03653121 6.29721314     6    820    0    0    0
H -81.91971705 -25.99518735 5.88140221     6    820    0    0    0
C -81.49733612 -29.85857743 4.93466742     2    820   824   825   826
H -83.15971985 -30.03296024 3.76149880     6    823    0    0    0
H -80.13769533 -31.17370862 4.18182481     6    823    0    0    0
C -82.13321550 -30.52206176 7.63477209     2    823   827   828   829
H -80.42791161 -30.75234606 8.69934016     6    826    0    0    0
H -83.62755760 -29.22926750 8.36074633     6    826    0    0    0
C -83.22249021 -33.18073058 7.83652763     2    826   830   831   832
H -84.74789998 -33.20972967 6.45936650     6    829    0    0    0
H -81.88304668 -34.54891502 7.24984893     6    829    0    0    0
C -84.02687838 -34.03408218 10.49523888     2    829   833   834   835
H -82.49892839 -34.33596281 11.78679128     6    832    0    0    0
H -85.11601949 -32.45379436 11.15213694     6    832    0    0    0
C -85.61345233 -36.45108992 10.27159787     2    832   836   837   838
H -86.83783691 -36.20665310 8.63183141     6    835    0    0    0
H -84.43275493 -38.04580965 9.78901049     6    835    0    0    0
C -87.07614658 -36.99939052 12.72813345     2    835   839   840   841
H -85.63256372 -37.33105077 14.10997949     6    838    0    0    0
H -88.34717082 -35.55874761 13.41456302     6    838    0    0    0
C -88.80957218 -39.21335649 12.39629226     2    838   842   843   844
H -89.98208359 -38.95580138 10.69969560     6    841    0    0    0
H -87.61948754 -40.94201031 12.13801557     6    841    0    0    0
C -90.63720452 -39.84727904 14.44639248     1    841   845   846   847
H -89.87090821 -40.10762713 16.36729806     6    844    0    0    0
H -91.57783905 -41.61595188 13.96016980     6    844    0    0    0
H -91.99107143 -38.26786246 14.51831826     6    844    0    0    0
H -52.22526808 -1.22798018 8.27692900     6     849    0    0    0 
C -53.14817223 -1.21053675 10.07034189     1     848    850    851    852
H -51.67815852 -1.88426589 11.37720232     6     849    0    0    0
H -53.88447586 0.70004075 10.43126093     6     849    0    0    0
C -55.47453264 -2.91450653 10.25563528     2     849    853    854    855
H -54.75521150 -4.84642089 10.37541004     6     852    0    0    0
H -56.65895817 -2.67572869 12.01563758     6     852    0    0    0
C -57.16049089 -2.49997046 7.99261507     2     852    856   857   858
H -57.75157764 -0.48988690 8.10177247     6     855    0    0    0
H -56.12932811 -2.84436222 6.20198402     6     855    0    0    0
C -59.70496120 -3.97316924 7.97311668     2     855   859   860   861
H -59.42571283 -6.00924161 8.01055661     6    858    0    0    0
H -60.52674405 -3.87148282 9.82055209     6    858    0    0    0
C -61.44355733 -2.95476671 5.80193918     2    858   862   863   864
H -62.00403960 -1.12387018 6.50002836     6    861    0    0    0
H -60.59149572 -2.59367756 3.94283786     6    861    0    0    0
C -63.94308299 -4.32707080 5.48196594     2    861   865   866   867
H -63.46700047 -5.79489569 4.12059984     6    864    0    0    0
H -64.93047006 -5.25853793 7.07478735     6    864    0    0    0
C -66.01611279 -2.81080078 4.22121788     2    864   868   869   870
H -66.78463182 -1.16284394 5.24295137     6    867    0    0    0
H -65.37902306 -1.73074969 2.55710482     6    867    0    0    0
C -68.20897943 -4.53126345 3.70956325     2    867   871   872   873
H -67.36929447 -5.94374575 2.38313534     6    870    0    0    0
H -68.83076103 -5.48415268 5.48958180     6    870    0    0    0
C -70.55913832 -3.17030951 2.57704209     2    870   874   875   876
H -72.26703537 -4.02135268 3.32894375     6    873    0    0    0
H -70.59168338 -1.08829276 2.99398088     6    873    0    0    0
C -70.56114017 -3.64938927 -0.25175737     2    873   877   878   879
H -68.72709277 -3.05875582 -1.12131476     6    876    0    0    0
H -70.91714425 -5.63109497 -0.49494915     6    876    0    0    0
C -72.63996990 -2.15812348 -1.75748066     2    876   880   881   882
H -74.51698251 -2.55646897 -1.07289870     6    879    0    0    0
H -72.27290976 -0.15827513 -1.36249317     6    879    0    0    0
C -72.58816930 -2.91855064 -4.58096714     1    879   883   884   885
H -73.80428946 -1.56141339 -5.76005172     6    882    0    0    0
H -73.33326767 -4.93121119 -4.88867840     6    882    0    0    0
H -70.72512861 -2.89265915 -5.31481849     6    882    0    0    0
H -77.15528200 -33.11963847 10.64602520     6     887    0    0    0 
C -76.03510255 -32.14688210 12.10410771     1     886    888    889    890
H -76.91120513 -30.40924874 12.87635848     6     887    0    0    0
H -75.79248973 -33.33168860 13.77003502     6     887    0    0    0
C -73.49378601 -31.29911211 11.11445411     2     887    891    892    893
H -72.81556692 -29.93374865 12.53439522     6     890    0    0    0
H -72.00245900 -32.74844407 10.74160054     6     890    0    0    0
C -74.03550706 -30.16001323 8.56142615     2     890    894   895   896
H -74.92307076 -31.56200977 7.28902551     6     893    0    0    0
H -75.35671878 -28.60733682 8.95684585     6     893    0    0    0
C -71.81176124 -28.82334576 7.43868848     2     893   897   898   899
H -70.94682879 -27.48888703 8.67454136     6    896    0    0    0
H -70.41576640 -30.18927976 6.98089805     6    896    0    0    0
C -72.46861074 -27.55423827 4.86965500     2    896   900   901   902
H -73.37700780 -28.98087090 3.68931693     6    899    0    0    0
H -73.69476227 -25.85301112 4.99436857     6    899    0    0    0
C -70.25901648 -26.57271071 3.57286353     2    899   903   904   905
H -69.13025261 -25.16463975 4.72348770     6    902    0    0    0
H -68.74072467 -28.02622164 3.13732315     6    902    0    0    0
C -70.84913231 -25.24727660 0.93267833     2    902   906   907   908
H -71.49311705 -26.68400999 -0.42507598     6    905    0    0    0
H -72.30128252 -24.14666223 1.30473134     6    905    0    0    0
C -68.68283149 -23.91563199 -0.02187177     2    905   909   910   911
H -68.55177935 -22.29812482 1.17867515     6    908    0    0    0
H -66.92353691 -24.85640212 0.27439813     6    908    0    0    0
C -68.90567336 -22.99580313 -2.90598319     2    908   912   913   914
H -68.98406655 -24.80889220 -3.96565000     6    911    0    0    0
H -70.55791225 -22.07266156 -3.29372730     6    911    0    0    0
C -66.55515177 -21.56977763 -3.89357616     2    911   915   916   917
H -66.12666169 -19.93808196 -2.79927721     6    914    0    0    0
H -64.97016241 -22.80866700 -3.82597304     6    914    0    0    0
C -66.93493537 -20.99870095 -6.71245465     2    914   918   919   920
H -66.66426102 -22.67609004 -7.81359591     6    917    0    0    0
H -68.85909253 -20.39499995 -7.06428404     6    917    0    0    0
C -65.03776724 -19.01300650 -7.69176532     1    917   921   922   923
H -63.05854924 -19.74948672 -7.51623969     6    920    0    0    0
H -65.21515661 -17.24619595 -6.56820695     6    920    0    0    0
H -65.38766195 -18.40693514 -9.76215780     6    920    0    0    0
H -70.95362150 -4.57213929 11.71584235     6     925    0    0    0 
C -72.63730575 -4.92707790 12.90255607     1     924    926    927    928
H -72.08926627 -5.78780802 14.72281999     6     925    0    0    0
H -73.53690815 -3.03873650 13.29097366     6     925    0    0    0
C -74.62549825 -6.54192682 11.60936032     2     925    929    930    931
H -74.09983293 -8.40890206 11.99401615     6     928    0    0    0
H -76.55930503 -6.30865655 12.37640267     6     928    0    0    0
C -74.76472216 -6.33024784 8.65995456     2     928    932   933   934
H -75.80051806 -4.52715770 8.39221262     6     931    0    0    0
H -72.83816683 -6.29060996 8.04768998     6     931    0    0    0
C -75.85203105 -8.74536715 7.42822042     2     931   935   936   937
H -75.04130007 -10.41642409 8.08890067     6    934    0    0    0
H -77.78873436 -8.94041378 8.08515387     6    934    0    0    0
C -75.67795903 -8.79195640 4.48944438     2    934   938   939   940
H -76.36141280 -7.09105187 3.76632236     6    937    0    0    0
H -73.76045085 -8.89492646 3.91937760     6    937    0    0    0
C -77.23835254 -11.12290526 3.42389868     2    937   941   942   943
H -76.44485433 -12.90472642 4.35418090     6    940    0    0    0
H -79.14960794 -11.10073853 4.02681868     6    940    0    0    0
C -77.16336064 -11.14942509 0.58821607     2    940   944   945   946
H -75.38182305 -10.87878887 -0.41956907     6    943    0    0    0
H -77.79107908 -13.18827169 0.27368304     6    943    0    0    0
C -79.22578016 -9.57152962 -0.56575800     2    943   947   948   949
H -81.06001205 -9.94687691 0.24560392     6    946    0    0    0
H -78.90908689 -7.48903181 -0.17781159     6    946    0    0    0
C -79.44036668 -10.11271082 -3.31082867     2    946   950   951   952
H -77.83064624 -9.44927531 -4.22429244     6    949    0    0    0
H -79.57637335 -12.16552516 -3.71674081     6    949    0    0    0
C -81.63059343 -8.96616055 -4.78051725     2    949   953   954   955
H -83.29854725 -9.00859829 -3.54627866     6    952    0    0    0
H -81.21545285 -7.03460617 -5.15318908     6    952    0    0    0
C -82.69047104 -10.30021028 -7.13316824     2    952   956   957   958
H -81.29706245 -10.06650018 -8.68340352     6    955    0    0    0
H -83.17916725 -12.26312890 -6.80185120     6    955    0    0    0
C -85.07049565 -9.17285737 -7.91385792     1    955   959   960   961
H -86.00117579 -10.15272396 -9.52685409     6    958    0    0    0
H -84.79869749 -7.20103870 -8.51668341     6    958    0    0    0
H -86.35301700 -9.17027424 -6.41763696     6    958    0    0    0
H -62.34074162 -43.58185080 0.47066000     6     963    0    0    0 
C -62.79659563 -42.01054604 1.71293589     1     962    964    965    966
H -62.26572230 -40.12790124 1.02854404     6     963    0    0    0
H -64.88514432 -41.94480447 1.97831582     6     963    0    0    0
C -61.48821252 -42.44666603 4.25799515     2     963    967    968    969
H -62.50973244 -41.42533367 5.84725376     6     966    0    0    0
H -61.79015049 -44.39657729 5.11077428     6     966    0    0    0
C -58.58260034 -41.86692262 4.22037293     2     966    970   971   972
H -57.72647545 -43.01093428 2.76284561     6     969    0    0    0
H -58.51010348 -39.82776075 3.67459917     6     969    0    0    0
C -57.42471353 -42.24739889 6.73229073     2     969   973   974   975
H -58.34055108 -41.13399481 8.16409087     6    972    0    0    0
H -57.59961034 -44.20045569 7.19697813     6    972    0    0    0
C -54.61542687 -41.57598331 6.60617010     2    972   976   977   978
H -53.92119568 -42.66899516 5.02050299     6    975    0    0    0
H -54.76312652 -39.62265083 6.01857430     6    975    0    0    0
C -53.27604958 -42.01308890 9.09993960     2    975   979   980   981
H -54.24617509 -40.96580919 10.65942344     6    978    0    0    0
H -53.70864058 -43.97629115 9.53587616     6    978    0    0    0
C -50.39302263 -41.84095917 8.85527574     2    978   982   983   984
H -49.69055847 -43.26069989 7.55419078     6    981    0    0    0
H -50.06055999 -40.12094875 7.86186271     6    981    0    0    0
C -49.18657152 -41.84682420 11.47023751     2    981   985   986   987
H -49.63103956 -39.98589367 12.24229112     6    984    0    0    0
H -50.01930841 -43.34433185 12.58374547     6    984    0    0    0
C -46.48194091 -41.97397053 11.70151051     2    984   988   989   990
H -45.82357958 -42.17612580 13.58246917     6    987    0    0    0
H -45.75352537 -43.84496722 10.99687084     6    987    0    0    0
C -44.81157065 -39.96949251 10.21589560     2    987   991   992   993
H -45.23939234 -40.33275335 8.28185595     6    990    0    0    0
H -45.55976809 -38.16728456 10.68314008     6    990    0    0    0
C -42.03493322 -40.11024149 10.73934980     2    990   994   995   996
H -41.66388090 -39.88766270 12.73161779     6    993    0    0    0
H -41.40214488 -42.06895633 10.42864065     6    993    0    0    0
C -40.48265815 -38.37288580 9.02374083     1    993   997   998   999
H -40.80912638 -38.85345873 6.96903344     6    996    0    0    0
H -38.40839443 -38.58334014 9.21940052     6    996    0    0    0
H -40.96983917 -36.39264908 9.51834595     6    996    0    0    0
H -78.09500112 -56.04394763 1.06035929     6     1001    0    0    0 
C -76.92989334 -54.79263679 -0.15955249     1     1000    1002    1003    1004
H -77.34226880 -55.21455815 -2.09117400     6     1001    0    0    0
H -77.44653464 -52.80542156 0.00904984     6     1001    0    0    0
C -74.09797535 -55.05924348 0.19239813     2     1001    1005    1006    1007
H -73.63513053 -54.09924673 1.84194058     6     1004    0    0    0
H -73.45519175 -57.11869581 0.00103402     6     1004    0    0    0
C -72.62323900 -53.36056076 -1.64003974     2     1004    1008   1009   1010
H -73.26123631 -53.92744641 -3.53227464     6     1007    0    0    0
H -73.24909566 -51.48240091 -1.43431913     6     1007    0    0    0
C -69.79971293 -53.62969677 -1.65537206     2     1007   1011   1012   1013
H -68.86154855 -53.40831998 0.09397888     6    1010    0    0    0
H -69.13377668 -55.40165807 -2.42790453     6    1010    0    0    0
C -68.80563139 -51.48608687 -3.31377219     2    1010   1014   1015   1016
H -69.58041248 -51.51147109 -5.17740318     6    1013    0    0    0
H -69.08571466 -49.60009220 -2.41737524     6    1013    0    0    0
C -65.98058622 -51.68482908 -3.61916483     2    1013   1017   1018   1019
H -65.34382145 -51.56294791 -1.74754848     6    1016    0    0    0
H -65.56757750 -53.49511633 -4.45464748     6    1016    0    0    0
C -64.93242165 -49.30806344 -4.90863627     2    1016   1020   1021   1022
H -65.94369448 -48.61989960 -6.57628633     6    1019    0    0    0
H -64.97638762 -47.85246707 -3.54370689     6    1019    0    0    0
C -62.19879636 -49.90330455 -5.53978687     2    1019   1023   1024   1025
H -61.46700698 -50.85767457 -3.79504786     6    1022    0    0    0
H -62.33863166 -51.38635038 -6.97865269     6    1022    0    0    0
C -60.49594356 -47.98333645 -6.67822846     2    1022   1026   1027   1028
H -61.50877601 -47.02072479 -8.14709585     6    1025    0    0    0
H -59.87265979 -46.61993549 -5.26467936     6    1025    0    0    0
C -58.07045386 -49.43448726 -7.86955751     2    1025   1029   1030   1031
H -56.71374418 -49.57798694 -6.18408225     6    1028    0    0    0
H -58.59023456 -51.34638417 -8.62951997     6    1028    0    0    0
C -56.78772640 -48.04762298 -10.16475697     2    1028   1032   1033   1034
H -58.23725657 -47.99873210 -11.82973643     6    1031    0    0    0
H -56.53955272 -46.13950650 -9.65341046     6    1031    0    0    0
C -54.34029420 -49.40642273 -11.08235278     1    1031   1035   1036   1037
H -53.13365392 -49.65896582 -9.40043143     6    1034    0    0    0
H -53.04836961 -48.27641847 -12.29591442     6    1034    0    0    0
H -54.77879928 -51.30573537 -11.73024735     6    1034    0    0    0
H -69.40605154 -28.96107559 29.72431010     6     1039    0    0    0 
C -70.67159024 -30.18512931 28.68707483     1     1038    1040    1041    1042
H -70.17687029 -30.10804406 26.70277311     6     1039    0    0    0
H -70.40822442 -32.26367945 29.06397465     6     1039    0    0    0
C -73.33775388 -29.10643466 29.10839432     2     1039    1043    1044    1045
H -73.54033270 -28.92194984 31.13831032     6     1042    0    0    0
H -73.22475421 -27.05869486 28.72477767     6     1042    0    0    0
C -75.56550039 -30.22118020 27.71619235     2     1042    1046   1047   1048
H -75.42382189 -30.36228128 25.69522274     6     1045    0    0    0
H -75.84694986 -32.02273533 28.48982808     6     1045    0    0    0
C -78.02571609 -28.97742299 28.56448841     2     1045   1049   1050   1051
H -78.74517940 -29.60684915 30.41818446     6    1048    0    0    0
H -77.96518092 -26.94196624 28.66551137     6    1048    0    0    0
C -80.31131749 -29.69151803 26.81969413     2    1048   1052   1053   1054
H -79.85298263 -28.81904648 24.92992746     6    1051    0    0    0
H -80.26638101 -31.77055290 26.22576574     6    1051    0    0    0
C -82.77237906 -28.64386249 27.81758286     2    1051   1055   1056   1057
H -83.40798222 -29.32965817 29.72780085     6    1054    0    0    0
H -82.43765747 -26.59643741 27.91729108     6    1054    0    0    0
C -84.88018547 -28.73901946 25.69617544     2    1054   1058   1059   1060
H -83.92593579 -28.65855012 23.89750997     6    1057    0    0    0
H -85.86281507 -30.54874791 25.88187734     6    1057    0    0    0
C -86.74888293 -26.58404442 26.18335052     2    1057   1061   1062   1063
H -88.08655115 -27.35898306 27.47167389     6    1060    0    0    0
H -85.99202856 -24.96135977 27.06866651     6    1060    0    0    0
C -87.95488726 -25.93038670 23.69862459     2    1060   1064   1065   1066
H -86.53690087 -25.40695998 22.35740413     6    1063    0    0    0
H -88.85285925 -27.52186424 22.98634574     6    1063    0    0    0
C -89.96642394 -23.79614158 23.59591036     2    1063   1067   1068   1069
H -91.36269224 -23.74432698 25.16104073     6    1066    0    0    0
H -89.09376567 -22.04589489 23.95224297     6    1066    0    0    0
C -91.61072106 -23.56295445 21.16174002     2    1066   1070   1071   1072
H -90.42627953 -23.46331548 19.41814108     6    1069    0    0    0
H -92.34534288 -25.59301549 21.15153079     6    1069    0    0    0
C -93.84479213 -21.74693710 21.10315981     1    1069   1073   1074   1075
H -94.91763670 -22.32556492 19.47700012     6    1072    0    0    0
H -93.19544014 -19.76973265 20.93923496     6    1072    0    0    0
[...]
 1619      H     -67.9284024400   -39.2359598200    38.6457987200
 1620      H     -65.8674285300   -37.0192041300    40.2099940800
 1621      C     -65.0612743400   -41.0709043200    40.5999836000
 1622      H     -64.2196057300   -40.6368746800    42.4936007600
 1623      H     -65.9067524300   -42.8860898200    40.2331425400
 1624      C     -63.1057270600   -40.8656459100    38.4586641000
 1625      H     -63.9443638000   -41.4507033700    36.6052277200
 1626      H     -62.3802726700   -38.9174951600    38.4819389400
 1627      C     -61.0908895600   -42.8657162500    38.9643841800
 1628      H     -60.3185729700   -42.2373643300    40.9091701500
 1629      H     -62.0256112100   -44.7615790900    39.0678700900
 1630      C     -59.0022254100   -42.8519731500    36.9348076000
 1631      H     -59.3317255500   -43.9083666600    35.2381521800
 1632      H     -58.5900687400   -40.9389222000    36.2429879700
 1633      C     -56.6169514500   -44.0742454400    37.8681408300
 1634      H     -55.6431493800   -42.6351897300    38.9937322800
 1635      H     -56.7419954900   -45.8196109700    38.9968317800
 1636      C     -54.8000086000   -44.9242894000    35.7177739900
 1637      H     -55.8696023400   -45.6506434500    34.1949937000
 1638      H     -53.8839283200   -43.4241493100    34.8309389500
 1639      C     -53.0417792300   -46.8990326700    36.7808226900
 1640      H     -52.3502898400   -46.3635283900    38.5349454000
 1641      H     -54.1145995100   -48.6567241600    36.9678213700
 1642      C     -51.0966632000   -47.5080508300    34.7540944000
 1643      H     -52.1409020500   -48.5000035800    33.2038474900
 1644      H     -49.9020846200   -49.0005552200    35.3760182100
 1645      H     -50.0063886300   -45.9658573000    33.7696938700
 1646      H     -74.3395788900   -53.3935479700    19.2511843800
 1647      C     -75.1163693600   -53.0271782800    21.1799164100
 1648      H     -75.7807748300   -50.9560216100    21.0400845800
 1649      H     -76.7567357900   -54.1995781800    21.7402914400
 1650      C     -72.9558166400   -53.4932550200    22.9752587500
 1651      H     -73.2808621000   -52.4806936900    24.7458442400
 1652      H     -72.8316325000   -55.5254994300    23.4141533800
 1653      C     -70.4250254200   -52.4909995100    22.0528912700
 1654      H     -69.8031379100   -53.5453778200    20.5632498300
 1655      H     -70.7811297600   -50.5326840300    21.4924825200
 1656      C     -68.5889152000   -52.2458442300    24.3217122200
 1657      H     -69.0987056100   -50.5320225900    25.4391898600
 1658      H     -68.6941337600   -53.8587825600    25.5806172300
 1659      C     -65.8602340600   -52.0228003900    23.2382108200
 1660      H     -65.3274809500   -53.9004718900    22.3004100600
 1661      H     -65.7519459900   -50.7375776100    21.6619249300
 1662      C     -63.8869455500   -51.4586451000    25.3409279100
 1663      H     -63.9890070000   -49.4602360400    25.7628566500
 1664      H     -64.6377522000   -52.4163948300    27.0387756400
 1665      C     -61.0203137300   -52.1340819000    24.9164320000
 1666      H     -60.9836081900   -54.0152341600    24.0650854400
 1667      H     -60.3185456100   -50.8168555300    23.5527400500
 1668      C     -59.5208141100   -52.2412759800    27.3949609000
 1669      H     -59.5673564100   -50.3505611200    28.2125977300
 1670      H     -60.6021784000   -53.6021940000    28.5388912000
 1671      C     -56.7697330700   -52.9999902800    26.9096528300
 1672      H     -56.6732554900   -54.9014478400    25.9156452000
 1673      H     -55.9311787600   -51.7287627500    25.6082798800
 1674      C     -55.0706596600   -53.3922599900    29.3271967300
 1675      H     -55.5515027000   -51.7587670600    30.3738315500
 1676      H     -55.8332690400   -54.9340294000    30.4572031900
 1677      C     -52.2381913600   -53.7651092000    28.6117456900
 1678      H     -52.3557123100   -55.7711243800    28.2368164700
 1679      H     -51.5333741100   -52.6347923700    27.0133868500
 1680      C     -50.4692347600   -53.3331178800    30.7971703400
 1681      H     -48.5758319600   -54.2167768500    30.4619585000
 1682      H     -51.1746641800   -54.0414175300    32.4890001600
 1683      H     -50.2159377100   -51.2399979700    30.8538939400
 1684      H     -74.4990010700   -50.5807949600     5.4645437800
 1685      C     -72.8376863700   -49.5792449000     4.9367265200
 1686      H     -71.3944558400   -50.7887562500     5.5929051100
 1687      H     -72.7778165700   -49.6015570800     2.8356797300
 1688      C     -72.4597353800   -46.8896377600     6.1157714100
 1689      H     -73.7673247100   -45.6769720200     5.1204849800
 1690      H     -73.2449123900   -46.8454087000     8.0489030300
 1691      C     -69.6514773400   -46.0897244400     6.0968369300
 1692      H     -68.5489247500   -47.3533821200     7.2283200900
 1693      H     -68.9683552500   -46.2681315500     4.1964529500
 1694      C     -69.3376162200   -43.4268922200     7.2511719700
 1695      H     -67.6172983300   -42.3285022800     6.7053042300
 1696      H     -70.7348911200   -42.2433542500     6.3316562400
 1697      C     -69.5911723200   -43.4023987000    10.2163478900
 1698      H     -71.0462153700   -44.7416115000    10.8163936100
 1699      H     -67.6970230700   -43.8082724800    11.0673874300
 1700      C     -70.2859129200   -40.7192320600    11.1592329700
 1701      H     -69.0814044900   -39.2613780900    10.3169178300
 1702      H     -72.1793337000   -40.1827122700    10.4058026800
 1703      C     -70.3448545500   -40.6648758800    14.1310529200
 1704      H     -71.7154407800   -41.9737681900    14.9334324000
 1705      H     -68.5054806300   -41.2563036200    14.7998221000
 1706      C     -70.8932316800   -37.8853455500    15.1133955200
 1707      H     -69.4845159700   -36.5240152900    14.5571553900
 1708      H     -72.5977368000   -37.2213923200    14.1913101800
 1709      C     -71.2350178600   -37.3879252000    17.9385525800
 1710      H     -72.5423928800   -38.8507132500    18.5456230500
 1711      H     -69.3626302200   -37.9731023700    18.7127931200
 1712      C     -72.2567507400   -34.7567610900    18.4553302400
 1713      H     -71.0421955600   -33.3755204700    17.7261412500
 1714      H     -74.0523755100   -34.3995567300    17.5619820000
 1715      C     -72.6063884300   -34.6122748800    21.3407190900
 1716      H     -73.4675422300   -32.9137345000    22.0271522500
 1717      H     -74.1882962500   -35.8160079000    22.0304657500
 1718      C     -70.2210917800   -34.9131518100    22.9409441700
 1719      H     -69.5590151000   -36.7929442300    22.7616334100
 1720      H     -70.6933849000   -34.4764228100    24.8921400200
 1721      H     -68.7157420000   -33.6004664600    22.5124904600
 1722      H     -46.9104675600   -48.8711933900    -5.1837295500
 1723      C     -48.4496191300   -49.4054838800    -4.1162673100
 1724      H     -50.1241716200   -49.3723198100    -5.2694140100
 1725      H     -48.0632820300   -51.3428672200    -3.5397308800
 1726      C     -49.0227781100   -47.6178346800    -1.9602881500
 1727      H     -50.4600723800   -48.2788832300    -0.7946247600
 1728      H     -47.4003490700   -47.2232773900    -0.7077461100
 1729      C     -49.8747913700   -45.1017412700    -2.9563986900
 1730      H     -48.3498572300   -44.2187509300    -4.1052252200
 1731      H     -51.3319879500   -45.3768914900    -4.4112844900
 1732      C     -50.9435084600   -43.2504256400    -0.9752091400
 1733      H     -52.3213548600   -44.3152336300     0.1101123400
 1734      H     -49.6268630000   -42.5315654900     0.3189566100
 1735      C     -51.8758570200   -40.8472183200    -2.1790102000
 1736      H     -50.3522515600   -39.5891279700    -2.9481461200
 1737      H     -53.2733657900   -41.1705678100    -3.6854702100
 1738      C     -53.4498713700   -39.0893009900    -0.4410291300
 1739      H     -54.9850780600   -40.1413174600     0.2927010800
 1740      H     -52.2874391100   -38.3389209700     1.0041090200
 1741      C     -54.5730646900   -36.8834442700    -2.0628007600
 1742      H     -52.9292179800   -35.8478096600    -2.7677580600
 1743      H     -55.4815353800   -37.6228771700    -3.6685107400
 1744      C     -56.1328381000   -35.1142150900    -0.5938348400
 1745      H     -57.1340113800   -36.4616114700     0.5057715200
 1746      H     -54.9420723200   -34.0420433800     0.6510825600
 1747      C     -57.6432469700   -33.4369925100    -2.3416057800
 1748      H     -56.3595258000   -32.4029915900    -3.6285959300
 1749      H     -58.6815508100   -34.6946310200    -3.5595450700
 1750      C     -59.8409128600   -31.9590365200    -0.9258821300
 1751      H     -61.4001644100   -33.1922918200    -0.1904437600
 1752      H     -59.1115394800   -31.1266009000     0.8784501600
 1753      C     -60.9505167500   -30.0219476600    -2.7742284700
 1754      H     -59.2736583800   -29.0711220600    -3.6091087900
 1755      H     -61.8756642300   -31.3268849300    -4.0282595600
 1756      C     -62.7880646700   -28.2308974200    -1.3436681000
 1757      H     -62.2334607900   -26.8295175200     0.0575624800
 1758      H     -64.2001456500   -29.3243359200    -0.2850378700
 1759      H     -63.7382721100   -27.1407548400    -2.8552889100
 1760      H     -50.6402933700   -25.3476158000   -10.4073324600
 1761      C     -49.6803518400   -26.4270453000   -11.7580207900
 1762      H     -51.0336103800   -27.4254347500   -12.8416055300
 1763      H     -48.5748675400   -25.1978275500   -13.0024835600
 1764      C     -47.4770862700   -28.0102582000   -10.7314504400
 1765      H     -45.7851274400   -26.8592788500   -10.5324925900
 1766      H     -48.2310541200   -28.5221058000    -8.8422035600
 1767      C     -46.9124832500   -30.5620721800   -12.2451283400
 1768      H     -48.7070630100   -31.3082897800   -13.1442947700
 1769      H     -46.0468952600   -30.0497129800   -14.0035350600
 1770      C     -45.7357772200   -32.7263134100   -10.7050431400
 1771      H     -44.4531733300   -32.0477711000    -9.2650856500
 1772      H     -46.9373995900   -33.5214364300    -9.3177646100
 1773      C     -44.3549994100   -34.8133713200   -12.1846733500
 1774      H     -45.4441024500   -35.5864050000   -13.6390841700
 1775      H     -42.7784447300   -33.8819632500   -13.2122718900
 1776      C     -43.5327710200   -37.1333967500   -10.4993331200
 1777      H     -42.7413104600   -36.4964984600    -8.7463789800
 1778      H     -45.2924242400   -38.1029966400   -10.2046852800
 1779      C     -41.7992879400   -39.0372209100   -11.9566995100
 1780      H     -42.1865602900   -39.3158007800   -14.0205346100
 1781      H     -39.9429906900   -38.2082729300   -11.8715359300
 1782      C     -41.4786923500   -41.5198930800   -10.6764018700
 1783      H     -43.2471324400   -42.2591446300   -10.1545198800
 1784      H     -40.6758280900   -42.8695057600   -12.0384610100
 1785      C     -39.5212467100   -41.4717981000    -8.5565694900
 1786      H     -37.6972164600   -40.7347128900    -9.2563355800
 1787      H     -40.2771758500   -40.1250060000    -7.1214413100
 1788      C     -39.4897634100   -44.0205270000    -7.1957732100
 1789      H     -41.4264379200   -44.5432514200    -6.4988040500
 1790      H     -38.9782309800   -45.4959525800    -8.6137635200
 1791      C     -37.3962402400   -44.1030253600    -5.1879748100
 1792      H     -35.6190685900   -44.1649605400    -6.3279014900
 1793      H     -37.2720068600   -42.2928095600    -4.2122615600
 1794      C     -37.6462023400   -46.3293131700    -3.3242647400
 1795      H     -37.9966677900   -48.1489925400    -4.1768716200
 1796      H     -38.7575995000   -45.8685955300    -1.7061065000
 1797      H     -35.8552538700   -46.7048693900    -2.4813124000
 1798      H     -62.8582719600   -12.8725173600    31.2738494800
 1799      C     -63.6352470100   -11.7250058000    29.9259878500
 1800      H     -64.7218457200   -10.2992740800    30.9383243900
 1801      H     -62.2011096500   -10.7060473000    28.8998925900
 1802      C     -65.1914945900   -13.4600585900    27.9859813200
 1803      H     -63.8954570600   -14.4004294700    26.6818798300
 1804      H     -66.2059049100   -15.0922290700    28.8533508400
 1805      C     -66.8473370200   -11.6479717400    26.3273993600
 1806      H     -68.5030668700   -11.0166762400    27.3250848000
 1807      H     -65.8445259400    -9.8286883100    26.3943280900
 1808      C     -67.0335366600   -12.3634291400    23.6590107000
 1809      H     -68.0128706800   -10.7912014100    22.7827126500
 1810      H     -65.1231932200   -12.2993679300    22.7572445400
 1811      C     -68.4553085800   -14.7818474900    23.2787481200
 1812      H     -67.1133456600   -16.3398762500    23.7761615300
 1813      H     -69.9277548700   -15.1088746800    24.6554172400
 1814      C     -69.1985257300   -15.2003948200    20.5872556600
 1815      H     -70.3701876200   -13.5657573100    19.8758851300
 1816      H     -67.6934388800   -15.2789346000    19.1917323700
 1817      C     -70.8213784100   -17.5658831500    20.2670236300
 1818      H     -69.9501320000   -19.2701902400    21.0671218500
 1819      H     -72.5566203600   -17.1720721400    21.2704248000
 1820      C     -71.3496127900   -18.1095182100    17.5259398900
 1821      H     -72.2226862000   -16.3041906400    16.6567316100
 1822      H     -69.7078768900   -18.5607686700    16.3060548300
 1823      C     -73.3917775600   -20.1576275200    17.0907415800
 1824      H     -72.9334030100   -21.8328093300    18.1910869300
 1825      H     -75.1215949000   -19.3659245600    18.1052319900
 1826      C     -73.5846731500   -20.7808919100    14.2231534100
 1827      H     -73.9090052000   -19.1892900500    13.0815858700
 1828      H     -71.9167434700   -21.8658510700    13.4055431700
 1829      C     -76.0148816200   -22.4801186500    13.7309996400
 1830      H     -76.0751647900   -24.1672073300    14.8922636100
 1831      H     -77.7205125000   -21.5559321500    14.3133837100
 1832      C     -76.2634624300   -23.2118766900    10.8719649300
 1833      H     -74.2592786800   -23.4867176700    10.0452294500
 1834      H     -77.0731865400   -21.6659192100     9.7438582200
 1835      H     -77.1218498500   -25.1494120900    10.6381689900
 1836      H     -67.0737970500   -25.0210868400     9.0920878500
 1837      C     -65.6242282300   -24.6992160800    10.5422160400
 1838      H     -66.5938999500   -25.4810810000    12.1081859000
 1839      H     -63.9444787800   -25.9088894600    10.0017677500
 1840      C     -64.7599027600   -21.8590815100    10.9528491400
 1841      H     -63.6935288900   -21.7463755300    12.6296015200
 1842      H     -63.4167603100   -21.3257346600     9.5365077500
 1843      C     -66.9007966100   -19.9524788900    11.0576818500
 1844      H     -67.7639008700   -20.2927309600     9.2483751400
 1845      H     -68.2678107400   -20.4745559800    12.5104980000
 1846      C     -66.0787138700   -17.1731432700    11.0569110200
 1847      H     -65.0848322100   -16.8608154900    12.7553276000
 1848      H     -64.8224759900   -16.9136210200     9.4330148900
 1849      C     -68.3978429900   -15.2997422800    10.8505662100
 1850      H     -69.7734465300   -16.1670847700     9.5113695100
 1851      H     -69.4507887300   -15.0190676900    12.6219933100
 1852      C     -67.6290140100   -12.5626327300    10.2652462800
 1853      H     -66.4154966600   -12.5525767700     8.5879740400
 1854      H     -69.3635267700   -11.4257023800     9.8611140400
 1855      C     -66.2498334000   -11.1464977800    12.3025330700
 1856      H     -66.6144520300   -12.0011370700    14.2031626600
 1857      H     -64.2705416400   -11.3379495300    11.9442304800
 1858      C     -67.0965708200    -8.4034845200    12.4647610600
 1859      H     -67.6281214700    -7.9127444600    10.5739534600
 1860      H     -68.7471989100    -8.2434780700    13.6552520700
 1861      C     -64.8691335900    -6.6872942000    13.2950907400
 1862      H     -64.4686506600    -7.3758449500    15.2342453800
 1863      H     -63.1548763500    -6.9332003500    12.1088747600
 1864      C     -65.5661015900    -3.9128368900    13.2391586100
 1865      H     -66.0970510000    -3.6186375100    11.2782964100
 1866      H     -67.4129722400    -3.6269341500    14.1925669000
 1867      C     -63.6717800400    -2.0112503200    14.2373923400
 1868      H     -63.5878879900    -1.8100709600    16.2085589700
 1869      H     -61.8788355700    -2.6990424400    13.7287056400
 1870      C     -63.9098255500     0.4215951700    12.7824612600
 1871      H     -62.9453055100     1.9725840900    13.6271770000
 1872      H     -65.7893319200     0.9456292100    12.7963350400
 1873      H     -63.2415087800     0.6610652200    10.8285991300
 1874      H     -42.3621682800   -28.4610536100    24.7623200500
 1875      C     -42.9860228900   -28.3632075200    22.7254730400
 1876      H     -43.9075055400   -26.4438972800    22.5595247600
 1877      H     -41.4118018900   -28.2670824000    21.6054520700
 1878      C     -44.9458238600   -30.2399874400    21.5576909300
 1879      H     -44.4228892100   -31.9966623000    22.3561189600
 1880      H     -46.8493428600   -29.5753780800    22.2063366400
 1881      C     -45.1859096700   -30.0388082900    18.6957275600
 1882      H     -45.9769186100   -28.2982703200    18.1486004300
 1883      H     -43.2056294800   -30.1035430600    18.1676547000
 1884      C     -46.8769096800   -32.2253469100    17.4175584500
 1885      H     -46.2048054200   -33.9840468500    18.3682053100
 1886      H     -48.7498083800   -32.0841549500    18.3135554600
 1887      C     -47.2858501700   -32.3010999300    14.5551716900
 1888      H     -47.9470820400   -30.5603794200    13.5453146400
 1889      H     -45.4354263400   -32.7320655600    13.9568994700
 1890      C     -48.9776044300   -34.5136122800    13.7092035900
 1891      H     -49.0514956300   -34.6921163200    11.6159730200
 1892      H     -48.2360717900   -36.2748054000    14.5994499300
 1893      C     -51.7611211400   -34.1953916800    14.5664290800
 1894      H     -51.9167598800   -33.8876987700    16.7172518900
 1895      H     -52.5466025900   -32.3765299700    13.8156435200
 1896      C     -53.6551124800   -36.1742392300    13.3972674600
 1897      H     -53.3771216000   -36.2812542700    11.3279311700
 1898      H     -53.2391620500   -38.1576715500    14.0301542600
 1899      C     -56.4162351700   -35.8115011100    14.1630327900
 1900      H     -56.7612992100   -36.4316979200    16.0564220500
 1901      H     -56.9047130500   -33.8068531600    14.2053918400
 1902      C     -58.2551431100   -37.3709357200    12.5335842100
 1903      H     -58.0759395400   -36.8894183500    10.5202289700
 1904      H     -57.8669754500   -39.4182316800    12.7590231600
 1905      C     -61.0081757500   -36.9154441400    13.1816338600
 1906      H     -61.5356884600   -37.0586649200    15.1252674200
 1907      H     -61.2390243500   -34.8846660900    12.4799690800
 1908      C     -62.8716535700   -38.4789243300    11.6928470500
 1909      H     -64.9510422800   -38.3085978400    12.0214406000
 1910      H     -62.5972713800   -40.4476071700    12.0563537700
 1911      H     -62.6589373900   -38.1863301700     9.6834178900
 ----------------------------------------------------------------
 Nuclear Repulsion Energy =           0.00000000 hartrees
 There are       48 alpha and       48 beta electrons
 Total job time:  125.92s(wall), 248.38s(cpu) 
 Wed Jun  1 23:32:46 2022

        *************************************************************
        *                                                           *
        *  Thank you very much for using Q-Chem.  Have a nice day.  *
        *                                                           *
        *************************************************************


