                  Welcome to Q-Chem
     A Quantum Leap Into The Future Of Chemistry


 Q-Chem 5.4 (devel), Q-Chem, Inc., Pleasanton, CA (2021)

 E. Epifanovsky,  A. T. B. Gilbert,  Xintian Feng,  Joonho Lee,  Yuezhi Mao,  
 N. Mardirossian,  P. Pokhilko,  A. White,  M. Wormit,  M. P. Coons,  
 A. L. Dempwolff,  Zhengting Gan,  D. Hait,  P. R. Horn,  L. D. Jacobson,  
 I. Kaliman,  J. Kussmann,  A. W. Lange,  Ka Un Lao,  D. S. Levine,  Jie Liu,  
 S. C. McKenzie,  A. F. Morrison,  K. Nanda,  F. Plasser,  D. R. Rehn,  
 M. L. Vidal,  Zhi-Qiang You,  Ying Zhu,  B. Alam,  B. Albrecht,  
 A. Aldossary,  E. Alguire,  J. H. Andersen,  D. Barton,  K. Begam,  A. Behn,  
 Y. A. Bernard,  E. J. Berquist,  H. Burton,  A. Carreras,  K. Carter-Fenk,  
 R. Chakraborty,  A. D. Chien,  K. D. Closser,  V. Cofer-Shabica,  
 S. Dasgupta,  Jia Deng,  M. de Wergifosse,  M. Diedenhofen,  Hainam Do,  
 S. Ehlert,  Po-Tung Fang,  S. Fatehi,  Qingguo Feng,  T. Friedhoff,  
 J. Gayvert,  Qinghui Ge,  G. Gidofalvi,  M. Goldey,  J. Gomes,  
 C. Gonzalez-Espinoza,  S. Gulania,  A. Gunina,  M. W. D. Hanson-Heine,  
 P. H. P. Harbach,  A. W. Hauser,  M. F. Herbst,  M. Hernandez Vera,  
 M. Hodecker,  Z. C. Holden,  S. Houck,  Xunkun Huang,  Kerwin Hui,  
 B. C. Huynh,  M. Ivanov,  Hyunjun Ji,  Hanjie Jiang,  B. Kaduk,  S. Kaehler,  
 K. Khistyaev,  Jaehoon Kim,  P. Klunzinger,  Z. Koczor-Benda,  
 Joong Hoon Koh,  D. Kosenkov,  L. Koulias,  T. Kowalczyk,  C. M. Krauter,  
 K. Kue,  A. Kunitsa,  T. Kus,  A. Landau,  K. V. Lawler,  D. Lefrancois,  
 S. Lehtola,  Rain Li,  Yi-Pei Li,  Jiashu Liang,  M. Liebenthal,  
 Hung-Hsuan Lin,  You-Sheng Lin,  Fenglai Liu,  Kuan-Yu Liu,  
 M. Loipersberger,  A. Luenser,  A. Manjanath,  P. Manohar,  E. Mansoor,  
 S. F. Manzer,  Shan-Ping Mao,  A. V. Marenich,  T. Markovich,  S. Mason,  
 S. A. Maurer,  P. F. McLaughlin,  M. F. S. J. Menger,  J.-M. Mewes,  
 S. A. Mewes,  P. Morgante,  J. W. Mullinax,  K. J. Oosterbaan,  G. Paran,  
 Alexander C. Paul,  Suranjan K. Paul,  F. Pavosevic,  Zheng Pei,  S. Prager,  
 E. I. Proynov,  E. Ramos,  B. Rana,  A. E. Rask,  A. Rettig,  R. M. Richard,  
 F. Rob,  E. Rossomme,  T. Scheele,  M. Scheurer,  M. Schneider,  
 N. Sergueev,  S. M. Sharada,  W. Skomorowski,  D. W. Small,  C. J. Stein,  
 Yu-Chuan Su,  E. J. Sundstrom,  Zhen Tao,  J. Thirman,  T. Tsuchimochi,  
 N. M. Tubman,  S. P. Veccham,  O. Vydrov,  J. Wenzel,  J. Witte,  A. Yamada,  
 Kun Yao,  S. Yeganeh,  S. R. Yost,  A. Zech,  Igor Ying Zhang,  Xing Zhang,  
 Yu Zhang,  D. Zuev,  A. Aspuru-Guzik,  A. T. Bell,  N. A. Besley,  
 K. B. Bravaya,  B. R. Brooks,  D. Casanova,  Jeng-Da Chai,  S. Coriani,  
 C. J. Cramer,  A. E. DePrince, III,  R. A. DiStasio Jr.,  A. Dreuw,  
 B. D. Dunietz,  T. R. Furlani,  W. A. Goddard III,  S. Grimme,  
 S. Hammes-Schiffer,  T. Head-Gordon,  W. J. Hehre,  Chao-Ping Hsu,  
 T.-C. Jagau,  Yousung Jung,  A. Klamt,  Jing Kong,  D. S. Lambrecht,  
 WanZhen Liang,  N. J. Mayhall,  C. W. McCurdy,  J. B. Neaton,  
 C. Ochsenfeld,  J. A. Parkhill,  R. Peverati,  V. A. Rassolov,  Yihan Shao,  
 L. V. Slipchenko,  T. Stauch,  R. P. Steele,  J. E. Subotnik,  
 A. J. W. Thom,  A. Tkatchenko,  D. G. Truhlar,  T. Van Voorhis,  
 T. A. Wesolowski,  K. B. Whaley,  H. L. Woodcock III,  P. M. Zimmerman,  
 S. Faraji,  P. M. W. Gill,  M. Head-Gordon,  J. M. Herbert,  A. I. Krylov

 Additional authors for Version 5.4.1: 
 S. Kotaru,  Shaozhi Li,  Xiangyuan Li,  F. Matz,  A. Molle,  Haisheng Ren,  
 Yingli Su,  Hung-Yi Tsai,  C. Utku,  Fang Wang

 Contributors to earlier versions of Q-Chem not listed above: 
 R. D. Adamson,  B. Austin,  R. Baer,  J. Baker,  G. J. O. Beran,  
 K. Brandhorst,  S. T. Brown,  E. F. C. Byrd,  A. K. Chakraborty,  
 G. K. L. Chan,  Chun-Min Chang,  Yunqing Chen,  C.-L. Cheng,  
 Siu Hung Chien,  D. M. Chipman,  D. L. Crittenden,  H. Dachsel,  
 R. J. Doerksen,  A. D. Dutoi,  R. G. Edgar,  J. Fosso-Tande,  
 L. Fusti-Molnar,  D. Ghosh,  A. Ghysels,  A. Golubeva-Zadorozhnaya,  
 J. Gonthier,  M. S. Gordon,  S. R. Gwaltney,  G. Hawkins,  J. E. Herr,  
 A. Heyden,  S. Hirata,  E. G. Hohenstein,  G. Kedziora,  F. J. Keil,  
 C. Kelley,  Jihan Kim,  R. A. King,  R. Z. Khaliullin,  P. P. Korambath,  
 W. Kurlancheek,  A. Laurent,  A. M. Lee,  M. S. Lee,  S. V. Levchenko,  
 Ching Yeh Lin,  D. Liotard,  E. Livshits,  R. C. Lochan,  I. Lotan,  
 L. A. Martinez-Martinez,  P. E. Maslen,  N. Nair,  D. P. O'Neill,  
 D. Neuhauser,  E. Neuscamman,  C. M. Oana,  R. Olivares-Amaya,  R. Olson,  
 T. M. Perrine,  B. Peters,  P. A. Pieniazek,  A. Prociuk,  Y. M. Rhee,  
 J. Ritchie,  M. A. Rohrdanz,  E. Rosta,  N. J. Russ,  H. F. Schaefer III,  
 M. W. Schmidt,  N. E. Schultz,  S. Sharma,  N. Shenvi,  C. D. Sherrill,  
 A. C. Simmonett,  A. Sodt,  T. Stein,  D. Stuck,  K. S. Thanthiriwatte,  
 V. Vanovschi,  L. Vogt,  Tao Wang,  A. Warshel,  M. A. Watson,  
 C. F. Williams,  Q. Wu,  X. Xu,  Jun Yang,  W. Zhang,  Yan Zhao

 Please cite Q-Chem as follows:
 Y. Shao et al., Mol. Phys. 113, 184-215 (2015)
 DOI: 10.1080/00268976.2014.952696

 Q-Chem 5.4.1 for Intel X86 EM64T Linux

 Parts of Q-Chem use Armadillo 9.900.5 (Nocturnal Misbehaviour).
 http://arma.sourceforge.net/

 Q-Chem begins on Fri Jul  1 20:00:03 2022  

 Host: p09r14n09.grace.hpc.yale.internal
0

     Scratch files written to /home/tl686/scratch60/qchem_dev/scratch/qchem8857//
 Processing $rem in /home/tl686/qchem_dev/qchem/config/preferences:
 Processing $rem in /home/tl686/.qchemrc:
Applying user defined connections for MM calculations

 Checking the input file for inconsistencies... 	...done.

--------------------------------------------------------------
User input:
--------------------------------------------------------------
$molecule
0   1
 Fe -1429.08968232 16.06969264 38.09303086    -1  0   0   0   0
C -1428.92964865 19.00579633 36.38808879    -2  0   0   0   0 
C -1428.22753027 15.45758596 41.35310580    -2  0   0   0   0
C -1432.04468956 17.20677096 39.41618147    -2  0   0   0   0
C -1430.65124397 13.45064666 36.26966858    -2  0   0   0   0
C -1425.95108387 15.22488357 37.30420967    -2  0   0   0   0
O -1428.89522279 20.84705162 35.23931329    -3  0   0   0   0
O -1427.37899132 15.36086755 43.38158804    -3  0   0   0   0 
O -1433.87825752 18.01894353 40.27324904    -3  0   0   0   0
O -1431.55062200 11.97007075 34.91625486    -3  0   0   0   0 
O -1423.90853120 14.54764953 36.65912771    -3  0   0   0   0
H -1445.98774020 38.51129621 29.83785242      6     13    0    0    0 
C -1444.70724303 39.58408921 28.57828437     1     12    14    15    16
H -1445.38138371 41.50208775 28.47555102     6     13    0    0    0
H -1442.73908904 39.21538528 29.08916208     6     13    0    0    0
C -1444.95363734 38.42259652 25.94674394     2     13    17    18    19
H -1447.00474282 38.23395474 25.52736629     6     16    0    0    0
H -1444.10186759 39.76285870 24.55354158     6     16    0    0    0
C -1443.96150583 35.69316002 25.67691223     2     16    20   21   22
H -1441.98545802 35.80287761 26.11352033     6     19    0    0    0
H -1445.01856301 34.45761377 27.02366864     6     19    0    0    0
C -1444.35273165 34.50890682 23.24340102     2     19   23   24   25
H -1446.20438186 35.03454078 22.68041579     6    22    0    0    0
H -1443.02962950 35.23366654 21.87830397     6    22    0    0    0
C -1443.96599800 31.59296907 23.36621313     2    22   26   27   28
H -1442.09793914 31.05741475 23.91384731     6    25    0    0    0
H -1445.05523277 30.79377036 24.78420653     6    25    0    0    0
C -1444.54660816 30.07504255 20.84148227     2    25   29   30   31
H -1446.58895658 30.32649940 20.42355184     6    28    0    0    0
H -1443.75723856 30.99720133 19.18810466     6    28    0    0    0
C -1443.45688993 27.44180705 20.97290061     2    28   32   33   34
H -1441.45452084 27.51861927 20.82313129     6    31    0    0    0
H -1443.88317771 26.36705714 22.73810306     6    31    0    0    0
C -1444.34083097 25.71473384 18.78764145     2    31   35   36   37
H -1446.27098134 25.04800186 19.28549044     6    34    0    0    0
H -1444.42969214 26.73666064 16.96335044     6    34    0    0    0
C -1442.61495768 23.29727538 18.39973003     2    34   38   39   40
H -1440.68609360 23.91146340 18.34975412     6    37    0    0    0
H -1442.78229395 21.84287072 19.97370195     6    37    0    0    0
C -1442.92241674 22.00762710 15.95122656     2    37   41   42   43
H -1444.76581134 21.20745388 15.72279336     6    40    0    0    0
H -1442.91243178 23.54727974 14.48318029     6    40    0    0    0
C -1440.63009120 20.33007396 15.49859791     2    40   44   45   46
H -1438.91500573 21.46213577 15.76443544     6    43    0    0    0
H -1440.48322866 18.85768083 16.90046602     6    43    0    0    0
C -1440.64203823 19.11213619 12.74372552     1    43   47   48   49
H -1442.35775452 18.12589674 12.32978450     6    46    0    0    0
H -1439.07054411 17.92123353 12.30874806     6    46    0    0    0
H -1440.50135564 20.61311975 11.39544181     6    46    0    0    0
H -1427.04818870 12.56763749 27.77763520     6     51    0    0    0 
C -1426.34251757 13.77522099 29.28441714     1     50    52    53    54
H -1426.80361350 12.84583321 31.14528690     6     51    0    0    0
H -1424.33412000 13.91682185 28.76425409     6     51    0    0    0
C -1427.24178297 16.48348438 29.23513832     2     51    55    56    57
H -1426.46229677 17.30077035 30.96403830     6     54    0    0    0
H -1426.04226484 17.74045397 28.08169988     6     54    0    0    0
C -1430.20483091 16.94555572 28.82635375     2     54    58   59   60
H -1431.27130186 15.86704341 30.16038600     6     57    0    0    0
H -1430.64008839 18.98495864 29.10006993     6     57    0    0    0
C -1430.87071513 16.21939136 26.05367041     2     57   61   62   63
H -1431.44565474 17.89339074 25.09631756     6    60    0    0    0
H -1429.14651087 15.48915930 25.12991741     6    60    0    0    0
C -1432.96215910 14.21485754 25.60832783     2    60   64   65   66
H -1432.36479919 12.42256421 26.41032008     6    63    0    0    0
H -1434.57498929 15.06356463 26.42396022     6    63    0    0    0
C -1433.43082566 13.79931956 22.67171570     2    63   67   68   69
H -1435.36406130 12.83981760 22.56319088     6    66    0    0    0
H -1433.90729154 15.59625676 21.81964703     6    66    0    0    0
C -1431.39842767 12.40060253 21.02610932     2    66   70   71   72
H -1429.55109940 13.36777356 21.22336768     6    69    0    0    0
H -1431.11930730 10.40453779 21.58279324     6    69    0    0    0
C -1431.97542424 12.47328970 18.15616137     2    69   73   74   75
H -1433.72630017 11.71192835 17.55550074     6    72    0    0    0
H -1431.98359513 14.53097476 17.63277719     6    72    0    0    0
C -1429.87557042 11.26374356 16.81278918     2    72   76   77   78
H -1428.17763881 12.24937537 17.08558622     6    75    0    0    0
H -1429.71814604 9.18954419 17.18209313     6    75    0    0    0
C -1430.26794232 11.71166299 14.10686797     2    75   79   80   81
H -1432.00484669 10.91465537 13.42230305     6    78    0    0    0
H -1430.33855141 13.77717462 13.69435006     6    78    0    0    0
C -1428.00975359 10.33424632 12.68066062     2    78   82   83   84
H -1426.13679158 10.42170344 13.80053944     6    81    0    0    0
H -1428.27391844 8.27909403 12.48969548     6    81    0    0    0
C -1427.65571996 11.49605433 10.08594780     1    81   85   86   87
H -1426.49915434 10.49281915 8.87775617     6    84    0    0    0
H -1427.25041543 13.50101039 10.19002979     6    84    0    0    0
H -1429.58813796 11.47783289 9.16886675     6    84    0    0    0
H -1454.58610125 34.00148284 27.35079851     6     89    0    0    0 
C -1453.70339164 32.45937602 26.21771798     1     88    90    91    92
H -1452.46564954 33.67570059 25.01433625     6     89    0    0    0
H -1452.21768707 31.45131725 27.41121645     6     89    0    0    0
C -1455.19703568 30.61588193 24.58293280     2     89    93    94    95
H -1456.75179011 29.73155485 25.76584583     6     92    0    0    0
H -1456.28618602 31.73641866 23.21058262     6     92    0    0    0
C -1453.74458070 28.60895622 23.17952980     2     92    96   97   98
H -1452.11846872 29.23012887 22.12227510     6     95    0    0    0
H -1452.65940758 27.46025214 24.60146603     6     95    0    0    0
C -1455.34288614 26.71525062 21.64309079     2     95   99   100   101
H -1456.06244238 25.26532305 22.85303343     6    98    0    0    0
H -1456.97663092 27.75755795 20.75610551     6    98    0    0    0
C -1453.71337198 25.23058402 19.65185401     2    98   102   103   104
H -1452.64697869 26.60814208 18.52177276     6    101    0    0    0
H -1452.39193542 24.09965165 20.61370338     6    101    0    0    0
C -1455.58115759 23.86082338 17.69660919     2    101   105   106   107
H -1456.57244545 22.52857597 18.90329135     6    104    0    0    0
H -1457.03759244 25.13403919 17.07861043     6    104    0    0    0
C -1454.13619699 22.71822777 15.46553198     2    104   108   109   110
H -1452.57731198 23.96138947 14.92199990     6    107    0    0    0
H -1453.20156315 21.01085897 16.16174636     6    107    0    0    0
C -1455.67692469 21.95301853 13.22186971     2    107   111   112   113
H -1457.15282874 20.61936885 13.71034059     6    110    0    0    0
H -1456.67923035 23.66525540 12.43223216     6    110    0    0    0
C -1454.04135090 20.85203117 11.03238538     2    110   114   115   116
H -1452.93307287 22.37521486 10.08583133     6    113    0    0    0
H -1452.50532112 19.73968475 11.82619003     6    113    0    0    0
C -1455.71622575 19.83007513 8.85953518     2    113   117   118   119
H -1456.53320311 18.02099566 9.35972036     6    116    0    0    0
H -1457.26628794 21.21901231 8.63510938     6    116    0    0    0
C -1454.19120980 19.42365960 6.36508058     2    116   120   121   122
H -1455.06770825 20.42241096 4.88911797     6    119    0    0    0
H -1452.43986764 20.46954061 6.82463581     6    119    0    0    0
C -1453.77011676 16.64545240 5.55334852     1    119   123   124   125
H -1452.05864578 16.64361476 4.38129304     6    122    0    0    0
H -1455.33315315 15.93058772 4.46681623     6    122    0    0    0
H -1453.10457286 15.44139030 7.10953234     6    122    0    0    0
H -1463.43304687 14.79094689 55.47971866     6     127    0    0    0 
C -1461.97745331 13.42773810 54.88654410     1     126    128    129    130
H -1461.27878763 12.79511214 56.72737963     6     127    0    0    0
H -1463.02783999 11.85025497 54.23014663     6     127    0    0    0
C -1459.83898265 14.49777424 53.02096220     2     127    131    132    133
H -1460.67593735 14.29791533 51.09383220     6     130    0    0    0
H -1459.77416383 16.51794995 53.45012929     6     130    0    0    0
C -1457.18838737 13.23483248 53.35856414     2     130    134   135   136
H -1456.97600193 13.41496336 55.47053507     6     133    0    0    0
H -1457.36167866 11.27201012 52.69337547     6     133    0    0    0
C -1455.22740809 14.72353174 51.91594837     2     133   137   138   139
H -1455.94752505 14.99425731 50.07979098     6    136    0    0    0
H -1454.86908749 16.52428228 52.80727945     6    136    0    0    0
C -1452.76533005 13.22933766 51.58238972     2    136   140   141   142
H -1452.21667876 12.70922551 53.57342134     6    139    0    0    0
H -1453.10702480 11.53043718 50.68690517     6    139    0    0    0
C -1450.69063619 14.84133764 50.35945949     2    139   143   144   145
H -1451.21915467 15.27053484 48.49158270     6    142    0    0    0
H -1450.18088775 16.66243513 51.37116665     6    142    0    0    0
C -1448.41977524 13.06404134 49.89035205     2    142   146   147   148
H -1447.89877874 12.55944578 51.81561624     6    145    0    0    0
H -1449.08587052 11.42888936 48.85808873     6    145    0    0    0
C -1446.15377184 14.59722096 48.74181739     2    145   149   150   151
H -1446.71276014 15.24469752 46.88659848     6    148    0    0    0
H -1445.70904592 16.32741556 49.82182476     6    148    0    0    0
C -1443.85914252 12.90902856 48.30523333     2    148   152   153   154
H -1443.09339522 12.38861440 50.13721309     6    151    0    0    0
H -1444.18340383 11.11565145 47.41190764     6    151    0    0    0
C -1441.73479995 14.22142131 46.87405880     2    151   155   156   157
H -1440.02033069 13.08636034 46.99688877     6    154    0    0    0
H -1442.07124607 14.46142689 44.90649876     6    154    0    0    0
C -1440.98672097 16.85110152 47.84076250     2    154   158   159   160
H -1442.78641125 17.95224877 47.59958018     6    157    0    0    0
H -1440.49445824 17.01682379 49.78127582     6    157    0    0    0
C -1438.90767511 17.97039685 46.02541872     1    157   161   162   163
H -1438.51546576 19.84748096 46.81531787     6    160    0    0    0
H -1439.53433561 17.94760888 44.06563223     6    160    0    0    0
H -1437.20633836 16.88139274 46.06888152     6    160    0    0    0
H -1465.63341869 -5.14909324 30.79099577     6     165    0    0    0 
C -1464.45176349 -4.34320862 32.29500608     1     164    166    167    168
H -1462.78505352 -3.79433937 31.24896293     6     165    0    0    0
H -1465.62869157 -2.75885454 32.76699710     6     165    0    0    0
C -1463.91789828 -6.02418548 34.59694530     2     165    169    170    171
H -1465.65627430 -6.53964874 35.70469687     6     168    0    0    0
H -1463.14949877 -7.78173011 34.15011819     6     168    0    0    0
C -1462.42052663 -4.48828691 36.53580843     2     168    172   173   174
H -1460.59480703 -3.90523932 35.76158449     6     171    0    0    0
H -1463.60718928 -2.83222352 36.99403150     6     171    0    0    0
C -1462.10058802 -6.01753748 39.04702067     2     171   175   176   177
H -1463.58108449 -5.66775943 40.39086682     6    174    0    0    0
H -1462.30870500 -8.04002898 38.58205946     6    174    0    0    0
C -1459.72720216 -5.19964245 40.51058578     2    174   178   179   180
H -1458.30200929 -4.99578426 39.18055037     6    177    0    0    0
H -1459.89823666 -3.43666454 41.34039845     6    177    0    0    0
C -1458.82150258 -7.27252879 42.25423377     2    177   181   182   183
H -1460.41596871 -7.63940828 43.41575126     6    180    0    0    0
H -1458.41607164 -8.78576784 40.92220172     6    180    0    0    0
C -1456.44428892 -6.56132911 43.76265750     2    180   184   185   186
H -1454.92593421 -6.62604448 42.58143883     6    183    0    0    0
H -1456.48225013 -4.59761166 44.48900932     6    183    0    0    0
C -1456.05367718 -8.55012448 45.83129747     2    183   187   188   189
H -1457.83780750 -8.82971334 46.87701086     6    186    0    0    0
H -1455.36841658 -10.33437770 45.08483058     6    186    0    0    0
C -1454.14475960 -7.76112760 47.70677499     2    186   190   191   192
H -1452.23387110 -7.35127292 46.94922084     6    189    0    0    0
H -1454.96749977 -5.95985326 48.33083894     6    189    0    0    0
C -1453.99670013 -9.60055734 50.02042523     2    189   193   194   195
H -1455.84825368 -10.34089406 50.39855596     6    192    0    0    0
H -1452.98450239 -11.23493235 49.40825221     6    192    0    0    0
C -1452.85543458 -8.40592213 52.43426487     2    192   196   197   198
H -1450.94236048 -7.56215156 51.97244736     6    195    0    0    0
H -1453.80588796 -6.67088466 52.96839125     6    195    0    0    0
C -1452.49584799 -10.36767524 54.72127030     1    195   199   200   201
H -1451.45614264 -9.53803202 56.24745067     6    198    0    0    0
H -1451.46728981 -11.92901501 53.95875367     6    198    0    0    0
H -1454.43647336 -10.98496399 55.22326682     6    198    0    0    0
H -1450.48320029 -0.50477697 25.32609742     6     203    0    0    0 
C -1451.83531759 -2.01269748 25.04054478     1     202    204    205    206
H -1451.62260232 -3.62679040 26.31324936     6     203    0    0    0
H -1453.55734434 -1.21566107 25.53508873     6     203    0    0    0
C -1451.98735619 -2.88850354 22.22965391     2     203    207    208    209
H -1453.50119528 -4.25056334 21.99910441     6     206    0    0    0
H -1452.68528887 -1.26959156 21.10243224     6     206    0    0    0
C -1449.35173951 -3.74290723 21.30845092     2     206    210   211   212
H -1449.51296294 -3.99693598 19.30902463     6     209    0    0    0
H -1447.85335331 -2.23747575 21.60291571     6     209    0    0    0
C -1448.52910177 -6.27385540 22.30262227     2     209   213   214   215
H -1448.10143415 -6.19257151 24.20626324     6    212    0    0    0
H -1450.13462442 -7.65810948 22.10942595     6    212    0    0    0
C -1446.02458936 -7.09428660 20.95058936     2    212   216   217   218
H -1446.60315096 -7.30821721 19.10806352     6    215    0    0    0
H -1444.32512485 -5.91599869 21.15763508     6    215    0    0    0
C -1445.15548503 -9.59431088 22.04989162     2    215   219   220   221
H -1444.70332851 -9.60933021 24.01647254     6    218    0    0    0
H -1446.75162932 -10.88105326 21.88204992     6    218    0    0    0
C -1443.07914624 -10.65055467 20.19764352     2    218   222   223   224
H -1443.67819785 -10.35511159 18.27941453     6    221    0    0    0
H -1441.37730295 -9.48656003 20.54762430     6    221    0    0    0
C -1442.35919377 -13.47743272 20.79413441     2    221   225   226   227
H -1441.92112060 -13.80576972 22.76334955     6    224    0    0    0
H -1444.04754807 -14.69641602 20.30687608     6    224    0    0    0
C -1439.84430561 -14.21377895 19.36722693     2    224   228   229   230
H -1440.15394073 -14.21797921 17.34853310     6    227    0    0    0
H -1438.46343391 -12.78292780 19.77434761     6    227    0    0    0
C -1439.06530839 -16.88546650 19.97864526     2    227   231   232   233
H -1439.54236073 -17.28014273 22.00648047     6    230    0    0    0
H -1440.24581071 -18.25032581 18.99025108     6    230    0    0    0
C -1436.32029395 -17.64385000 19.59140104     2    230   234   235   236
H -1435.69014409 -17.41639680 17.61166262     6    233    0    0    0
H -1434.94717956 -16.36157566 20.36546352     6    233    0    0    0
C -1435.54107045 -20.43651887 20.22047418     1    233   237   238   239
H -1433.73801002 -21.03409758 19.60828831     6    236    0    0    0
H -1436.85605213 -21.62135039 19.26000713     6    236    0    0    0
H -1435.92839628 -20.54902119 22.22153177     6    236    0    0    0
H -1434.58940774 12.23683500 7.36507084     6     241    0    0    0 
C -1436.16313692 12.94307449 8.54963227     1     240    242    243    244
H -1436.81801941 11.64286244 10.06930851     6     241    0    0    0
H -1435.28133619 14.47928590 9.75966134     6     241    0    0    0
C -1438.50640956 13.78961953 6.88507790     2     241    245    246    247
H -1438.81745233 12.15851166 5.70097814     6     244    0    0    0
H -1440.32317137 14.10062222 8.01992112     6     244    0    0    0
C -1437.81933263 16.09424141 5.25283564     2     244    248   249   250
H -1439.66032781 16.51889784 4.23902315     6     247    0    0    0
H -1437.57339658 17.76032337 6.41724817     6     247    0    0    0
C -1435.60607905 15.83656492 3.38643314     2     247   251   252   253
H -1435.41074153 17.56105896 2.46622058     6    250    0    0    0
H -1433.78788250 15.56530003 4.23585639     6    250    0    0    0
C -1435.86140093 13.62897564 1.51441536     2    250   254   255   256
H -1435.68376619 11.82351921 2.53128962     6    253    0    0    0
H -1437.74723160 13.83097653 0.73187333     6    253    0    0    0
C -1433.87483214 13.81701448 -0.65491954     2    253   257   258   259
H -1434.82841250 12.98074387 -2.30755978     6    256    0    0    0
H -1433.56720372 15.86560506 -1.02346195     6    256    0    0    0
C -1431.46808976 12.42345680 0.18583310     2    256   260   261   262
H -1430.88945022 13.04652761 1.98127950     6    259    0    0    0
H -1431.85350968 10.43979923 0.44537505     6    259    0    0    0
C -1429.23760856 12.59826816 -1.57767279     2    259   263   264   265
H -1429.64274412 11.54566941 -3.28208936     6    262    0    0    0
H -1429.06360340 14.62660421 -2.09175775     6    262    0    0    0
C -1426.82834676 11.62115174 -0.42473357     2    262   266   267   268
H -1426.28050603 13.25573048 0.73352399     6    265    0    0    0
H -1427.28853545 9.87197934 0.58421755     6    265    0    0    0
C -1424.96394231 11.21899496 -2.53338790     2    265   269   270   271
H -1425.73440873 10.27387021 -4.11567048     6    268    0    0    0
H -1424.32462560 12.99565053 -3.26830269     6    268    0    0    0
C -1422.46337193 9.74772764 -1.88434119     2    268   272   273   274
H -1421.58360459 10.83542916 -0.30150289     6    271    0    0    0
H -1422.72756156 7.98607358 -0.95106343     6    271    0    0    0
C -1420.67293408 9.23856736 -4.08771401     1    271   275   276   277
H -1421.49880319 8.06003123 -5.49214123     6    274    0    0    0
H -1419.03022722 7.98072406 -3.32868588     6    274    0    0    0
H -1419.95948930 10.97355804 -5.03959229     6    274    0    0    0
H -1458.13723559 1.00745503 16.25892919     6     279    0    0    0 
C -1456.92621677 0.63010339 14.69108139     1     278    280    281    282
H -1456.87992403 -1.34080535 14.35407880     6     279    0    0    0
H -1457.35429998 1.50011659 12.81361449     6     279    0    0    0
C -1454.13685742 1.15806919 15.54876880     2     279    283    284    285
H -1453.89496165 3.09245279 15.86135233     6     282    0    0    0
H -1453.86495540 0.24778803 17.23941243     6     282    0    0    0
C -1452.20326073 0.51292497 13.41977412     2     282    286   287   288
H -1453.00990750 -1.01482468 12.19294056     6     285    0    0    0
H -1452.10320223 2.30374270 12.25222968     6     285    0    0    0
C -1449.61285686 -0.12949822 14.54529882     2     285   289   290   291
H -1449.65172295 1.01357216 16.21207162     6    288    0    0    0
H -1449.39622652 -1.94668573 15.14242187     6    288    0    0    0
C -1447.31862335 0.39325995 12.90682061     2    288   292   293   294
H -1447.54596893 -0.16118051 10.97241095     6    291    0    0    0
H -1447.07119030 2.38272992 12.91958563     6    291    0    0    0
C -1444.86276051 -0.74435073 14.11679168     2    291   295   296   297
H -1444.57139233 -0.04320199 16.07067806     6    294    0    0    0
H -1445.34535827 -2.66330336 14.66410683     6    294    0    0    0
C -1442.41963588 -0.74349239 12.42754109     2    294   298   299   300
H -1442.77737191 -1.90742440 10.66094297     6    297    0    0    0
H -1442.19260623 1.20761742 11.99412187     6    297    0    0    0
C -1440.02289867 -1.62524640 13.87983519     2    297   301   302   303
H -1439.36564088 -0.17586709 15.10691665     6    300    0    0    0
H -1440.64531070 -3.05069365 15.34218408     6    300    0    0    0
C -1437.86768584 -2.42614542 12.20022753     2    300   304   305   306
H -1438.32930424 -4.19076381 11.23512139     6    303    0    0    0
H -1437.45164282 -0.80059353 10.77177418     6    303    0    0    0
C -1435.41379049 -2.95099330 13.69864919     2    303   307   308   309
H -1434.84305986 -1.26423204 14.74852061     6    306    0    0    0
H -1435.53573564 -4.52833765 15.07737782     6    306    0    0    0
C -1433.19183963 -4.04648279 11.96310056     2    306   310   311   312
H -1433.25596155 -5.94430136 11.62586398     6    309    0    0    0
H -1433.49904554 -3.19647427 10.07903271     6    309    0    0    0
C -1430.48932314 -3.17942002 12.69357000     1    309   313   314   315
H -1429.16863212 -3.69535722 11.26707071     6    312    0    0    0
H -1429.79170678 -4.28515345 14.30451846     6    312    0    0    0
H -1430.25691457 -1.05279066 13.10578999     6    312    0    0    0
H -1448.08738142 14.02801871 24.51605965     6     317    0    0    0 
C -1447.16793610 12.59409671 25.71826518     1     316    318    319    320
H -1448.68447142 11.44483121 26.60454369     6     317    0    0    0
H -1445.93238393 11.36282549 24.68608004     6     317    0    0    0
C -1445.47936554 14.04063967 27.60973550     2     317    321    322    323
H -1444.59938431 12.75015763 28.94082657     6     320    0    0    0
H -1443.95605515 15.12995995 26.60438080     6     320    0    0    0
C -1446.99790205 15.56839575 29.50452894     2     320    324   325   326
H -1447.81657494 17.07300963 28.31207099     6     323    0    0    0
H -1448.32925219 14.36856934 30.77009168     6     323    0    0    0
C -1445.29010948 17.05085405 31.39344884     2     323   327   328   329
H -1443.96950252 15.71862346 32.30393033     6    326    0    0    0
H -1443.99512069 18.20052147 30.34502299     6    326    0    0    0
C -1446.65010436 18.84566702 33.35421658     2    326   330   331   332
H -1447.82512453 19.94324635 32.06564680     6    329    0    0    0
H -1447.93394483 17.86781761 34.61151478     6    329    0    0    0
C -1444.95287953 20.50777467 34.99632062     2    329   333   334   335
H -1443.63320672 21.72193912 34.07398112     6    332    0    0    0
H -1446.11780988 21.71247564 36.00410119     6    332    0    0    0
C -1443.31549134 19.07788505 36.93742242     2    332   336   337   338
H -1444.50419982 18.46769324 38.52094429     6    335    0    0    0
H -1442.32157554 17.31487166 36.22456233     6    335    0    0    0
C -1441.19324961 20.57351965 37.95378196     2    335   339   340   341
H -1440.29337432 19.68082617 39.70433553     6    338    0    0    0
H -1439.69532092 20.33463613 36.57952042     6    338    0    0    0
C -1441.74736611 23.29775504 38.83339120     2    338   342   343   344
H -1442.71866395 24.34364920 37.36097041     6    341    0    0    0
H -1442.99275133 23.44689722 40.30406999     6    341    0    0    0
C -1439.24668056 24.59908529 39.14716847     2    341   345   346   347
H -1438.22764413 23.55627989 40.59812370     6    344    0    0    0
H -1438.02851509 24.51323813 37.46672749     6    344    0    0    0
C -1439.73874048 27.33528251 40.05315193     2    344   348   349   350
H -1440.85617046 28.42817186 38.67115105     6    347    0    0    0
H -1440.82615501 26.99304256 41.78448159     6    347    0    0    0
C -1437.29204267 28.80524111 40.42527498     1    347   351   352   353
H -1437.24105547 30.63315419 41.20681804     6    350    0    0    0
H -1436.42726289 29.00578169 38.59450854     6    350    0    0    0
H -1435.94209314 27.72153966 41.40321826     6    350    0    0    0
H -1443.65973223 7.10260900 14.70559199     6     355    0    0    0 
C -1445.34000475 8.01348939 15.50383673     1     354    356    357    358
H -1444.77470545 9.78952548 16.50425642     6     355    0    0    0
H -1446.13747602 8.63055117 13.78039181     6     355    0    0    0
C -1447.22099154 6.16679275 16.73450211     2     355    359    360    361
H -1448.98169239 5.81161506 15.60827476     6     358    0    0    0
H -1446.32672005 4.35332111 16.82408553     6     358    0    0    0
C -1448.06266272 6.93352610 19.32820860     2     358    362   363   364
H -1446.47671505 6.90864736 20.63637279     6     361    0    0    0
H -1448.54558498 8.84102626 19.39250813     6     361    0    0    0
C -1450.38283592 5.30423855 20.45265450     2     361   365   366   367
H -1451.86282803 5.24066283 19.14222964     6    364    0    0    0
H -1449.96745363 3.37535696 20.59909305     6    364    0    0    0
C -1451.36229704 6.27468951 22.98701547     2    364   368   369   370
H -1450.05365179 5.97851717 24.44875585     6    367    0    0    0
H -1451.63043065 8.33894201 22.75629970     6    367    0    0    0
C -1453.98495344 5.22936188 23.85000619     2    367   371   372   373
H -1455.48762083 5.43707358 22.48131061     6    370    0    0    0
H -1453.88841662 3.14453811 24.08203244     6    370    0    0    0
C -1454.52699414 6.28776207 26.45959709     2    370   374   375   376
H -1453.33076270 5.30839721 27.82092229     6    373    0    0    0
H -1454.02690004 8.38448677 26.71374429     6    373    0    0    0
C -1457.29110301 5.61343541 27.32990193     2    373   377   378   379
H -1458.53737121 6.62893111 25.96373896     6    376    0    0    0
H -1457.64088330 3.54052473 27.42596093     6    376    0    0    0
C -1457.79375493 6.57437970 30.01456838     2    376   380   381   382
H -1457.34831063 8.53269846 29.96926696     6    379    0    0    0
H -1459.86580862 6.56227722 30.19239344     6    379    0    0    0
C -1456.66528303 5.13041001 32.23845545     2    379   383   384   385
H -1455.77859028 3.41794279 31.63673386     6    382    0    0    0
H -1455.23643698 6.07466656 33.29733237     6    382    0    0    0
C -1458.51080659 4.81508301 34.46294900     2    382   386   387   388
H -1457.46683159 4.43538316 36.25828588     6    385    0    0    0
H -1459.38376313 6.80579535 34.89738107     6    385    0    0    0
C -1460.49646837 2.73115021 33.88178735     1    385   389   390   391
H -1462.11123175 2.36785745 35.25910083     6    388    0    0    0
H -1459.54602362 1.05793684 33.37013247     6    388    0    0    0
H -1461.49574842 3.11932568 31.92897452     6    388    0    0    0
H -1421.27159658 31.56063346 50.31216605     6     393    0    0    0 
C -1420.32890067 29.88778210 49.49272066     1     392    394    395    396
H -1418.37892609 29.91703942 50.04788745     6     393    0    0    0
H -1420.96778498 28.04957371 50.28659892     6     393    0    0    0
C -1420.86925899 29.86660620 46.67525298     2     393    397    398    399
H -1422.53299271 28.59798702 46.46812022     6     396    0    0    0
H -1421.46515275 31.69867019 45.84155791     6     396    0    0    0
C -1418.83064865 28.54412991 45.12121587     2     396    400   401   402
H -1417.02166103 29.46213214 45.31583826     6     399    0    0    0
H -1418.56085301 26.56775669 45.62905091     6     399    0    0    0
C -1419.27352686 28.68145095 42.30827174     2     399   403   404   405
H -1421.11101182 27.84180790 41.80186310     6    402    0    0    0
H -1419.50945175 30.72359421 41.86654374     6    402    0    0    0
C -1417.11398207 27.42012682 40.62220127     2    402   406   407   408
H -1415.33658410 28.02020000 41.44012944     6    405    0    0    0
H -1417.37775213 25.44066188 41.10951127     6    405    0    0    0
C -1417.46321920 28.29415119 37.93396930     2    405   409   410   411
H -1419.12095565 27.28447191 37.20989721     6    408    0    0    0
H -1417.62098970 30.45638242 37.63397863     6    408    0    0    0
C -1415.45735300 27.28916286 35.95844256     2    408   412   413   414
H -1413.48918422 27.94089788 36.36040602     6    411    0    0    0
H -1415.43358242 25.20521857 35.99094348     6    411    0    0    0
C -1416.19087096 27.93995034 33.17865435     2    411   415   416   417
H -1417.98910641 27.31755841 32.83361136     6    414    0    0    0
H -1416.13121888 29.85998135 32.61396387     6    414    0    0    0
C -1414.41106072 26.66983059 31.29284112     2    414   418   419   420
H -1412.49883195 27.37649451 31.41616536     6    417    0    0    0
H -1414.18654362 24.66642397 31.89227648     6    417    0    0    0
C -1415.45680451 26.90699151 28.56575689     2    417   421   422   423
H -1417.24336988 25.94721114 28.55589738     6    420    0    0    0
H -1415.93992206 28.77947036 27.95229684     6    420    0    0    0
C -1413.50196490 25.98880229 26.58605228     2    420   424   425   426
H -1413.84500827 26.71904168 24.64850761     6    423    0    0    0
H -1411.67796287 26.73864639 27.02235929     6    423    0    0    0
C -1413.24409578 23.18693708 26.41134557     1    423   427   428   429
H -1411.95666504 22.41772761 27.78746128     6    426    0    0    0
H -1412.57589947 22.67603223 24.46776863     6    426    0    0    0
H -1414.87276554 22.33404217 26.55410103     6    426    0    0    0
H -1426.68419437 25.86897858 9.64118095     6     431    0    0    0 
C -1428.09250919 26.77021404 10.68833191     1     430    432    433    434
H -1428.59016523 28.48241841 9.92914582     6     431    0    0    0
H -1429.87800979 25.57266159 10.74124014     6     431    0    0    0
C -1427.19788660 27.57857290 13.44163083     2     431    435    436    437
H -1426.24573834 26.11951689 14.24415794     6     434    0    0    0
H -1425.67610302 29.06308266 13.62190700     6     434    0    0    0
C -1429.34423125 28.45064811 15.15174955     2     434    438   439   440
H -1430.57090883 29.94613259 14.28255606     6     437    0    0    0
H -1430.47723207 26.78626550 15.30144462     6     437    0    0    0
C -1428.52411080 29.06133709 17.81393619     2     437   441   442   443
H -1430.06009831 28.70260634 19.00437109     6    440    0    0    0
H -1426.84782079 27.98163526 18.39893776     6    440    0    0    0
C -1427.62898417 31.82274113 18.08216369     2    440   444   445   446
H -1426.12265590 31.99931425 16.73164645     6    443    0    0    0
H -1429.31848346 32.85946862 17.46603959     6    443    0    0    0
C -1426.92584979 32.49901480 20.85165984     2    443   447   448   449
H -1428.44194550 32.33660455 22.20891199     6    446    0    0    0
H -1425.40628333 31.26339643 21.40879242     6    446    0    0    0
C -1425.76241415 35.14681386 20.91642510     2    446   450   451   452
H -1424.32796173 35.15469501 19.31114608     6    449    0    0    0
H -1427.23784461 36.35760684 20.37594254     6    449    0    0    0
C -1424.42524963 35.87949117 23.39653471     2    449   453   454   455
H -1425.98383862 36.10238350 24.73538652     6    452    0    0    0
H -1423.19673769 34.51858571 24.33893046     6    452    0    0    0
C -1423.04142271 38.37408213 23.12386035     2    452   456   457   458
H -1421.93645120 38.03868566 21.36586547     6    455    0    0    0
H -1424.13677650 40.14914955 22.94614264     6    455    0    0    0
C -1421.39322662 38.85733678 25.56884780     2    455   459   460   461
H -1420.81994208 40.84419499 25.36300325     6    458    0    0    0
H -1422.51557201 38.70172614 27.30409995     6    458    0    0    0
C -1418.97103501 37.02695433 25.62529277     2    458   462   463   464
H -1419.45503854 34.93893980 25.69235211     6    461    0    0    0
H -1417.95000793 37.27383414 23.95680219     6    461    0    0    0
C -1417.42197312 37.41631337 28.05754112     1    461   465   466   467
H -1418.60922443 37.19038323 29.69243234     6    464    0    0    0
H -1416.59718753 39.33864344 27.92299618     6    464    0    0    0
H -1415.77321015 36.15264909 28.09128679     6    464    0    0    0
H -1453.23679032 16.59230602 36.11960647     6     469    0    0    0 
C -1454.41090233 18.38775860 35.83431929     1     468    470    471    472
H -1456.12104966 18.11433484 36.93404327     6     469    0    0    0
H -1453.25591721 19.84323697 36.66025229     6     469    0    0    0
C -1455.04010472 18.67605690 33.00833007     2     469    473    474    475
H -1456.68368439 19.87313134 32.93221469     6     472    0    0    0
H -1453.49956557 19.66143357 32.22614276     6     472    0    0    0
C -1455.41744181 16.26626768 31.55036448     2     472    476   477   478
H -1453.71244556 15.11087412 32.11613447     6     475    0    0    0
H -1456.88316692 15.03680534 32.42467729     6     475    0    0    0
C -1455.78363463 16.56107435 28.68080638     2     475   479   480   481
H -1457.79615393 17.03692449 28.34498509     6    478    0    0    0
H -1454.46314057 18.12414420 28.18226635     6    478    0    0    0
C -1455.15870076 14.40553317 26.85764905     2    478   482   483   484
H -1453.22302337 13.86086191 26.97381143     6    481    0    0    0
H -1456.09795140 12.69131854 27.30346288     6    481    0    0    0
C -1455.83315307 14.92971194 24.16146656     2    481   485   486   487
H -1457.78705919 14.76057444 24.02688110     6    484    0    0    0
H -1455.39663144 16.84339980 23.67097529     6    484    0    0    0
C -1454.53434204 13.15264776 22.40992652     2    484   488   489   490
H -1452.51919006 13.46774391 22.61732175     6    487    0    0    0
H -1454.98156430 11.24793055 23.01558233     6    487    0    0    0
C -1455.40351140 13.38459981 19.71003068     2    487   491   492   493
H -1457.40203355 12.88919128 19.30563144     6    490    0    0    0
H -1455.22877780 15.30142137 18.89898354     6    490    0    0    0
C -1453.71168638 11.64895103 18.15129451     2    490   494   495   496
H -1451.71022511 12.09738099 18.36614568     6    493    0    0    0
H -1453.69235245 9.75372661 19.00077273     6    493    0    0    0
C -1454.61892986 11.66610993 15.25769229     2    493   497   498   499
H -1456.64337890 11.34745343 15.17326346     6    496    0    0    0
H -1454.41254833 13.38612685 14.22053402     6    496    0    0    0
C -1453.39983395 9.57908657 13.83909744     2    496   500   501   502
H -1451.38735182 9.92386561 14.05692394     6    499    0    0    0
H -1453.64472818 7.68750124 14.49790244     6    499    0    0    0
C -1454.19818893 9.58575057 11.05887947     1    499   503   504   505
H -1454.59612745 11.57268935 10.32230004     6    502    0    0    0
H -1455.86515770 8.52505174 10.69928424     6    502    0    0    0
H -1452.85952544 8.59337194 9.82520443     6    502    0    0    0
H -1416.65460385 13.66005636 -1.78090453     6     507    0    0    0 
C -1416.67965819 15.57885877 -0.96346979     1     506    508    509    510
H -1415.17231629 16.60535691 -1.85952763     6     507    0    0    0
H -1418.41301629 16.53080521 -1.54835004     6     507    0    0    0
C -1416.68212035 15.37309324 1.81909626     2     507    511    512    513
H -1418.22653983 14.11093640 2.39018300     6     510    0    0    0
H -1415.04581465 14.31810631 2.37995331     6     510    0    0    0
C -1417.02793682 17.97233446 3.14094822     2     510    514   515   516
H -1415.13834373 18.71716463 2.96298644     6     513    0    0    0
H -1418.29847543 19.08916029 1.86329134     6     513    0    0    0
C -1417.82256129 18.00683120 5.79187160     2     513   517   518   519
H -1419.62844500 16.89822535 6.13646121     6    516    0    0    0
H -1416.40332521 17.13985770 6.95836205     6    516    0    0    0
C -1418.04847680 20.63685867 6.89964349     2    516   520   521   522
H -1416.42420831 21.81956583 6.40619742     6    519    0    0    0
H -1419.46492236 21.29829877 5.69918307     6    519    0    0    0
C -1418.89066208 20.83321584 9.72723376     2    519   523   524   525
H -1420.70490663 19.94890261 9.92626524     6    522    0    0    0
H -1417.72216560 19.60804738 10.88459104     6    522    0    0    0
C -1418.83715980 23.40904856 10.87640568     2    522   526   527   528
H -1417.09518441 24.45400879 10.65501427     6    525    0    0    0
H -1420.35011911 24.62890103 10.09357506     6    525    0    0    0
C -1419.58981571 23.31574885 13.74946840     2    525   529   530   531
H -1421.42998728 22.35162552 13.96443618     6    528    0    0    0
H -1417.99001551 22.30922791 14.78177114     6    528    0    0    0
C -1419.76693579 25.98958250 14.96137990     2    528   532   533   534
H -1418.27205757 27.23445359 14.29176351     6    531    0    0    0
H -1421.48523394 27.00207732 14.23334978     6    531    0    0    0
C -1420.09375339 25.81946480 17.88199235     2    531   535   536   537
H -1421.59196458 24.60975937 18.69564605     6    534    0    0    0
H -1418.36246184 25.00612266 18.46598315     6    534    0    0    0
C -1420.48853931 28.48769318 19.00995170     2    534   538   539   540
H -1419.09066145 29.78255685 18.60079121     6    537    0    0    0
H -1422.06289625 29.45246339 18.38056162     6    537    0    0    0
C -1420.63104659 28.32779410 21.93488600     1    537   541   542   543
H -1420.23239153 30.17855860 22.77674265     6    540    0    0    0
H -1419.17472868 27.10157978 22.75637199     6    540    0    0    0
H -1422.44903030 27.75716867 22.72444547     6    540    0    0    0
H -1428.56342479 29.15483199 37.61596370     6     545    0    0    0 
C -1427.55957192 27.90461340 39.03120634     1     544    546    547    548
H -1425.99938670 27.00993509 38.32428563     6     545    0    0    0
H -1426.75051073 29.02219673 40.56699085     6     545    0    0    0
C -1429.61194046 26.33366678 40.44463658     2     545    549    550    551
H -1430.88927336 27.61842478 41.31755659     6     548    0    0    0
H -1430.61565974 25.28025391 38.88073529     6     548    0    0    0
C -1428.59662555 24.36598842 42.37762176     2     548    552   553   554
H -1427.81003688 22.90388056 41.19586115     6     551    0    0    0
H -1427.18128986 25.07636361 43.82316208     6     551    0    0    0
C -1430.79807628 23.25823003 43.86433288     2     551   555   556   557
H -1431.97976067 24.73490379 44.67625382     6    554    0    0    0
H -1432.05957390 22.09294948 42.65263964     6    554    0    0    0
C -1429.81553518 21.55426121 46.01441343     2    554   558   559   560
H -1428.61872170 20.16008731 45.23718870     6    557    0    0    0
H -1428.83777846 22.54828292 47.41044363     6    557    0    0    0
C -1432.00980788 20.23922618 47.55416787     2    557   561   562   563
H -1432.93051627 21.71783728 48.75851784     6    560    0    0    0
H -1433.47892753 19.52007383 46.31106446     6    560    0    0    0
C -1430.92458900 18.17100727 49.29486493     2    560   564   565   566
H -1429.46502177 17.12688953 48.42030557     6    563    0    0    0
H -1429.93956916 19.03036683 50.75439787     6    563    0    0    0
C -1432.98205906 16.35594592 50.09253510     2    563   567   568   569
H -1434.72590651 17.44045318 50.61399452     6    566    0    0    0
H -1433.60122266 15.16596918 48.49871647     6    566    0    0    0
C -1431.73566487 14.72676097 52.19913285     2    566   570   571   572
H -1430.30824966 13.43457814 51.40369596     6    569    0    0    0
H -1431.05726698 15.88138294 53.76255842     6    569    0    0    0
C -1433.57279197 12.93758964 53.32953380     2    569   573   574   575
H -1435.38483822 13.87345824 53.48778931     6    572    0    0    0
H -1433.79874529 11.30762905 52.06363735     6    572    0    0    0
C -1432.94247646 12.01699022 56.14730188     2    572   576   577   578
H -1433.23924154 13.59278108 57.41481396     6    575    0    0    0
H -1434.20953202 10.51041107 56.51749824     6    575    0    0    0
C -1430.33499869 10.81144376 56.37080586     1    575   579   580   581
H -1430.13603790 9.10454285 55.26289500     6    578    0    0    0
H -1429.90912993 10.30849153 58.34078157     6    578    0    0    0
H -1428.82250324 12.06833952 55.88096715     6    578    0    0    0
H -1455.27813835 -4.63991597 28.53880272     6     583    0    0    0 
C -1454.60845708 -5.28622171 30.33369656     1     582    584    585    586
H -1455.57853916 -6.96800888 30.82752218     6     583    0    0    0
H -1452.78145406 -5.86717365 29.73460960     6     583    0    0    0
C -1454.67780689 -3.10438234 32.34986215     2     583    587    588    589
H -1453.92913918 -1.50180645 31.52415829     6     586    0    0    0
H -1456.62690932 -2.63796663 32.76616910     6     586    0    0    0
C -1453.07718768 -3.69896129 34.65295352     2     586    590   591   592
H -1453.06429115 -5.71802033 35.06064096     6     589    0    0    0
H -1451.24053502 -3.34362842 33.81645309     6     589    0    0    0
C -1453.84062567 -1.83319965 36.87105697     2     589   593   594   595
H -1453.89302505 0.16786350 36.29516444     6    592    0    0    0
H -1455.59699464 -2.43961777 37.70784485     6    592    0    0    0
C -1451.92522947 -1.98444453 39.11265278     2    592   596   597   598
H -1451.92632922 -3.83612320 39.94378706     6    595    0    0    0
H -1449.97844728 -1.56577846 38.76293848     6    595    0    0    0
C -1452.76348576 -0.15402331 41.21762930     2    595   599   600   601
H -1453.05494532 1.67155814 40.44038480     6    598    0    0    0
H -1454.66209565 -0.63212780 41.97193183     6    598    0    0    0
C -1450.75038706 -0.15133464 43.28305062     2    598   602   603   604
H -1450.71640059 -1.77404808 44.52319778     6    601    0    0    0
H -1448.87354473 -0.19691701 42.14532690     6    601    0    0    0
C -1450.82772168 2.22455991 45.01984519     2    601   605   606   607
H -1449.55028019 3.63357785 44.28241331     6    604    0    0    0
H -1452.62838725 3.12495494 45.11632799     6    604    0    0    0
C -1449.93186937 1.75509466 47.65670700     2    604   608   609   610
H -1450.82017855 0.21901339 48.54523799     6    607    0    0    0
H -1448.05075655 0.92984267 47.60818311     6    607    0    0    0
C -1449.84522818 4.14286581 49.27794222     2    607   611   612   613
H -1448.55974752 5.41933584 48.49003013     6    610    0    0    0
H -1451.65332585 5.01334367 49.51798309     6    610    0    0    0
C -1448.86187297 3.65320502 51.91728394     2    610   614   615   616
H -1449.98822669 2.37385583 53.10629766     6    613    0    0    0
H -1447.07414996 2.85433942 51.80690310     6    613    0    0    0
C -1448.72272171 6.26547121 53.36610904     1    613   617   618   619
H -1447.93952369 5.77341531 55.19983127     6    616    0    0    0
H -1450.57825227 7.20463797 53.31924271     6    616    0    0    0
H -1447.73797082 7.78476535 52.39666970     6    616    0    0    0
H -1409.45406629 3.10660409 29.98231157     6     621    0    0    0 
C -1409.92297064 3.47823740 31.94163784     1     620    622    623    624
H -1408.45488027 2.37707684 32.95498488     6     621    0    0    0
H -1409.53357125 5.36345701 32.63760801     6     621    0    0    0
C -1412.64214796 2.82458221 32.72843681     2     621    625    626    627
H -1413.07223824 4.06273920 34.44897518     6     624    0    0    0
H -1413.80350499 3.50916900 31.22522558     6     624    0    0    0
C -1412.95848887 0.06518996 33.50425943     2     624    628   629   630
H -1411.47803061 -0.77687885 32.31940238     6     627    0    0    0
H -1412.73850008 -0.19368530 35.52798256     6     627    0    0    0
C -1415.49727235 -1.06240999 32.84627548     2     627   631   632   633
H -1417.11398638 -0.07313420 33.63779016     6    630    0    0    0
H -1415.90253776 -1.07182707 30.76143984     6    630    0    0    0
C -1415.42615426 -3.90926444 33.56402436     2    630   634   635   636
H -1413.97709854 -4.73005790 32.48695025     6    633    0    0    0
H -1414.81293347 -4.24652836 35.52019646     6    633    0    0    0
C -1417.69211880 -5.60867565 32.95520572     2    633   637   638   639
H -1419.45826054 -4.96160876 33.91631644     6    636    0    0    0
H -1417.97837819 -5.21134256 30.85917854     6    636    0    0    0
C -1417.09485500 -8.43608829 33.14686437     2    636   640   641   642
H -1415.48844027 -8.85004516 31.98812630     6    639    0    0    0
H -1416.31324401 -8.95257357 35.01194071     6    639    0    0    0
C -1419.36948583 -10.01752783 32.50668371     2    639   643   644   645
H -1420.86290036 -9.47583197 33.73370746     6    642    0    0    0
H -1420.06654105 -9.33631877 30.77638225     6    642    0    0    0
C -1418.78326591 -12.77937363 32.65140962     2    642   646   647   648
H -1420.21790150 -13.86945546 31.64547346     6    645    0    0    0
H -1417.06002108 -13.09097038 31.75683085     6    645    0    0    0
C -1418.77985793 -13.75726176 35.36861791     2    645   649   650   651
H -1417.49444421 -12.51493520 36.36581256     6    648    0    0    0
H -1420.54907734 -13.31971970 36.37701830     6    648    0    0    0
C -1418.20088164 -16.64801431 35.32003973     2    648   652   653   654
H -1419.50146475 -17.68170612 34.14872750     6    651    0    0    0
H -1416.41337214 -16.72131453 34.22058013     6    651    0    0    0
C -1417.62552454 -17.38761974 38.07711167     1    651   655   656   657
H -1415.65422092 -16.81448190 38.66467968     6    654    0    0    0
H -1417.69222420 -19.45236767 38.29075156     6    654    0    0    0
H -1419.00153631 -16.70308265 39.43523725     6    654    0    0    0
H -1446.83348571 -2.04737971 32.66129254     6     659    0    0    0 
C -1445.27758686 -0.88810100 33.31611607     1     658    660    661    662
H -1444.13594821 -0.30229807 31.70111747     6     659    0    0    0
H -1446.04932134 0.66727736 34.24502741     6     659    0    0    0
C -1443.82473827 -2.38683695 35.39134887     2     659    663    664    665
H -1445.27717736 -3.08906717 36.74862696     6     662    0    0    0
H -1442.73410743 -3.93106997 34.36126908     6     662    0    0    0
C -1441.81180455 -0.74249114 36.86229112     2     662    666   667   668
H -1440.51235070 -2.13941248 37.91521380     6     665    0    0    0
H -1440.45608557 0.13254939 35.59395774     6     665    0    0    0
C -1442.94750784 1.18948073 38.81450887     2     665   669   670   671
H -1444.50786800 2.03261477 37.98566110     6    668    0    0    0
H -1444.02732212 0.43628291 40.58090958     6    668    0    0    0
C -1440.96253187 3.19863628 39.53931561     2    668   672   673   674
H -1439.25559629 2.45873295 39.97602239     6    671    0    0    0
H -1440.90791545 4.45133050 37.82143311     6    671    0    0    0
C -1441.80585333 4.57486595 41.99639052     2    671   675   676   677
H -1440.61982111 6.21174940 42.17694671     6    674    0    0    0
H -1443.73110552 5.22673223 41.83498938     6    674    0    0    0
C -1441.67615607 2.97179246 44.39703693     2    674   678   679   680
H -1443.22342867 1.70521398 44.32737976     6    677    0    0    0
H -1440.11176240 1.82493511 44.30773355     6    677    0    0    0
C -1441.76867899 4.64993308 46.82444835     2    677   681   682   683
H -1440.47051257 6.20189212 46.71512919     6    680    0    0    0
H -1443.75167869 5.54723547 46.89201254     6    680    0    0    0
C -1441.13512846 3.26035899 49.25052292     2    680   684   685   686
H -1442.75508884 2.07654977 49.80171958     6    683    0    0    0
H -1439.51297944 2.12531568 48.66782686     6    683    0    0    0
C -1440.20065748 5.03342770 51.29758675     2    683   687   688   689
H -1439.02511928 6.54499580 50.60754602     6    686    0    0    0
H -1441.78029395 6.08288712 52.11455406     6    686    0    0    0
C -1438.85852485 3.66548260 53.59008424     2    686   690   691   692
H -1440.22295569 2.21464845 54.43996942     6    689    0    0    0
H -1437.40379184 2.47804541 52.88778350     6    689    0    0    0
C -1437.64055825 5.48949060 55.45503732     1    689   693   694   695
H -1436.84367002 4.18896064 56.84561340     6    692    0    0    0
H -1439.23001044 6.58982360 56.14341357     6    692    0    0    0
H -1436.32951675 6.90602812 54.54915053     6    692    0    0    0
H -1432.93088195 21.26072274 57.99987635     6     697    0    0    0 
C -1432.69537585 23.09932578 57.72339704     1     696    698    699    700
H -1434.54828195 23.91731825 58.45495585     6     697    0    0    0
H -1431.10495279 23.37653339 58.99817258     6     697    0    0    0
C -1432.14532299 23.75428077 54.95245356     2     697    701    702    703
H -1430.46502009 22.43606563 54.57200103     6     700    0    0    0
H -1433.72324672 22.90490055 53.81601824     6     700    0    0    0
C -1431.41596145 26.46975438 54.53331181     2     700    704   705   706
H -1432.71895423 27.66307704 55.51430954     6     703    0    0    0
H -1429.61724629 26.86057569 55.42878531     6     703    0    0    0
C -1431.11766294 26.99428681 51.72344917     2     703   707   708   709
H -1429.51036537 25.84652082 50.89080873     6    706    0    0    0
H -1432.96065396 26.78799215 50.50219593     6    706    0    0    0
C -1430.15305149 29.70448278 51.43465235     2    706   710   711   712
H -1431.70032466 30.89157026 52.40293532     6    709    0    0    0
H -1428.44285880 29.93436102 52.64353387     6    709    0    0    0
C -1429.88769857 30.60747336 48.65611885     2    709   713   714   715
H -1428.97888728 29.18945753 47.39760306     6    712    0    0    0
H -1431.69705865 30.95771236 47.76647595     6    712    0    0    0
C -1428.21620249 32.96346034 48.40742476     2    712   716   717   718
H -1429.35745581 34.44216562 49.10668825     6    715    0    0    0
H -1426.57263228 33.06843248 49.48444690     6    715    0    0    0
C -1427.30200706 33.49257501 45.86470450     2    715   719   720   721
H -1426.19122040 31.98574019 45.07832891     6    718    0    0    0
H -1429.04745697 33.88377061 44.76253723     6    718    0    0    0
C -1425.72125496 35.90633939 45.77077373     2    718   722   723   724
H -1426.70297550 37.49401349 46.40172439     6    721    0    0    0
H -1424.27144675 35.87334750 47.34726004     6    721    0    0    0
C -1424.50459987 36.35392854 43.15064054     2    721   725   726   727
H -1423.20580027 34.74063949 42.59032008     6    724    0    0    0
H -1426.02987863 36.58184225 41.86806093     6    724    0    0    0
C -1423.21096031 38.94770294 43.31691242     2    724   728   729   730
H -1421.94733442 38.93355790 44.84053951     6    727    0    0    0
H -1421.84744938 39.16304438 41.84239914     6    727    0    0    0
C -1425.20707090 41.11158951 43.54876559     1    727   731   732   733
H -1425.35881196 41.95541087 45.40860765     6    730    0    0    0
H -1427.06044661 40.61425978 43.31635011     6    730    0    0    0
H -1424.86358401 42.56737886 42.19293613     6    730    0    0    0
H -1446.45598450 21.59814667 25.24534534     6     735    0    0    0 
C -1448.20116459 22.42976844 24.35737081     1     734    736    737    738
H -1449.21812431 23.48196672 25.72402462     6     735    0    0    0
H -1447.61182220 23.84723139 23.04833586     6     735    0    0    0
C -1449.73832473 20.24415755 23.07555647     2     735    739    740    741
H -1449.72032699 18.55658263 24.28898565     6     738    0    0    0
H -1451.72608500 20.61932901 22.73679040     6     738    0    0    0
C -1448.59189364 19.76754869 20.43723988     2     738    742   743   744
H -1449.39708623 21.03529036 19.10277204     6     741    0    0    0
H -1446.50100033 19.81066975 20.54702388     6     741    0    0    0
C -1448.98304554 16.88228562 19.71546576     2     741   745   746   747
H -1448.57162885 15.79282737 21.49529409     6    744    0    0    0
H -1450.96970946 16.52135399 19.52317637     6    744    0    0    0
C -1447.47386152 15.89800757 17.44556724     2    744   748   749   750
H -1445.64631935 16.98969433 17.48604099     6    747    0    0    0
H -1447.11055569 13.89022985 17.65229361     6    747    0    0    0
C -1448.78965540 16.49790936 14.85363822     2    747   751   752   753
H -1450.66593822 15.78110288 15.02196086     6    750    0    0    0
H -1448.72366141 18.41788382 14.38500058     6    750    0    0    0
C -1447.32248667 15.12544851 12.89293166     2    750   754   755   756
H -1445.21679307 15.30253896 13.04395059     6    753    0    0    0
H -1447.61881140 13.07153296 12.96242064     6    753    0    0    0
C -1447.91327318 15.90183645 10.16842277     2    753   757   758   759
H -1449.92814753 15.53084321 9.87465667     6    756    0    0    0
H -1447.82093271 17.96236169 9.87774318     6    756    0    0    0
C -1446.71100325 14.28578849 8.10482581     2    756   760   761   762
H -1444.81040336 14.02554796 8.70585767     6    759    0    0    0
H -1447.63175278 12.44842493 7.92812318     6    759    0    0    0
C -1446.15158290 15.47499079 5.51840691     2    759   763   764   765
H -1447.91010519 16.27986530 4.80893453     6    762    0    0    0
H -1444.52447551 16.85458702 5.72818740     6    762    0    0    0
C -1445.44462521 13.57139334 3.55602193     2    762   766   767   768
H -1443.82350306 12.56170316 4.26975534     6    765    0    0    0
H -1446.94655117 12.06501544 3.35780287     6    765    0    0    0
C -1444.94017266 15.05381723 1.14055440     1    765   769   770   771
H -1446.63630094 15.97014842 0.26827452     6    768    0    0    0
H -1444.02340324 13.94781325 -0.32538086     6    768    0    0    0
H -1443.36826471 16.34025371 1.54529349     6    768    0    0    0
H -1410.63327718 -7.75018000 29.20144788     6     773    0    0    0 
C -1408.75889587 -7.03742702 28.80877885     1     772    774    775    776
H -1408.09398617 -5.62429971 30.15260241     6     773    0    0    0
H -1407.48790187 -8.66806774 28.93423918     6     773    0    0    0
C -1408.88946704 -5.93019546 26.14851365     2     773    777    778    779
H -1407.11266403 -5.87708621 25.41145935     6     776    0    0    0
H -1409.95129368 -6.97564125 24.88481310     6     776    0    0    0
C -1409.91449755 -3.25017884 26.18230183     2     776    780   781   782
H -1411.91004395 -3.49027097 26.61167560     6     779    0    0    0
H -1409.05026256 -2.47922702 27.86833700     6     779    0    0    0
C -1409.47771329 -1.62801802 23.85216063     2     779   783   784   785
H -1407.75251086 -2.33761885 22.81812856     6    782    0    0    0
H -1410.96531666 -2.04873196 22.50670330     6    782    0    0    0
C -1409.64689386 1.18994161 24.41384671     2    782   786   787   788
H -1410.45624554 1.99628747 22.73433695     6    785    0    0    0
H -1410.98371172 1.57628860 25.99353356     6    785    0    0    0
C -1407.13956447 2.44680928 25.33704825     2    785   789   790   791
H -1406.26198754 1.44636721 27.01405414     6    788    0    0    0
H -1405.80393001 2.26383849 23.75638625     6    788    0    0    0
C -1407.57454475 5.37322709 25.69241353     2    788   792   793   794
H -1408.83655812 6.05716718 24.08194113     6    791    0    0    0
H -1408.72715674 5.74004763 27.37716655     6    791    0    0    0
C -1405.09122950 6.86917115 25.96266019     2    791   795   796   797
H -1403.71895732 5.70459343 27.07833188     6    794    0    0    0
H -1404.40732681 7.15472335 23.95371033     6    794    0    0    0
C -1405.23407247 9.47533336 27.21484884     2    794   798   799   800
H -1406.86104092 10.63308235 26.62589858     6    797    0    0    0
H -1405.44147787 9.29805870 29.24889439     6    797    0    0    0
C -1402.78123748 11.07161791 26.78969568     2    797   801   802   803
H -1401.15686275 9.75075566 26.85907869     6    800    0    0    0
H -1402.72600632 11.60399607 24.79222219     6    800    0    0    0
C -1402.37297220 13.34577519 28.50217365     2    800   804   805   806
H -1404.32006704 14.39873472 28.67936248     6    803    0    0    0
H -1401.97892784 12.60360735 30.39593227     6    803    0    0    0
C -1400.24776511 15.19806015 27.84947453     1    803   807   808   809
H -1399.98940873 15.96529908 25.99218811     6    806    0    0    0
H -1398.40790908 14.27569162 28.30840207     6    806    0    0    0
H -1400.42580940 16.95157472 29.06816029     6    806    0    0    0
H -1450.06497170 9.09726039 33.87494755     6     811    0    0    0 
C -1450.59839919 7.18881946 33.32239114     1     810    812    813    814
H -1451.60663067 6.20275291 34.79223655     6     811    0    0    0
H -1451.83192985 7.24113774 31.64986454     6     811    0    0    0
C -1448.33078353 5.64885085 32.65465798     2     811    815    816    817
H -1446.87789731 5.38760041 34.04240148     6     814    0    0    0
H -1449.05585723 3.69998404 32.20533816     6     814    0    0    0
C -1446.98805514 6.47254017 30.29098114     2     814    818   819   820
H -1448.44142915 6.18546704 28.84447976     6     817    0    0    0
H -1446.76315873 8.59773334 30.47082454     6     817    0    0    0
C -1444.47928840 5.12438708 29.61051733     2     817   821   822   823
H -1443.11351817 5.46742370 31.09338990     6    820    0    0    0
H -1445.04314700 3.14307976 29.36009001     6    820    0    0    0
C -1443.48504520 6.44253101 27.22971907     2    820   824   825   826
H -1445.10573291 6.99666147 26.05819067     6    823    0    0    0
H -1442.52779247 8.07669686 27.77950268     6    823    0    0    0
C -1441.37716741 5.15345553 25.75713649     2    823   827   828   829
H -1439.76925477 4.66859334 26.89255926     6    826    0    0    0
H -1442.01646673 3.47145937 25.28102111     6    826    0    0    0
C -1440.65616275 6.52812376 23.41421823     2    826   830   831   832
H -1442.33347787 7.03596409 22.37229060     6    829    0    0    0
H -1439.64137699 8.22095244 23.88846457     6    829    0    0    0
C -1438.91282802 4.96699177 21.67170316     2    829   833   834   835
H -1437.41679597 4.04757169 22.53803562     6    832    0    0    0
H -1440.13666330 3.41971323 21.01323678     6    832    0    0    0
C -1438.06877691 6.46830834 19.40421734     2    832   836   837   838
H -1439.73572301 7.42749476 18.76020259     6    835    0    0    0
H -1436.62855142 7.93433861 20.01534944     6    835    0    0    0
C -1436.64850236 4.91561590 17.23665477     2    835   839   840   841
H -1434.52362211 4.89327547 17.83238770     6    838    0    0    0
H -1437.33118350 2.99066095 17.60317706     6    838    0    0    0
C -1437.09594885 6.18418408 14.66366493     2    838   842   843   844
H -1439.11683900 6.22783125 14.22756008     6    841    0    0    0
H -1436.43101614 8.28643234 14.80226852     6    841    0    0    0
C -1435.41692245 4.77040630 12.71926609     1    841   845   846   847
H -1433.48327171 5.40365348 12.77649736     6    844    0    0    0
H -1436.21536686 5.01309454 10.84457777     6    844    0    0    0
H -1435.03409758 2.78882806 12.95248830     6    844    0    0    0
H -1457.22638221 -5.44813141 60.88852752     6     849    0    0    0 
C -1455.92728477 -6.05285867 62.29945381     1     848    850    851    852
H -1456.76415449 -5.79029216 64.06521956     6     849    0    0    0
H -1455.72644341 -8.02673430 61.63944931     6     849    0    0    0
C -1453.44525154 -4.62763268 62.12129078     2     849    853    854    855
H -1453.45393971 -2.75310333 62.76442526     6     852    0    0    0
H -1452.14109247 -5.46814718 63.41485084     6     852    0    0    0
C -1452.31002413 -4.88101767 59.46076233     2     852    856   857   858
H -1452.15164095 -6.93231340 58.85414206     6     855    0    0    0
H -1453.57717440 -3.99203300 58.12859453     6     855    0    0    0
C -1449.84344629 -3.56192809 59.23454316     2     855   859   860   861
H -1450.14666715 -1.53956741 59.04269605     6    858    0    0    0
H -1448.71796229 -3.82049738 61.00898057     6    858    0    0    0
C -1448.34781164 -4.17394439 56.96210615     2    858   862   863   864
H -1447.42021442 -5.99665992 57.47191701     6    861    0    0    0
H -1449.32536623 -4.52201490 55.27417652     6    861    0    0    0
C -1446.20758585 -2.25132367 56.43040626     2    861   865   866   867
H -1446.86011036 -0.26951056 56.01153053     6    864    0    0    0
H -1445.33408325 -2.17721343 58.42802966     6    864    0    0    0
C -1444.08737427 -2.98403293 54.53832574     2    864   868   869   870
H -1442.75305675 -1.54246737 54.66097133     6    867    0    0    0
H -1443.17039768 -4.61461713 55.33700975     6    867    0    0    0
C -1445.13104087 -3.46193346 51.86167838     2    867   871   872   873
H -1446.80517158 -4.73365379 51.92255844     6    870    0    0    0
H -1445.75727768 -1.62554947 51.15997832     6    870    0    0    0
C -1443.16966785 -4.44883508 49.96463071     2    870   874   875   876
H -1441.74797850 -2.96104501 49.74156122     6    873    0    0    0
H -1442.33481140 -6.15879809 50.75428641     6    873    0    0    0
C -1444.39099356 -4.96846440 47.37510542     2    873   877   878   879
H -1445.45439109 -6.65456461 47.87253848     6    876    0    0    0
H -1445.70775822 -3.50292077 46.88154767     6    876    0    0    0
C -1442.66515471 -5.68429269 45.24161971     2    876   880   881   882
H -1441.20657197 -4.26902654 45.01740839     6    879    0    0    0
H -1441.77453720 -7.50221992 45.50937449     6    879    0    0    0
C -1444.12946333 -5.99804207 42.76972624     1    879   883   884   885
H -1444.64715586 -4.08301709 41.92808615     6    882    0    0    0
H -1445.66919369 -7.31601939 43.14338577     6    882    0    0    0
H -1442.88504721 -6.72817845 41.28120932     6    882    0    0    0
H -1430.29392670 6.51959319 24.76586577     6     887    0    0    0 
C -1429.97606665 5.14130001 26.15929862     1     886    888    889    890
H -1430.80604829 3.44358324 25.33969947     6     887    0    0    0
H -1427.88008553 4.66842695 26.24082410     6     887    0    0    0
C -1430.94290245 5.85175319 28.79824341     2     887    891    892    893
H -1430.12349826 4.74219299 30.42799191     6     890    0    0    0
H -1430.15630651 7.67787311 29.11661576     6     890    0    0    0
C -1433.74261758 6.26237744 28.74473036     2     890    894   895   896
H -1434.09814936 7.77028272 27.27399259     6     893    0    0    0
H -1434.98646854 4.68485048 27.99764510     6     893    0    0    0
C -1434.74984958 7.27062784 31.26939448     2     893   897   898   899
H -1434.69637391 5.60872449 32.64149645     6    896    0    0    0
H -1433.51285060 8.58237508 32.34833158     6    896    0    0    0
C -1437.44640953 8.45646353 31.16928349     2    896   900   901   902
H -1437.22539782 10.06210815 29.84867564     6    899    0    0    0
H -1438.97035493 7.21689489 30.47498329     6    899    0    0    0
C -1438.08477479 9.33721276 33.79653892     2    899   903   904   905
H -1437.77665454 7.75260868 34.94574999     6    902    0    0    0
H -1436.98982221 10.87884533 34.35891633     6    902    0    0    0
C -1440.84044481 10.17091579 34.15179654     2    902   906   907   908
H -1441.27056198 11.60175898 32.62150563     6    905    0    0    0
H -1441.93449278 8.32237841 34.08999570     6    905    0    0    0
C -1441.46408125 11.13796939 36.94187687     2    905   909   910   911
H -1440.97101873 9.55518424 38.13926034     6    908    0    0    0
H -1440.39034059 12.89604221 37.34178660     6    908    0    0    0
C -1444.27836471 11.77929231 37.37278651     2    908   912   913   914
H -1444.74966545 13.19393138 36.02183837     6    911    0    0    0
H -1445.26341047 10.04130560 37.14814997     6    911    0    0    0
C -1444.79669005 12.68338639 40.00683930     2    911   915   916   917
H -1443.53043849 11.88742567 41.43605432     6    914    0    0    0
H -1444.25471575 14.64431716 40.03076980     6    914    0    0    0
C -1447.58302809 12.41078061 40.88633664     2    914   918   919   920
H -1447.52570804 13.00384247 42.87213095     6    917    0    0    0
H -1448.75625376 13.85403854 39.95084475     6    917    0    0    0
C -1448.77745874 9.74924591 40.73302557     1    917   921   922   923
H -1447.74354381 8.40128474 41.75149566     6    920    0    0    0
H -1448.83279144 9.01358829 38.81104899     6    920    0    0    0
H -1450.78730542 10.00873929 41.56219659     6    920    0    0    0
H -1431.37175986 -16.02247662 40.09112009     6     925    0    0    0 
C -1431.18712647 -17.60304312 41.36707137     1     924    926    927    928
H -1432.71093408 -18.97647661 40.99852586     6     925    0    0    0
H -1429.31389283 -18.44771154 40.94032125     6     925    0    0    0
C -1431.44792999 -16.63854597 43.95706047     2     925    929    930    931
H -1431.38302158 -18.18805337 45.20512802     6     928    0    0    0
H -1429.63774700 -15.75525329 44.23126932     6     928    0    0    0
C -1433.79415261 -14.71015594 44.29857388     2     928    932   933   934
H -1435.34644269 -15.40810853 43.24779058     6     931    0    0    0
H -1434.20313683 -14.51645859 46.36921076     6     931    0    0    0
C -1433.35456246 -12.04211362 43.27501303     2     931   935   936   937
H -1432.61407918 -10.85111517 44.67896022     6    934    0    0    0
H -1431.79370353 -11.66408077 41.77910943     6    934    0    0    0
C -1435.86770697 -11.15191709 42.10311936     2    934   938   939   940
H -1437.37342298 -11.51143004 43.49382290     6    937    0    0    0
H -1435.72294723 -9.18405425 42.10404539     6    937    0    0    0
C -1436.46946526 -11.94059127 39.37723680     2    937   941   942   943
H -1435.03315203 -11.02752348 38.24502121     6    940    0    0    0
H -1436.29706293 -13.98171836 39.14125277     6    940    0    0    0
C -1439.05923903 -10.91768019 38.30631410     2    940   944   945   946
H -1440.63172552 -11.49643081 39.51176325     6    943    0    0    0
H -1439.04069769 -8.67827302 38.46272132     6    943    0    0    0
C -1439.58186514 -11.65554800 35.56907729     2    943   947   948   949
H -1437.96344709 -10.93884565 34.42060505     6    946    0    0    0
H -1439.84984055 -13.65427250 35.31941127     6    946    0    0    0
C -1441.82035668 -10.13910482 34.57896000     2    946   950   951   952
H -1443.49506261 -10.16313719 35.68109906     6    949    0    0    0
H -1440.93813789 -8.31452489 34.68021110     6    949    0    0    0
C -1442.46633060 -10.71383287 31.79987177     2    949   953   954   955
H -1441.02129951 -9.94142384 30.60799132     6    952    0    0    0
H -1442.38242947 -12.75947519 31.56702313     6    952    0    0    0
C -1445.03627143 -9.68609708 30.84473848     2    952   956   957   958
H -1445.86503245 -11.15616145 29.69192753     6    955    0    0    0
H -1446.27830375 -9.20372141 32.41258528     6    955    0    0    0
C -1445.05350016 -7.30064797 29.14554880     1    955   959   960   961
H -1447.01431873 -6.66415774 28.49742278     6    958    0    0    0
H -1443.79146290 -7.71771899 27.58674995     6    958    0    0    0
H -1444.60052391 -5.67708917 30.35099084     6    958    0    0    0
H -1436.14518576 22.82343809 19.83915284     6     963    0    0    0 
C -1434.42077398 22.84496192 18.74029507     1     962    964    965    966
H -1434.96879438 21.56868234 17.27307051     6     963    0    0    0
H -1434.10829259 24.57233015 17.73985166     6     963    0    0    0
C -1432.11349922 22.16554044 20.45918387     2     963    967    968    969
H -1432.29070180 20.35011682 21.25092554     6     966    0    0    0
H -1430.41322815 22.29089877 19.31208834     6     966    0    0    0
C -1431.94995343 23.96303755 22.79462709     2     966    970   971   972
H -1432.77471871 25.82057422 22.30633066     6     969    0    0    0
H -1433.24016605 23.14684468 24.16871849     6     969    0    0    0
C -1429.15979779 24.12761139 23.83714738     2     969   973   974   975
H -1428.54736436 22.21042201 24.50155987     6    972    0    0    0
H -1427.82026318 24.67800531 22.30952863     6    972    0    0    0
C -1428.95878102 26.07522512 25.88081007     2    972   976   977   978
H -1429.34593615 27.89515593 25.12425301     6    975    0    0    0
H -1430.51626602 25.74162484 27.10053323     6    975    0    0    0
C -1426.39471291 26.06847605 27.25723349     2    975   979   980   981
H -1426.21832763 24.31344956 28.36245116     6    978    0    0    0
H -1424.84425017 25.95747493 25.90149193     6    978    0    0    0
C -1425.88500570 28.44264846 28.62517596     2    978   982   983   984
H -1426.13250554 29.80668934 27.01068511     6    981    0    0    0
H -1427.27338619 28.72908152 30.16146770     6    981    0    0    0
C -1423.03223546 28.54511514 29.37797546     2    981   985   986   987
H -1422.72553816 27.09342544 30.86194693     6    984    0    0    0
H -1421.86870090 28.22059827 27.65934384     6    984    0    0    0
C -1422.15562745 31.12064426 30.63108461     2    984   988   989   990
H -1420.06863968 31.40859638 30.48232562     6    987    0    0    0
H -1422.96323432 32.72402527 29.59837711     6    987    0    0    0
C -1422.81100703 31.30492144 33.43064220     2    987   991   992   993
H -1424.98064823 31.54905702 33.20129884     6    990    0    0    0
H -1422.44541413 29.51498403 34.48081190     6    990    0    0    0
C -1421.65474036 33.69446759 34.60918204     2    990   994   995   996
H -1419.65855553 33.68953214 34.36457917     6    993    0    0    0
H -1422.56133775 35.27888073 33.56773692     6    993    0    0    0
C -1422.23613139 33.85935154 37.41168835     1    993   997   998   999
H -1424.16829628 33.93210444 37.62054174     6    996    0    0    0
H -1421.50605686 35.64668961 38.10912918     6    996    0    0    0
H -1421.54300523 32.07389199 38.36409531     6    996    0    0    0
H -1438.46032950 26.35405776 3.41588571     6     1001    0    0    0 
C -1437.59914225 24.53125984 3.64261571     1     1000    1002    1003    1004
H -1438.95491232 23.00435401 3.62018161     6     1001    0    0    0
H -1436.50653080 24.26933178 1.89187162     6     1001    0    0    0
C -1436.08567833 24.70652021 6.04836080     2     1001    1005    1006    1007
H -1435.27557618 22.93423828 6.55978772     6     1004    0    0    0
H -1434.61852488 26.03219196 5.83471839     6     1004    0    0    0
C -1437.75729098 25.48247114 8.28923548     2     1004    1008   1009   1010
H -1438.77145305 27.05770111 7.55565613     6     1007    0    0    0
H -1439.11818966 24.07198408 8.67908503     6     1007    0    0    0
C -1436.35901222 26.40670238 10.71088087     2     1007   1011   1012   1013
H -1435.78878953 24.62436418 11.64999524     6    1010    0    0    0
H -1434.66209673 27.48083160 9.93604742     6    1010    0    0    0
C -1438.38744073 27.94546318 12.29085687     2    1010   1014   1015   1016
H -1439.28046107 29.28308290 11.07730295     6    1013    0    0    0
H -1439.82292374 26.64400035 13.08909463     6    1013    0    0    0
C -1436.95668074 29.29088173 14.38502408     2    1013   1017   1018   1019
H -1436.69848806 27.95883772 15.90860758     6    1016    0    0    0
H -1435.17206308 30.07971721 13.71204140     6    1016    0    0    0
C -1438.65225915 31.44860034 15.36363926     2    1016   1020   1021   1022
H -1438.95200144 32.85024555 13.82117326     6    1019    0    0    0
H -1440.46245479 30.74386188 15.77578879     6    1019    0    0    0
C -1437.40308072 33.02137700 17.47318042     2    1019   1023   1024   1025
H -1435.46881790 33.52010293 16.99543351     6    1022    0    0    0
H -1438.34490891 34.87236771 17.53635401     6    1022    0    0    0
C -1437.45272685 31.79064139 20.12720188     2    1022   1026   1027   1028
H -1439.48256151 31.75324644 20.67276694     6    1025    0    0    0
H -1436.75839532 29.82431046 20.14079594     6    1025    0    0    0
C -1435.70953917 33.41695939 21.83403499     2    1025   1029   1030   1031
H -1433.80338154 33.43112934 20.91373622     6    1028    0    0    0
H -1436.35348820 35.28832332 21.88888123     6    1028    0    0    0
C -1436.03194324 32.55041240 24.52917080     2    1028   1032   1033   1034
H -1434.59348103 33.75835970 25.64719294     6    1031    0    0    0
H -1437.99014837 32.74956836 25.17988285     6    1031    0    0    0
C -1435.05651168 29.78713781 25.02811592     1    1031   1035   1036   1037
H -1434.97064547 29.12260691 26.94676230     6    1034    0    0    0
H -1433.29932649 29.40048239 24.24532744     6    1034    0    0    0
H -1436.38777913 28.41477588 24.21420646     6    1034    0    0    0
H -1416.82616901 7.16810938 23.97055318     6     1039    0    0    0 
C -1415.98299431 5.25329807 24.20084289     1     1038    1040    1041    1042
H -1414.25250947 5.07144888 23.09165285     6     1039    0    0    0
H -1415.26636982 4.86081188 26.06423493     6     1039    0    0    0
C -1417.61108604 3.05104340 23.32046322     2     1039    1043    1044    1045
H -1419.17037024 3.09482720 24.59644606     6     1042    0    0    0
H -1418.63817801 3.35481177 21.52374532     6     1042    0    0    0
C -1416.26514785 0.54624877 23.00323697     2     1042    1046   1047   1048
H -1414.67556717 0.62009344 21.59869200     6     1045    0    0    0
H -1415.24569338 0.10755645 24.73889061     6     1045    0    0    0
C -1418.35721275 -1.43805770 22.13596799     2     1045   1049   1050   1051
H -1419.97686083 -1.78129661 23.38765398     6    1048    0    0    0
H -1419.35321303 -0.62824619 20.55983537     6    1048    0    0    0
C -1417.44918381 -3.97042078 21.31564671     2    1048   1052   1053   1054
H -1415.78956348 -3.77763691 20.16034360     6    1051    0    0    0
H -1416.87803066 -5.12186496 23.03730032     6    1051    0    0    0
C -1419.44373055 -5.58589669 19.99122751     2    1051   1055   1056   1057
H -1421.30301767 -5.41421546 20.92467100     6    1054    0    0    0
H -1419.84972351 -4.77462678 18.11596347     6    1054    0    0    0
C -1418.77764470 -8.34814602 19.92112976     2    1054   1058   1059   1060
H -1417.00166131 -8.48188063 18.87037877     6    1057    0    0    0
H -1418.51044778 -9.13476983 21.80801869     6    1057    0    0    0
[...]
 1803      H   -1421.6164511500    -5.3738516400    44.4997289900
 1804      H   -1418.9121149800    -3.0931395400    44.5385146400
 1805      C   -1420.2143624600    -4.7813931300    40.9234694500
 1806      H   -1418.4809764900    -4.2599903000    39.9652258900
 1807      H   -1420.5656170000    -6.7852633600    40.3411080300
 1808      C   -1422.6262565000    -3.3801905500    40.4042518600
 1809      H   -1423.8495893100    -4.1068996000    41.8997696900
 1810      H   -1422.4133356900    -1.4313281900    40.8952567400
 1811      C   -1423.7036608300    -3.8197234500    37.6894404100
 1812      H   -1422.5452775200    -2.5624843500    36.3681565900
 1813      H   -1423.7462833500    -5.7554075800    37.1653698900
 1814      C   -1426.5746076100    -3.0072604600    37.7842908600
 1815      H   -1427.6917465900    -4.5604513700    38.7252325100
 1816      H   -1426.9737626000    -1.1363487200    38.7746619800
 1817      C   -1427.6593425300    -2.5348480000    35.0781492600
 1818      H   -1426.6341861300    -0.8852630900    34.0399390800
 1819      H   -1427.4892830300    -4.3532332000    34.1791129900
 1820      C   -1430.4819419000    -1.8408699000    35.0784568000
 1821      H   -1431.5388034900    -2.8622993000    36.4877237400
 1822      H   -1430.6709779700     0.1828000900    35.3520245300
 1823      C   -1431.6641876900    -2.1576408300    32.3973211600
 1824      H   -1431.0206112700    -0.7700453400    31.1219815500
 1825      H   -1431.0391350900    -3.9360939600    31.5372818400
 1826      C   -1434.4874588000    -2.1746022100    32.3725139000
 1827      H   -1435.2137357800    -3.8706122700    33.1875681400
 1828      H   -1435.3559105300    -0.7804742300    33.5291739700
 1829      C   -1435.8334268200    -1.5695399200    29.8884932000
 1830      H   -1435.8997889500     0.3864249500    29.3876196800
 1831      H   -1434.8887003100    -2.4913445300    28.2713770900
 1832      C   -1438.6190485500    -2.0175824900    29.9509641400
 1833      H   -1439.3331733000    -1.2317868400    28.0479150700
 1834      H   -1439.2679394800    -0.6913207800    31.4085409100
 1835      H   -1439.4197382500    -3.7342013500    30.5561729800
 1836      H   -1436.0463608600     4.0488465500    37.4727786000
 1837      C   -1434.2222296000     4.5469753500    38.2307173600
 1838      H   -1432.7564598200     3.6823631200    37.0801979000
 1839      H   -1434.0092259300     6.5385881600    38.3463604700
 1840      C   -1433.7890962700     3.6118566600    40.7945456600
 1841      H   -1431.8773700300     4.4423014900    41.4301008300
 1842      H   -1435.1481633000     4.6389676600    41.9072872300
 1843      C   -1433.9452901000     0.7343786100    41.1627350300
 1844      H   -1435.4562443600    -0.0772137300    39.9210132500
 1845      H   -1432.2749120600    -0.2701265200    40.5472080000
 1846      C   -1434.3727277600    -0.0119587800    43.9348778800
 1847      H   -1433.1059838200     1.1460468400    45.1170138000
 1848      H   -1436.2501172400     0.5116398500    44.4438613600
 1849      C   -1433.9610280400    -2.7660197100    44.5436014200
 1850      H   -1434.6495905600    -4.2305961900    43.0305229400
 1851      H   -1431.8931175900    -3.0443663400    44.5010859800
 1852      C   -1435.0901077500    -3.6229369300    47.0225034300
 1853      H   -1437.1548245000    -3.1994838200    47.1221151600
 1854      H   -1435.0227440900    -5.7161941600    47.0950557400
 1855      C   -1434.1373050700    -2.3187630300    49.3902372200
 1856      H   -1432.0928865900    -2.3670597900    49.2522606200
 1857      H   -1434.6596766500    -0.2659422400    49.5284869300
 1858      C   -1434.9145237600    -3.5968085200    51.8609559100
 1859      H   -1436.8999337900    -3.0007550900    52.1718218100
 1860      H   -1434.8915090300    -5.5199926100    51.5409355500
 1861      C   -1433.3903141800    -2.8353314800    54.1418686300
 1862      H   -1431.4240413000    -3.6399558400    53.8106738300
 1863      H   -1433.3857211400    -0.7490743800    54.4039858000
 1864      C   -1434.3557321200    -3.9236596800    56.5591768200
 1865      H   -1436.0505529300    -2.8711188500    57.1660797900
 1866      H   -1434.6146221600    -5.9300659100    56.3493887500
 1867      C   -1432.5371260700    -3.5950127600    58.8266671600
 1868      H   -1430.7234053300    -4.4494170600    58.3590046600
 1869      H   -1432.2254783400    -1.6879436700    59.0794545600
 1870      C   -1433.3871914600    -4.8765910400    61.3330001700
 1871      H   -1432.6207605800    -4.3453070000    63.1345871800
 1872      H   -1432.8783265700    -6.9735621500    61.2677617200
 1873      H   -1435.4841456000    -5.0378437400    61.2675592000
 1874      H   -1421.2261075500    19.9947670500    52.9232031400
 1875      C   -1422.0527876700    21.7736739100    52.2470424700
 1876      H   -1423.2526895700    22.5656867500    53.7556464300
 1877      H   -1420.6553609600    23.2160895500    51.7499228300
 1878      C   -1423.4027029600    21.0432702100    49.7527443700
 1879      H   -1424.5853466400    19.4376622500    49.9593855900
 1880      H   -1424.8976250600    22.4841016200    49.4998766300
 1881      C   -1421.7359879100    20.7359863500    47.4290566300
 1882      H   -1420.5501758400    22.2916600300    47.0645628200
 1883      H   -1420.5564414900    19.0995195100    47.7556396400
 1884      C   -1423.1531807000    20.4124385000    44.9259948500
 1885      H   -1424.3894366800    18.8657868700    45.0418869500
 1886      H   -1424.3050888200    21.8907783900    44.6916740700
 1887      C   -1421.3654939600    20.2572646700    42.6737938200
 1888      H   -1419.9104469700    21.6203174800    43.0229069600
 1889      H   -1420.8375619800    18.2895399400    42.5192962500
 1890      C   -1422.6937008200    21.0654300800    40.2732976200
 1891      H   -1424.6437079400    20.2846108800    39.9604726200
 1892      H   -1422.8658143900    23.0488433200    40.4151979300
 1893      C   -1421.0356440200    20.8979201000    38.0241756400
 1894      H   -1419.2673687200    21.7792300500    38.3994622700
 1895      H   -1420.5845223400    18.8698560100    38.0460780000
 1896      C   -1422.1623439200    21.7935101800    35.5895541200
 1897      H   -1424.0860194400    20.9461440500    35.5502270100
 1898      H   -1422.2440527700    23.9144320800    35.5370377100
 1899      C   -1420.7042277600    20.6212135300    33.4240839700
 1900      H   -1418.8920749100    21.5029515500    33.4625438800
 1901      H   -1420.3912038200    18.5542111400    33.6189828800
 1902      C   -1421.9335513500    21.1309294600    30.8143327100
 1903      H   -1423.4733250000    19.6720343500    30.7774304500
 1904      H   -1422.6415994400    23.0351218400    30.7461326600
 1905      C   -1419.9494689100    20.9369857700    28.7543001500
 1906      H   -1418.1934962300    21.6557652200    29.3472131900
 1907      H   -1419.8380399700    18.8876734300    28.4020072700
 1908      C   -1420.5350278900    22.2733916000    26.2853042700
 1909      H   -1420.6515106600    24.2895174000    26.4610728200
 1910      H   -1422.4541948500    21.9373501000    25.8937015500
 1911      H   -1419.4415069100    21.7505953800    24.5564185200
 ----------------------------------------------------------------
 Nuclear Repulsion Energy =           0.00000000 hartrees
 There are     2498 alpha and     2498 beta electrons

 Total QAlloc Memory Limit   2000 MB
 Mega-Array Size       204 MB
 MEM_STATIC part       192 MB
   **** Step 1: MM calculation on the entire system **** 
 OPLSAA force field loaded.
Reading user-defined FF parameters...
 Reading user defined atom types.
 Found 3 user defined AtomTypes
finished.
Determining angles, torsions, etc. from user defined input
Determining VDW/Coulomb pairs... (useList = 0)

 Time req'd to get MM system information: 0.2 s (CPU) 0.4 s (wall)

 ------ MM Energies ------
   Ebond:           569.062013446804
   Eangle:          826.217252601649
   EUreyBrad:         0.000000000000
   Eimptors:          0.000000000000
   Etorsion:        234.465129644415
   Evdw:        1136036.899642183678
   Ecoulomb:        183.810383895339
   Etot:        1137850.454421771923 Kcal/mol (   1813.280128837724 hartree)
 -------------------------
 Time req'd to calc MM energy: 0.1 s (CPU) 0.1 s (wall)
 OPLSAA force field loaded.
Reading user-defined FF parameters...
 Reading user defined atom types.
 Found 3 user defined AtomTypes
finished.
 Time req'd to get MM system information: 0.0 s (CPU) 0.0 s (wall)
 Time req'd to calc MM gradient: 0.2 s (CPU) 0.2 s (wall)
   **** Step 2: MM calculation on the model system **** 
 Reading user defined atom types.
 Found 3 user defined AtomTypes
 ----------------------------------------------------------------
             Standard Nuclear Orientation (Bohr)
    I     Atom           X                Y                Z
 ----------------------------------------------------------------
    1      Fe  -1429.0896823200    16.0696926400    38.0930308600
    2      C   -1428.9296486500    19.0057963300    36.3880887900
    3      C   -1428.2275302700    15.4575859600    41.3531058000
    4      C   -1432.0446895600    17.2067709600    39.4161814700
    5      C   -1430.6512439700    13.4506466600    36.2696685800
    6      C   -1425.9510838700    15.2248835700    37.3042096700
    7      O   -1428.8952227900    20.8470516200    35.2393132900
    8      O   -1427.3789913200    15.3608675500    43.3815880400
    9      O   -1433.8782575200    18.0189435300    40.2732490400
   10      O   -1431.5506220000    11.9700707500    34.9162548600
   11      O   -1423.9085312000    14.5476495300    36.6591277100
 ----------------------------------------------------------------
 Nuclear Repulsion Energy =         797.96894191 hartrees
 There are       48 alpha and       48 beta electrons
 OPLSAA force field loaded.
Reading user-defined FF parameters...
 Reading user defined atom types.
 Found 3 user defined AtomTypes
finished.
Determining VDW/Coulomb pairs... (useList = 0)

 No MM bonds in system. Return all possible pairs.
 Time req'd to get MM system information: 0.0 s (CPU) 0.0 s (wall)

 ------ MM Energies ------
   Ebond:             0.000000000000
   Eangle:            0.000000000000
   EUreyBrad:         0.000000000000
   Eimptors:          0.000000000000
   Etorsion:          0.000000000000
   Evdw:        1136448.772405126598
   Ecoulomb:         -6.510573188567
   Etot:        1136442.261831938056 Kcal/mol (   1811.036031091136 hartree)
 -------------------------
 Eold: 1813.2801288 mm_energy: 1811.0360311 Enew:    2.2440977
 Time req'd to calc MM energy: 0.0 s (CPU) 0.0 s (wall)
 OPLSAA force field loaded.
Reading user-defined FF parameters...
 Reading user defined atom types.
 Found 3 user defined AtomTypes
finished.
Determining VDW/Coulomb pairs... (useList = 0)

 No MM bonds in system. Return all possible pairs.
 Time req'd to get MM system information: 0.0 s (CPU) 0.0 s (wall)
 Number of fixed atoms: 0
 Time req'd to calc MM gradient: 0.0 s (CPU) 0.0 s (wall)
   **** Step 3: QM calculation on the model system **** 
 Requested basis set is def2-mSVP
 There are 80 shells and 174 basis functions

                       Distance Matrix (Bohrs)
             Fe(  1)   C (  2)   C (  3)   C (  4)   C (  5)   C (  6)
   C (  2)  3.398991
   C (  3)  3.427254  6.142814
   C (  4)  3.431580  4.702055  4.624071
   C (  5)  3.552820  5.817010  5.978589  5.094183
   C (  6)  3.344659  4.899635  4.650798  6.746876  5.129298
   O (  7)  5.568184  2.170505  8.177445  6.373148  7.671509  6.673869
   O (  8)  5.603368  8.037355  2.200935  6.395354  8.058286  6.244353
   O (  9)  5.611006  6.368444  6.297409  2.180862  6.878343  8.914149
   O ( 10)  5.740647  7.650963  8.039823  6.922172  2.198344  6.902968
   O ( 11)  5.587219  6.720131  6.443226  8.992738  6.842461  2.246508
             O (  7)   O (  8)   O (  9)   O ( 10)
   O (  8)  9.934476
   O (  9)  7.626883  7.679036
   O ( 10)  9.271262 10.028054  8.408575
   O ( 11)  8.158764  7.609001 11.158279  8.251247

 A cutoff of  1.0D-11 yielded   2479 shell pairs
 There are     12717 function pairs (     14536 Cartesian)
 Smallest overlap matrix eigenvalue = 2.68E-03
 Guess MOs from SCF MO coefficient file
 Reading MOs from coefficient file
 Reading MOs from coefficient file
 A restricted Kohn-Sham SCF calculation will be
 performed using Pulay DIIS extrapolation
 Exchange:  B88      Correlation:  P86
 Using SG-1 standard quadrature grid
 SCF converges when DIIS error is below 1.0E-08
 Using Q-Chem read-in guess as SCF_GUESS READ specified.

 using 2 threads for integral computing
 -------------------------------------------------------
 OpenMP Integral computing Module                
 Release: version 1.0, May 2013, Q-Chem Inc. Pittsburgh 
 -------------------------------------------------------
 ---------------------------------------
  Cycle       Energy         DIIS Error
 ---------------------------------------
    1   -1830.5220598631      1.44E-09
    2   -1830.5220598632      8.76E-09 Convergence criterion met
 ---------------------------------------
 SCF time:  CPU 2.82 s  wall 1.47 s
 E(QM + QM/MM):    -1830.5220598632 E(MM):    2.2440977 E(Tot): -1828.277962116610 
 SCF   energy in the final basis set = -1828.27796212
 Total energy in the final basis set = -1828.27796212

 --------------------------------------------------------------

                    Orbital Energies (a.u.)
 --------------------------------------------------------------

 Alpha MOs
 -- Occupied --
******** -29.6328 -25.5926 -25.5813 -25.5748 -18.8909 -18.8819 -18.8791
-18.8756 -18.8747 -10.0581 -10.0482 -10.0476 -10.0453 -10.0390  -3.3174
 -2.1537  -2.1317  -2.1167  -1.0691  -1.0564  -1.0528  -1.0515  -1.0355
 -0.5738  -0.5255  -0.5204  -0.5171  -0.5121  -0.4568  -0.4481  -0.4412
 -0.4343  -0.4288  -0.4251  -0.4238  -0.4205  -0.4161  -0.4136  -0.4081
 -0.4057  -0.3956  -0.3911  -0.3810  -0.2781  -0.2666  -0.2304  -0.2216
 -- Virtual --
 -0.0960  -0.0898  -0.0845  -0.0798  -0.0751  -0.0697  -0.0664  -0.0525
 -0.0518  -0.0383  -0.0193   0.0112   0.1900   0.2107   0.2244   0.2557
  0.2953   0.3262   0.3464   0.3941   0.4162   0.4191   0.4314   0.4366
  0.4412   0.4828   0.4980   0.5060   0.5200   0.5512   0.5727   0.6025
  0.6088   0.6216   0.6346   0.6466   0.7399   0.7525   0.7565   0.7689
  0.7767   0.8339   0.8392   0.8650   0.8747   0.8991   0.9506   0.9521
  0.9702   0.9722   0.9828   1.0006   1.0195   1.0275   1.0358   1.0633
  1.2213   1.2376   1.2634   1.3325   1.4032   1.4096   1.4101   1.4128
  1.4142   1.4179   1.4230   1.4246   1.4552   1.4638   1.4766   1.4933
  1.5081   1.5180   1.5551   1.5734   1.6085   1.6319   1.6549   1.6799
  1.6845   1.8213   1.8344   1.8388   1.8414   1.8486   1.8515   1.8522
  1.8581   1.8650   1.8767   1.8844   1.8903   1.8922   1.9081   1.9514
  2.3607   2.4192   2.4311   2.4418   2.4640   2.4704   2.4761   2.4961
  2.5064   2.5254   2.6463   2.6505   2.6563   2.6702   2.6786   2.8113
  2.8310   2.8926   2.9016   2.9728  13.2639  13.2898  13.3123  13.3400
 13.4484  24.9143  24.9351  24.9506  24.9810  25.0198
 --------------------------------------------------------------

          Ground-State Mulliken Net Atomic Charges

     Atom                 Charge (a.u.)
  ----------------------------------------
      1 Fe                   -0.463997
      2 C                     0.206763
      3 C                     0.200531
      4 C                     0.195851
      5 C                     0.235317
      6 C                     0.185801
      7 O                    -0.105161
      8 O                    -0.111242
      9 O                    -0.096757
     10 O                    -0.106127
     11 O                    -0.140978
  ----------------------------------------
  Sum of atomic charges =     0.000000

 -----------------------------------------------------------------
                    Cartesian Multipole Moments
 -----------------------------------------------------------------
    Charge (ESU x 10^10)
                -0.0000
    Dipole Moment (Debye)
         X      -0.5898124292      Y      -0.0644925017      Z       0.2964660904
       Tot       0.6632722874
    Quadrupole Moments (Debye-Ang)
        XX     822.4830     XY      44.2268     YY     -70.2920
        XZ    -236.4316     YZ       0.9598     ZZ     -57.9533
    Octopole Moments (Debye-Ang^2)
       XXX -854044.6075    XXY  -30599.3323    XYY   53126.3356
       YYY   -1785.6181    XXZ  186645.9356    XYZ    -817.7302
       YYZ   -1393.2778    XZZ   43572.7277    YZZ    -529.7854
       ZZZ   -3874.4515
    Hexadecapole Moments (Debye-Ang^3)
      XXXX ************   XXXY ************   XXYY ************
      XYYY 1350213.6773   YYYY  -31034.3075   XXXZ ************
      XXYZ  675948.4637   XYYZ 1053043.3375   YYYZ  -35701.7305
      XXZZ ************   XYZZ  398797.3903   YYZZ  -32897.0830
      XZZZ 2924738.3217   YZZZ  -33813.0340   ZZZZ -162109.3997
 -----------------------------------------------------------------
 Calculating MO derivatives via CPSCF
 Full subspace dimension requested for CIS/TDDFT
 MAX_CIS_SUBSPACE fits in available memory
    1     0    36    0.0403976  
    2     0    36    0.0068437  
    3     0    36    0.0007140  
    4     0    36    0.0000519  
    5    34     2    0.0000014  
    6    36     0    0.0000000  Converged
 Time for AOints: 6.5 s (CPU) 3.3 s (wall)
 ------------------------------------------------------------------------------
                     AOints        : Timing summary (seconds)
 ------------------------------------------------------------------------------
     job step          cpu (% of tot)      sys (% of tot)     wall (% of tot)
 ------------------------------------------------------------------------------
  AOints            0.6457E+01 ( 3.7)   0.1500E-04 (12.3)   0.3296E+01 ( 3.8)
 ------------------------------------------------------------------------------
   Grand Totals     0.1745E+03          0.1220E-03          0.8789E+02
 ------------------------------------------------------------------------------
 Polarizability Matrix (a.u.)
            1           2           3
    1 -97.3315806   6.5908601   1.3416706
    2   6.5908601 -85.4114592  -1.3920690
    3   1.3416706  -1.3920690 -92.4630488
 Derivative of Dipole Moment Matrix (a.u.)
            1           2           3
    1  -1.9224592   0.0605329   0.0336955
    2   0.0266190  -1.8265444   0.0188722
    3  -0.0359483  -0.0050347  -1.8775985
    4   0.4019341   0.0405012  -0.0327046
    5   0.1126214   1.8640948  -0.8759846
    6  -0.0517019  -0.8913260   0.9224300
    7   0.5682292  -0.0790536   0.6884738
    8  -0.0215698   0.4105185  -0.1346045
    9   0.5876091  -0.2394006   2.1367649
   10   1.7404415  -0.5167889  -0.5837613
   11  -0.5776973   0.6654822   0.2613653
   12  -0.6394612   0.2788803   0.6725800
   13   0.7406467   0.5839235   0.4715592
   14   0.5698002   1.3855684   0.7688905
   15   0.5041895   0.8285073   1.0961872
   16   2.0234954  -0.4400141  -0.4539860
   17  -0.4617635   0.5914412   0.1221733
   18  -0.4211285   0.1326391   0.5223812
   19  -0.1551733  -0.0217341   0.0069268
   20  -0.0702876  -1.3422147   0.6968856
   21   0.0313817   0.7203611  -0.5896538
   22  -0.3158497   0.0758068  -0.5895238
   23   0.0056546  -0.1762875   0.0561889
   24  -0.4323163   0.2038780  -1.5394339
   25  -1.2151582   0.4146927   0.4828011
   26   0.4799083  -0.3384328  -0.2225678
   27   0.5233209  -0.2143483  -0.3745300
   28  -0.4397668  -0.4746691  -0.3629152
   29  -0.4627679  -0.9422767  -0.5831916
   30  -0.4285754  -0.7051893  -0.7093571
   31  -1.4263396   0.3568026   0.3394346
   32   0.3994825  -0.2913491  -0.1080272
   33   0.3626303  -0.1089670  -0.2597702
 -----------------------------------------
 Net:  -0.00000  -0.00000  -0.00000
 -----------------------------------------

 Calculating analytic Hessian of the SCF energy
