                  Welcome to Q-Chem
     A Quantum Leap Into The Future Of Chemistry


 Q-Chem 5.4 (devel), Q-Chem, Inc., Pleasanton, CA (2021)

 E. Epifanovsky,  A. T. B. Gilbert,  Xintian Feng,  Joonho Lee,  Yuezhi Mao,  
 N. Mardirossian,  P. Pokhilko,  A. White,  M. Wormit,  M. P. Coons,  
 A. L. Dempwolff,  Zhengting Gan,  D. Hait,  P. R. Horn,  L. D. Jacobson,  
 I. Kaliman,  J. Kussmann,  A. W. Lange,  Ka Un Lao,  D. S. Levine,  Jie Liu,  
 S. C. McKenzie,  A. F. Morrison,  K. Nanda,  F. Plasser,  D. R. Rehn,  
 M. L. Vidal,  Zhi-Qiang You,  Ying Zhu,  B. Alam,  B. Albrecht,  
 A. Aldossary,  E. Alguire,  J. H. Andersen,  D. Barton,  K. Begam,  A. Behn,  
 Y. A. Bernard,  E. J. Berquist,  H. Burton,  A. Carreras,  K. Carter-Fenk,  
 R. Chakraborty,  A. D. Chien,  K. D. Closser,  V. Cofer-Shabica,  
 S. Dasgupta,  Jia Deng,  M. de Wergifosse,  M. Diedenhofen,  Hainam Do,  
 S. Ehlert,  Po-Tung Fang,  S. Fatehi,  Qingguo Feng,  T. Friedhoff,  
 J. Gayvert,  Qinghui Ge,  G. Gidofalvi,  M. Goldey,  J. Gomes,  
 C. Gonzalez-Espinoza,  S. Gulania,  A. Gunina,  M. W. D. Hanson-Heine,  
 P. H. P. Harbach,  A. W. Hauser,  M. F. Herbst,  M. Hernandez Vera,  
 M. Hodecker,  Z. C. Holden,  S. Houck,  Xunkun Huang,  Kerwin Hui,  
 B. C. Huynh,  M. Ivanov,  Hyunjun Ji,  Hanjie Jiang,  B. Kaduk,  S. Kaehler,  
 K. Khistyaev,  Jaehoon Kim,  P. Klunzinger,  Z. Koczor-Benda,  
 Joong Hoon Koh,  D. Kosenkov,  L. Koulias,  T. Kowalczyk,  C. M. Krauter,  
 K. Kue,  A. Kunitsa,  T. Kus,  A. Landau,  K. V. Lawler,  D. Lefrancois,  
 S. Lehtola,  Rain Li,  Yi-Pei Li,  Jiashu Liang,  M. Liebenthal,  
 Hung-Hsuan Lin,  You-Sheng Lin,  Fenglai Liu,  Kuan-Yu Liu,  
 M. Loipersberger,  A. Luenser,  A. Manjanath,  P. Manohar,  E. Mansoor,  
 S. F. Manzer,  Shan-Ping Mao,  A. V. Marenich,  T. Markovich,  S. Mason,  
 S. A. Maurer,  P. F. McLaughlin,  M. F. S. J. Menger,  J.-M. Mewes,  
 S. A. Mewes,  P. Morgante,  J. W. Mullinax,  K. J. Oosterbaan,  G. Paran,  
 Alexander C. Paul,  Suranjan K. Paul,  F. Pavosevic,  Zheng Pei,  S. Prager,  
 E. I. Proynov,  E. Ramos,  B. Rana,  A. E. Rask,  A. Rettig,  R. M. Richard,  
 F. Rob,  E. Rossomme,  T. Scheele,  M. Scheurer,  M. Schneider,  
 N. Sergueev,  S. M. Sharada,  W. Skomorowski,  D. W. Small,  C. J. Stein,  
 Yu-Chuan Su,  E. J. Sundstrom,  Zhen Tao,  J. Thirman,  T. Tsuchimochi,  
 N. M. Tubman,  S. P. Veccham,  O. Vydrov,  J. Wenzel,  J. Witte,  A. Yamada,  
 Kun Yao,  S. Yeganeh,  S. R. Yost,  A. Zech,  Igor Ying Zhang,  Xing Zhang,  
 Yu Zhang,  D. Zuev,  A. Aspuru-Guzik,  A. T. Bell,  N. A. Besley,  
 K. B. Bravaya,  B. R. Brooks,  D. Casanova,  Jeng-Da Chai,  S. Coriani,  
 C. J. Cramer,  A. E. DePrince, III,  R. A. DiStasio Jr.,  A. Dreuw,  
 B. D. Dunietz,  T. R. Furlani,  W. A. Goddard III,  S. Grimme,  
 S. Hammes-Schiffer,  T. Head-Gordon,  W. J. Hehre,  Chao-Ping Hsu,  
 T.-C. Jagau,  Yousung Jung,  A. Klamt,  Jing Kong,  D. S. Lambrecht,  
 WanZhen Liang,  N. J. Mayhall,  C. W. McCurdy,  J. B. Neaton,  
 C. Ochsenfeld,  J. A. Parkhill,  R. Peverati,  V. A. Rassolov,  Yihan Shao,  
 L. V. Slipchenko,  T. Stauch,  R. P. Steele,  J. E. Subotnik,  
 A. J. W. Thom,  A. Tkatchenko,  D. G. Truhlar,  T. Van Voorhis,  
 T. A. Wesolowski,  K. B. Whaley,  H. L. Woodcock III,  P. M. Zimmerman,  
 S. Faraji,  P. M. W. Gill,  M. Head-Gordon,  J. M. Herbert,  A. I. Krylov

 Additional authors for Version 5.4.1: 
 S. Kotaru,  Shaozhi Li,  Xiangyuan Li,  F. Matz,  A. Molle,  Haisheng Ren,  
 Yingli Su,  Hung-Yi Tsai,  C. Utku,  Fang Wang

 Contributors to earlier versions of Q-Chem not listed above: 
 R. D. Adamson,  B. Austin,  R. Baer,  J. Baker,  G. J. O. Beran,  
 K. Brandhorst,  S. T. Brown,  E. F. C. Byrd,  A. K. Chakraborty,  
 G. K. L. Chan,  Chun-Min Chang,  Yunqing Chen,  C.-L. Cheng,  
 Siu Hung Chien,  D. M. Chipman,  D. L. Crittenden,  H. Dachsel,  
 R. J. Doerksen,  A. D. Dutoi,  R. G. Edgar,  J. Fosso-Tande,  
 L. Fusti-Molnar,  D. Ghosh,  A. Ghysels,  A. Golubeva-Zadorozhnaya,  
 J. Gonthier,  M. S. Gordon,  S. R. Gwaltney,  G. Hawkins,  J. E. Herr,  
 A. Heyden,  S. Hirata,  E. G. Hohenstein,  G. Kedziora,  F. J. Keil,  
 C. Kelley,  Jihan Kim,  R. A. King,  R. Z. Khaliullin,  P. P. Korambath,  
 W. Kurlancheek,  A. Laurent,  A. M. Lee,  M. S. Lee,  S. V. Levchenko,  
 Ching Yeh Lin,  D. Liotard,  E. Livshits,  R. C. Lochan,  I. Lotan,  
 L. A. Martinez-Martinez,  P. E. Maslen,  N. Nair,  D. P. O'Neill,  
 D. Neuhauser,  E. Neuscamman,  C. M. Oana,  R. Olivares-Amaya,  R. Olson,  
 T. M. Perrine,  B. Peters,  P. A. Pieniazek,  A. Prociuk,  Y. M. Rhee,  
 J. Ritchie,  M. A. Rohrdanz,  E. Rosta,  N. J. Russ,  H. F. Schaefer III,  
 M. W. Schmidt,  N. E. Schultz,  S. Sharma,  N. Shenvi,  C. D. Sherrill,  
 A. C. Simmonett,  A. Sodt,  T. Stein,  D. Stuck,  K. S. Thanthiriwatte,  
 V. Vanovschi,  L. Vogt,  Tao Wang,  A. Warshel,  M. A. Watson,  
 C. F. Williams,  Q. Wu,  X. Xu,  Jun Yang,  W. Zhang,  Yan Zhao

 Please cite Q-Chem as follows:
 Y. Shao et al., Mol. Phys. 113, 184-215 (2015)
 DOI: 10.1080/00268976.2014.952696

 Q-Chem 5.4.1 for Intel X86 EM64T Linux

 Parts of Q-Chem use Armadillo 9.900.5 (Nocturnal Misbehaviour).
 http://arma.sourceforge.net/

 Q-Chem begins on Wed Jun  1 23:30:23 2022  

 Host: p09r14n13.grace.hpc.yale.internal
0

     Scratch files written to /home/tl686/scratch60/qchem_dev/scratch/qchem244022//
 Processing $rem in /home/tl686/qchem_dev/qchem/config/preferences:
 Processing $rem in /home/tl686/.qchemrc:
Applying user defined connections for MM calculations

 Checking the input file for inconsistencies... 	...done.

--------------------------------------------------------------
User input:
--------------------------------------------------------------
$molecule
0   1
 Fe 1020.91723807 26.56173244 52.18241131    -1  0   0   0   0
C 1019.47532889 27.44999116 49.25737303    -2  0   0   0   0 
C 1022.54495504 26.18856213 55.11179352    -2  0   0   0   0
C 1019.98808082 23.35926644 51.83047527    -2  0   0   0   0
C 1023.92035410 26.93203680 50.43434445    -2  0   0   0   0
C 1018.84029987 28.86084636 53.63661192    -2  0   0   0   0
O 1018.65293532 28.09414567 47.25498540    -3  0   0   0   0
O 1023.40212549 26.03128635 57.20262820    -3  0   0   0   0 
O 1019.41176448 21.23803503 51.79592631    -3  0   0   0   0
O 1025.81888218 26.81851909 49.46310239    -3  0   0   0   0 
O 1017.39618458 30.15093173 54.47052267    -3  0   0   0   0
H 1017.53129568 21.60041301 23.80752399      6     13    0    0    0 
C 1017.58690720 23.60424026 23.36916384     1     12    14    15    16
H 1016.47409996 23.99006890 21.72467033     6     13    0    0    0
H 1016.63731487 24.63375563 24.82818630     6     13    0    0    0
C 1020.24380406 24.66594862 23.23367858     2     13    17    18    19
H 1021.45162170 23.79879358 21.70966818     6     16    0    0    0
H 1020.25804411 26.68106893 22.65006977     6     16    0    0    0
C 1021.62525647 24.07542930 25.69439103     2     16    20   21   22
H 1020.63487677 24.82729969 27.19939317     6     19    0    0    0
H 1021.67903629 22.04670208 26.17622283     6     19    0    0    0
C 1024.36464229 25.15546732 25.75359890     2     19   23   24   25
H 1025.40263133 24.41664524 24.25627534     6    22    0    0    0
H 1024.29994047 27.10318766 25.47086443     6    22    0    0    0
C 1025.60914329 24.51465088 28.25253228     2    22   26   27   28
H 1024.49484035 25.18396407 29.82543748     6    25    0    0    0
H 1025.94249239 22.46080634 28.71292056     6    25    0    0    0
C 1028.13551347 26.06595527 28.30075705     2    25   29   30   31
H 1029.34491971 25.77276298 26.65344065     6    28    0    0    0
H 1027.76053108 28.14618653 28.29369159     6    28    0    0    0
C 1029.68743064 25.39762943 30.75797466     2    28   32   33   34
H 1028.74266337 25.85597315 32.44457782     6    31    0    0    0
H 1030.12754532 23.39314760 30.77367776     6    31    0    0    0
C 1032.25994909 26.66663011 30.84708045     2    31   35   36   37
H 1033.28752468 26.34705089 29.21565485     6    34    0    0    0
H 1031.79696951 28.57638287 30.86714337     6    34    0    0    0
C 1034.03731094 26.06997443 33.14119940     2    34   38   39   40
H 1032.86328580 26.90074585 34.64815090     6    37    0    0    0
H 1034.10598960 24.06084065 33.46502003     6    37    0    0    0
C 1036.48629117 27.53770935 32.78780504     2    37   41   42   43
H 1037.60616577 27.01591425 31.08488412     6    40    0    0    0
H 1036.19528293 29.49004441 32.99210188     6    40    0    0    0
C 1038.26775374 26.90510592 34.98565313     2    40   44   45   46
H 1037.88608912 27.57783660 36.78594658     6    43    0    0    0
H 1038.39376398 24.90788053 35.26272668     6    43    0    0    0
C 1040.79415368 28.22242725 34.31242745     1    43   47   48   49
H 1041.59469917 27.49674507 32.48591834     6    46    0    0    0
H 1042.14785992 27.62467477 35.69941907     6    46    0    0    0
H 1040.93149108 30.18268451 34.17722475     6    46    0    0    0
H 1022.99293929 33.59267228 46.37481803     6     51    0    0    0 
C 1024.71463825 32.70340315 46.10472172     1     50    52    53    54
H 1026.09062230 34.07542021 46.18577123     6     51    0    0    0
H 1025.05219232 31.68809506 47.77952841     6     51    0    0    0
C 1024.69421573 31.34913060 43.61594072     2     51    55    56    57
H 1023.43149838 29.83628382 43.81714913     6     54    0    0    0
H 1023.98441857 32.43989029 42.01736908     6     54    0    0    0
C 1027.16344120 30.19554763 42.73082418     2     54    58   59   60
H 1028.17550536 29.41730460 44.29545016     6     57    0    0    0
H 1026.67364128 28.70428867 41.47195050     6     57    0    0    0
C 1029.01907310 32.04266356 41.34428990     2     57   61   62   63
H 1027.88851029 32.71317106 39.68308637     6    60    0    0    0
H 1029.48263392 33.63317217 42.38878737     6    60    0    0    0
C 1031.57855137 30.85832367 40.18934198     2    60   64   65   66
H 1032.94040142 30.28984948 41.60896665     6    63    0    0    0
H 1031.08966179 29.23871857 38.99362891     6    63    0    0    0
C 1032.72446182 32.94572275 38.34572835     2    63   67   68   69
H 1034.01125061 32.11625924 36.95256838     6    66    0    0    0
H 1031.06878951 33.81757631 37.38597978     6    66    0    0    0
C 1034.11541020 35.09939401 39.83262557     2    66   70   71   72
H 1032.83533465 36.03087471 41.09278537     6    69    0    0    0
H 1035.41298640 34.09586734 41.08674853     6    69    0    0    0
C 1035.36984334 37.20377014 38.29794397     2    69   73   74   75
H 1036.90532886 36.58717124 37.00945522     6    72    0    0    0
H 1033.84906318 38.13818265 37.27299577     6    72    0    0    0
C 1036.66671700 39.28295122 39.76765494     2    72   76   77   78
H 1035.41758153 40.02701737 41.20069793     6    75    0    0    0
H 1038.14013322 38.49383760 41.07306647     6    75    0    0    0
C 1037.52572637 41.44049420 38.25248133     2    75   79   80   81
H 1039.30468586 40.99308694 37.23382761     6    78    0    0    0
H 1036.13473088 41.74303825 36.70965280     6    78    0    0    0
C 1037.82620212 43.94070864 39.66766170     2    78   82   83   84
H 1035.91884206 44.28760906 40.67722787     6    81    0    0    0
H 1038.96165880 43.84812771 41.51866814     6    81    0    0    0
C 1038.75275479 46.17116272 38.01665119     1    81   85   86   87
H 1040.08226726 47.33380664 38.98457402     6    84    0    0    0
H 1037.14631274 47.46358781 37.62074908     6    84    0    0    0
H 1039.71319496 45.57825607 36.16034128     6    84    0    0    0
H 1042.11587474 -1.29437631 39.02963576     6     89    0    0    0 
C 1043.33487138 -0.62746567 37.44090517     1     88    90    91    92
H 1044.73543812 0.27629420 38.66136762     6     89    0    0    0
H 1044.22209579 -2.30602257 36.70721101     6     89    0    0    0
C 1041.64159065 0.97990873 35.65344594     2     89    93    94    95
H 1039.99963917 -0.29652328 35.15277602     6     92    0    0    0
H 1040.69561324 2.46084109 36.63075117     6     92    0    0    0
C 1043.13737789 1.75640696 33.21892190     2     92    96   97   98
H 1045.08284999 2.33380855 33.67324569     6     95    0    0    0
H 1043.27858456 -0.05563407 32.10733528     6     95    0    0    0
C 1041.77637768 3.73048354 31.80701808     2     95   99   100   101
H 1039.99209957 3.03891866 31.22080948     6    98    0    0    0
H 1041.21021045 5.27160692 32.97716525     6    98    0    0    0
C 1043.21783866 4.84239710 29.61126352     2    98   102   103   104
H 1045.14160343 5.34799849 29.99692199     6    101    0    0    0
H 1043.31826505 3.47448968 28.17020749     6    101    0    0    0
C 1042.23373766 7.37619185 28.47093780     2    101   105   106   107
H 1040.41230819 7.02735830 27.71591146     6    104    0    0    0
H 1041.99550698 8.88053059 29.91954260     6    104    0    0    0
C 1043.72416975 8.54620993 26.45073899     2    104   108   109   110
H 1045.76194294 8.59462218 26.68268997     6    107    0    0    0
H 1043.66205305 7.38538036 24.71110418     6    107    0    0    0
C 1042.95978195 11.38100364 26.05532533     2    107   111   112   113
H 1041.00252274 11.81268012 25.98302931     6    110    0    0    0
H 1043.57730237 12.47618729 27.57885779     6    110    0    0    0
C 1044.13976909 12.45293575 23.71486101     2    110   114   115   116
H 1046.24827716 12.25940260 23.49064055     6    113    0    0    0
H 1043.20348578 11.37064117 22.26174856     6    113    0    0    0
C 1043.58155239 15.18592412 23.34958010     2    113   117   118   119
H 1041.91270817 15.74189272 24.46083599     6    116    0    0    0
H 1044.91716207 16.27688854 24.44651710     6    116    0    0    0
C 1043.20813212 16.30178859 20.70440435     2    116   120   121   122
H 1044.97793417 15.98824522 19.62525786     6    119    0    0    0
H 1041.58173524 15.21593216 19.92220125     6    119    0    0    0
C 1042.51465525 19.16485604 20.83547201     1    119   123   124   125
H 1041.32230476 19.70288410 19.21563023     6    122    0    0    0
H 1044.30378895 20.33376964 20.78953900     6    122    0    0    0
H 1041.61246362 19.72713879 22.60459402     6    122    0    0    0
H 1042.94280516 0.24169934 45.47796575     6     127    0    0    0 
C 1041.18574665 1.35475296 45.51229739     1     126    128    129    130
H 1041.70126021 3.25900329 46.33346795     6     127    0    0    0
H 1040.87646349 1.69479995 43.47001789     6     127    0    0    0
C 1038.88260950 0.41127331 47.15495711     2     127    131    132    133
H 1038.66968077 -1.56970925 46.58133569     6     130    0    0    0
H 1039.18103623 0.33797106 49.12157977     6     130    0    0    0
C 1036.51067726 2.00245024 46.58785455     2     130    134   135   136
H 1037.07434951 3.92554265 47.10815876     6     133    0    0    0
H 1035.82510384 1.99693632 44.64341585     6     133    0    0    0
C 1034.11620739 1.26950473 48.13003578     2     133   137   138   139
H 1032.91094123 0.00435339 47.09148989     6    136    0    0    0
H 1034.84293358 0.48134627 49.85409986     6    136    0    0    0
C 1032.33824637 3.45378513 48.76744224     2    136   140   141   142
H 1033.35971290 4.87385767 49.80971175     6    139    0    0    0
H 1031.38992361 4.17432638 47.00960698     6    139    0    0    0
C 1030.08945897 2.88421416 50.65014782     2    139   143   144   145
H 1029.10155724 1.07938163 50.22634337     6    142    0    0    0
H 1030.83306130 2.39083242 52.49784639     6    142    0    0    0
C 1028.26103065 5.08081799 50.76470225     2    142   146   147   148
H 1029.30479563 6.67500822 51.51624972     6    145    0    0    0
H 1027.58428461 5.48640962 48.81386855     6    145    0    0    0
C 1025.86348000 4.41539285 52.38721973     2    145   149   150   151
H 1024.55326194 3.47706200 51.16237913     6    148    0    0    0
H 1026.23459694 3.13034374 53.92988903     6    148    0    0    0
C 1024.44331864 6.70957669 53.41931124     2    148   152   153   154
H 1025.72394996 7.73188803 54.69641145     6    151    0    0    0
H 1023.78640975 7.86846115 51.77776072     6    151    0    0    0
C 1022.12513388 5.83735368 54.85328215     2    151   155   156   157
H 1021.42414141 4.05849206 54.08874653     6    154    0    0    0
H 1022.84961944 5.24060322 56.67284398     6    154    0    0    0
C 1020.20390679 8.09034790 55.54404200     2    154   158   159   160
H 1021.54010951 9.76890690 55.48344634     6    157    0    0    0
H 1018.79570117 8.14041108 54.01482965     6    157    0    0    0
C 1019.21920879 7.61569579 58.21902908     1    157   161   162   163
H 1020.60200397 7.06502626 59.65800201     6    160    0    0    0
H 1017.81465999 6.12825442 58.09057807     6    160    0    0    0
H 1018.37110984 9.44260038 58.82934681     6    160    0    0    0
H 1058.68185367 15.19227942 58.20200488     6     165    0    0    0 
C 1058.55611120 13.18011393 57.82390370     1     164    166    167    168
H 1059.94492795 12.82585070 56.36230992     6     165    0    0    0
H 1059.28762738 11.93260016 59.37717610     6     165    0    0    0
C 1055.83577968 12.21157404 57.62863620     2     165    169    170    171
H 1054.96269009 11.69922246 59.50105038     6     168    0    0    0
H 1054.84199020 13.91449703 57.15927655     6     168    0    0    0
C 1055.47625909 10.29461461 55.51163163     2     168    172   173   174
H 1055.68566538 11.00658672 53.51293915     6     171    0    0    0
H 1056.79785147 8.77940310 55.60657428     6     171    0    0    0
C 1052.80932220 9.51297217 55.71987818     2     171   175   176   177
H 1052.26672240 8.98603493 57.63399537     6    174    0    0    0
H 1051.47238778 11.00528329 55.12704952     6    174    0    0    0
C 1052.31765971 7.05189094 54.16766028     2    174   178   179   180
H 1052.30764901 7.51803697 52.14134404     6    177    0    0    0
H 1053.86339782 5.74198727 54.36458646     6    177    0    0    0
C 1049.67644190 5.91575499 55.01848813     2    177   181   182   183
H 1049.91303986 4.91161231 56.86418648     6    180    0    0    0
H 1048.03638822 7.23807214 54.85582577     6    180    0    0    0
C 1048.77796444 3.96844727 53.22741393     2    180   184   185   186
H 1048.51684011 4.84646272 51.41843690     6    183    0    0    0
H 1050.37764938 2.54736785 52.98575779     6    183    0    0    0
C 1046.27025295 2.65123271 54.10348226     2    183   187   188   189
H 1046.57981036 1.74494825 55.97379881     6    186    0    0    0
H 1044.67584947 3.96553541 54.59400579     6    186    0    0    0
C 1045.28173726 0.80474017 52.21007498     2    186   190   191   192
H 1044.59701242 1.94946451 50.57780249     6    189    0    0    0
H 1046.92132302 -0.28579589 51.51505052     6    189    0    0    0
C 1043.02587377 -1.01022301 52.96639677     2    189   193   194   195
H 1043.35512827 -1.48526303 54.99012117     6    192    0    0    0
H 1041.34070067 -0.01899335 52.73149877     6    192    0    0    0
C 1042.88630614 -3.52502975 51.31316025     2    192   196   197   198
H 1043.13825573 -3.06484620 49.18145018     6    195    0    0    0
H 1044.60539938 -4.74291572 51.71485494     6    195    0    0    0
C 1040.33384174 -4.83703441 51.77172002     1    195   199   200   201
H 1040.13801931 -6.47151625 50.56280276     6    198    0    0    0
H 1038.78735498 -3.62777252 51.30001040     6    198    0    0    0
H 1040.08243962 -5.41337220 53.72626872     6    198    0    0    0
H 1052.41657068 17.85326182 53.21330121     6     203    0    0    0 
C 1054.22684055 17.84740265 52.25041192     1     202    204    205    206
H 1054.87680002 15.93855796 51.97226113     6     203    0    0    0
H 1053.93888590 18.71717413 50.40129889     6     203    0    0    0
C 1056.47296016 19.08362503 53.54157195     2     203    207    208    209
H 1057.12968501 18.19672936 55.31936632     6     206    0    0    0
H 1058.15010117 18.77467945 52.45667203     6     206    0    0    0
C 1055.96394857 21.96425565 54.00264862     2     206    210   211   212
H 1057.67099872 23.13748418 54.07220181     6     209    0    0    0
H 1054.99262583 22.94111702 52.47268681     6     209    0    0    0
C 1054.46515108 22.13684953 56.52530922     2     209   213   214   215
H 1052.61042935 21.19747766 56.58520618     6    212    0    0    0
H 1055.57199411 21.15899642 58.05196262     6    212    0    0    0
C 1054.20697118 24.94596502 57.30106067     2    212   216   217   218
H 1056.01984187 25.81456140 57.63238698     6    215    0    0    0
H 1052.87357429 26.10631514 56.10886134     6    215    0    0    0
C 1053.01353974 25.33576409 59.90899850     2    215   219   220   221
H 1051.12634144 24.70353971 59.85751267     6    218    0    0    0
H 1053.85353728 24.12690041 61.38674236     6    218    0    0    0
C 1053.02056165 28.15797724 60.72997499     2    218   222   223   224
H 1054.89157589 28.76952310 60.63220012     6    221    0    0    0
H 1051.69556129 29.25135552 59.64725365     6    221    0    0    0
C 1051.97327267 28.50729450 63.38697097     2    221   225   226   227
H 1050.09220020 27.80492390 63.38456277     6    224    0    0    0
H 1052.95192932 27.22955904 64.52987182     6    224    0    0    0
C 1052.01386561 31.35990761 64.16455254     2    224   228   229   230
H 1053.93027434 31.82700663 64.91768860     6    227    0    0    0
H 1051.84328033 32.43099858 62.39785994     6    227    0    0    0
C 1050.07252172 32.38273552 65.99798068     2    227   231   232   233
H 1048.21052781 31.90455592 65.38010485     6    230    0    0    0
H 1050.28224056 31.43371768 67.81861902     6    230    0    0    0
C 1050.44337225 35.26353095 66.20553956     2    230   234   235   236
H 1052.52077249 35.53855550 65.91033478     6    233    0    0    0
H 1049.58429712 36.11560712 64.62585553     6    233    0    0    0
C 1049.67032083 36.58493252 68.70613452     1    233   237   238   239
H 1050.47762781 38.56159492 69.06050565     6    236    0    0    0
H 1050.39637810 35.51239748 70.26057681     6    236    0    0    0
H 1047.61746027 36.47939358 69.02360882     6    236    0    0    0
H 1046.11507016 35.50930876 35.37043826     6     241    0    0    0 
C 1044.40627934 35.54311747 34.29262961     1     240    242    243    244
H 1044.76538033 34.28964377 32.66604267     6     241    0    0    0
H 1042.89956292 34.73803399 35.58614414     6     241    0    0    0
C 1044.14767485 38.25485521 33.63122400     2     241    245    246    247
H 1043.46038847 39.36472040 35.24742167     6     244    0    0    0
H 1046.04520689 39.04881415 33.05097700     6     244    0    0    0
C 1042.01530657 38.53746128 31.63858581     2     244    248   249   250
H 1042.57549712 37.62131620 29.91496199     6     247    0    0    0
H 1040.39496582 37.42982231 32.32665391     6     247    0    0    0
C 1041.41357464 41.40500809 31.07028832     2     247   251   252   253
H 1039.48736607 41.66178529 30.60909568     6    250    0    0    0
H 1041.62801629 42.56505843 32.82237891     6    250    0    0    0
C 1042.94297640 42.28127053 28.78498225     2    250   254   255   256
H 1044.94144201 41.87439226 29.00864595     6    253    0    0    0
H 1042.27359082 41.37554095 27.04291411     6    253    0    0    0
C 1042.65462484 45.13579217 28.31142799     2    253   257   258   259
H 1043.17035585 45.54641272 26.36873471     6    256    0    0    0
H 1040.59000678 45.54828565 28.26589427     6    256    0    0    0
C 1043.97540215 46.98582018 30.12247689     2    256   260   261   262
H 1043.49923931 46.68256737 32.10864772     6    259    0    0    0
H 1046.03051701 46.80689087 30.31771393     6    259    0    0    0
C 1043.15930866 49.79290704 29.21965190     2    259   263   264   265
H 1044.13149511 49.96170176 27.30763308     6    262    0    0    0
H 1041.09206018 49.71333691 28.86071071     6    262    0    0    0
C 1044.00391570 51.90357628 31.08213861     2    262   266   267   268
H 1042.33758229 52.25533079 32.33347687     6    265    0    0    0
H 1045.57352786 51.20147079 32.12881738     6    265    0    0    0
C 1044.95036062 54.20170846 29.67460151     2    265   269   270   271
H 1046.32100393 53.51390732 28.32128777     6    268    0    0    0
H 1043.26890784 54.97159259 28.81822626     6    268    0    0    0
C 1045.97324869 56.46674297 31.25944691     2    268   272   273   274
H 1044.84046273 56.93453637 32.95945867     6    271    0    0    0
H 1047.95092913 56.15023246 31.81153244     6    271    0    0    0
C 1046.16929326 58.93551344 29.66994932     1    271   275   276   277
H 1047.93617604 59.19674631 28.69680221     6    274    0    0    0
H 1045.70475244 60.50458445 30.84237524     6    274    0    0    0
H 1044.51027188 59.14926018 28.41729634     6    274    0    0    0
H 1055.62674889 14.07097107 42.96847385     6     279    0    0    0 
C 1053.84984891 14.28243998 43.94676458     1     278    280    281    282
H 1052.33601868 13.66583137 42.73668416     6     279    0    0    0
H 1053.82985463 13.28649553 45.67329835     6     279    0    0    0
C 1053.55731309 17.13735612 44.26944555     2     279    283    284    285
H 1055.31581783 17.75700657 45.38568962     6     282    0    0    0
H 1053.78269004 17.92467152 42.32648399     6     282    0    0    0
C 1051.00689349 17.98555943 45.40204452     2     282    286   287   288
H 1049.50708317 17.47717423 44.04529861     6     285    0    0    0
H 1050.71094775 16.98373713 47.14634480     6     285    0    0    0
C 1050.73882514 20.83676701 45.96004278     2     285   289   290   291
H 1052.33255538 21.41987258 47.17038154     6    288    0    0    0
H 1050.79461243 21.79351011 44.22724694     6    288    0    0    0
C 1048.16346981 21.54334808 47.11325582     2    288   292   293   294
H 1046.72331140 21.08225054 45.87429497     6    291    0    0    0
H 1047.72688024 20.39193226 48.79459560     6    291    0    0    0
C 1048.22283080 24.33153368 48.23393961     2    291   295   296   297
H 1046.38027998 24.70249792 49.17592528     6    294    0    0    0
H 1049.38363518 24.27543043 49.93415490     6    294    0    0    0
C 1048.99298174 26.54515668 46.53405256     2    294   298   299   300
H 1050.88994649 26.07314895 45.71041046     6    297    0    0    0
H 1047.66603069 26.54048687 44.84422882     6    297    0    0    0
C 1048.89370077 29.08646867 47.76648303     2    297   301   302   303
H 1046.95934710 29.46919393 48.38599643     6    300    0    0    0
H 1050.24982519 29.36376658 49.43503437     6    300    0    0    0
C 1049.79780055 31.15779880 45.70781211     2    300   304   305   306
H 1051.66772274 30.70346870 45.07006261     6    303    0    0    0
H 1048.49833264 31.31328989 44.10326176     6    303    0    0    0
C 1049.61953954 33.72243965 46.90509054     2    303   307   308   309
H 1047.65959613 34.26692767 46.88837471     6    306    0    0    0
H 1050.19025935 33.64121190 48.81376506     6    306    0    0    0
C 1050.99254345 35.79437832 45.46568034     2    306   310   311   312
H 1052.96597392 35.40932149 45.02043457     6    309    0    0    0
H 1050.15597004 35.80695940 43.62305428     6    309    0    0    0
C 1050.89020549 38.22057840 46.84771224     1    309   313   314   315
H 1051.82051737 39.69616687 45.69451618     6    312    0    0    0
H 1051.91950334 37.96615730 48.53292773     6    312    0    0    0
H 1048.98707725 38.54815862 47.37648642     6    312    0    0    0
H 1032.09366695 14.71093151 38.07704721     6     317    0    0    0 
C 1030.86454550 13.96594015 36.61171079     1     316    318    319    320
H 1029.18719010 15.20193556 36.78816600     6     317    0    0    0
H 1031.54415022 14.40697585 34.73233858     6     317    0    0    0
C 1030.39245771 11.24599375 36.88938854     2     317    321    322    323
H 1029.25359533 10.72540817 35.26453223     6     320    0    0    0
H 1032.11610102 10.18939556 36.39504590     6     320    0    0    0
C 1029.39979051 10.42698273 39.53908413     2     320    324   325   326
H 1029.43448728 8.35012289 39.61160622     6     323    0    0    0
H 1030.73313888 10.99285828 40.91515918     6     323    0    0    0
C 1026.74366004 11.43013848 40.05049039     2     323   327   328   329
H 1026.86993268 13.51456001 40.11743416     6    326    0    0    0
H 1025.37111760 10.96569545 38.60150861     6    326    0    0    0
C 1025.85970467 10.66478373 42.58934037     2    326   330   331   332
H 1025.88091890 8.63916168 42.70613060     6    329    0    0    0
H 1026.97817284 11.26406827 44.22445978     6    329    0    0    0
C 1023.07814861 11.22064791 42.80044195     2    329   333   334   335
H 1022.95952544 13.23676802 42.81574120     6    332    0    0    0
H 1022.12174054 10.51576365 41.09729886     6    332    0    0    0
C 1021.81779022 10.44481239 45.30939067     2    332   336   337   338
H 1020.30767213 9.12119654 44.78977936     6    335    0    0    0
H 1023.07419641 9.33075865 46.47114213     6    335    0    0    0
C 1020.45112167 12.70888056 46.54609634     2    335   339   340   341
H 1021.83529376 14.03803744 47.24805383     6    338    0    0    0
H 1019.36162044 13.56555349 45.09607628     6    338    0    0    0
C 1018.64834747 12.09164547 48.74455014     2    338   342   343   344
H 1017.49358596 10.49053115 48.17192630     6    341    0    0    0
H 1019.66845869 11.24457487 50.37786220     6    341    0    0    0
C 1016.90203405 14.33461277 49.82642624     2    341   345   346   347
H 1015.92922417 13.46519438 51.32454943     6    344    0    0    0
H 1018.11018790 15.70446678 50.76245691     6    344    0    0    0
C 1014.97989603 15.47385566 48.06519743     2    344   348   349   350
H 1016.02702517 16.11332849 46.40824475     6    347    0    0    0
H 1014.15960620 13.83084116 47.23836960     6    347    0    0    0
C 1013.22001540 17.45231826 49.27687862     1    347   351   352   353
H 1012.35518474 16.86161811 51.03709507     6    350    0    0    0
H 1011.80511924 18.01830317 47.86822988     6    350    0    0    0
H 1014.12772825 19.33090649 49.56379390     6    350    0    0    0
H 1049.98646956 28.69928185 38.94213302     6     355    0    0    0 
C 1048.11724787 27.82777181 38.93663090     1     354    356    357    358
H 1047.09807389 28.93971312 40.30510796     6     355    0    0    0
H 1047.14309015 28.19528432 37.17421742     6     355    0    0    0
C 1048.09161004 24.91208306 39.63707932     2     355    359    360    361
H 1048.48217653 23.84020828 38.00473602     6     358    0    0    0
H 1049.61686271 24.24188586 40.88596505     6     358    0    0    0
C 1045.46510403 23.91466442 40.49854835     2     358    362   363   364
H 1045.32505411 24.34762221 42.44463402     6     361    0    0    0
H 1043.89340742 24.85919800 39.40550230     6     361    0    0    0
C 1045.25629254 21.09886895 39.84010448     2     361   365   366   367
H 1045.18555879 20.84783885 37.84846315     6    364    0    0    0
H 1047.06712951 20.29096738 40.47784269     6    364    0    0    0
C 1042.78547699 19.84678972 40.94680451     2    364   368   369   370
H 1042.64830329 19.64720508 42.96680995     6    367    0    0    0
H 1041.15945571 20.80575140 40.40186238     6    367    0    0    0
C 1042.43051057 17.09350713 39.88858355     2    367   371   372   373
H 1042.31895819 17.17808841 37.84241046     6    370    0    0    0
H 1044.17471726 15.97275102 40.19304711     6    370    0    0    0
C 1040.29071367 15.55013644 40.99737395     2    370   374   375   376
H 1040.12529441 15.69208823 42.96278102     6    373    0    0    0
H 1038.48777151 16.02648497 40.12786001     6    373    0    0    0
C 1040.68388131 12.75193486 40.52549916     2    373   377   378   379
H 1041.26368242 12.48209754 38.55769599     6    376    0    0    0
H 1042.24019689 12.16849439 41.76252366     6    376    0    0    0
C 1038.45928482 10.81165477 40.89730775     2    376   380   381   382
H 1037.60501107 11.29415047 42.70508146     6    379    0    0    0
H 1037.12631177 11.32923626 39.28111082     6    379    0    0    0
C 1039.43302659 8.08372393 40.68660700     2    379   383   384   385
H 1040.43816219 8.09973236 38.87398328     6    382    0    0    0
H 1040.78120192 7.96215557 42.28544055     6    382    0    0    0
C 1037.44924569 5.97666729 40.62303651     2    382   386   387   388
H 1038.25519338 4.09903682 40.94985051     6    385    0    0    0
H 1036.15997953 6.34371172 42.27832523     6    385    0    0    0
C 1036.07304364 5.90616611 38.05295404     1    385   389   390   391
H 1037.27964009 5.40897621 36.51508195     6    388    0    0    0
H 1035.28898513 7.74101081 37.37709671     6    388    0    0    0
H 1034.39851542 4.73346600 37.99276934     6    388    0    0    0
H 996.40064734 33.92381637 61.60343982     6     393    0    0    0 
C 997.48951193 35.57654260 61.59973768     1     392    394    395    396
H 996.24262780 37.16846505 61.16990032     6     393    0    0    0
H 997.90495302 35.65344580 63.66995707     6     393    0    0    0
C 999.51350400 35.58455510 59.56819575     2     393    397    398    399
H 1000.66421665 33.92207140 59.58591600     6     396    0    0    0
H 998.70114805 35.77087396 57.66780905     6     396    0    0    0
C 1001.49197370 37.69480989 60.02736211     2     396    400   401   402
H 1000.56983182 39.47997448 60.55036524     6     399    0    0    0
H 1002.73035775 37.28305059 61.70896953     6     399    0    0    0
C 1003.22301200 37.94088130 57.58077216     2     399   403   404   405
H 1004.30972235 36.19385442 57.35956364     6    402    0    0    0
H 1002.06189099 37.71551193 55.87734473     6    402    0    0    0
C 1004.98379423 40.20393641 57.49503932     2    402   406   407   408
H 1004.17016048 41.94760069 58.17807984     6    405    0    0    0
H 1006.40089959 39.88802875 58.91109216     6    405    0    0    0
C 1006.22282718 40.58148939 54.88673358     2    405   409   410   411
H 1006.87225370 38.71779600 54.33884869     6    408    0    0    0
H 1004.76413763 40.92745385 53.59321402     6    408    0    0    0
C 1008.32847979 42.51613228 54.62943572     2    408   412   413   414
H 1007.65486234 44.29801251 55.42484065     6    411    0    0    0
H 1009.92487517 42.06206583 55.84808614     6    411    0    0    0
C 1009.25440854 42.70349097 51.78651543     2    411   415   416   417
H 1010.03355186 41.00815224 51.08036145     6    414    0    0    0
H 1007.50418519 43.00358836 50.62713659     6    414    0    0    0
C 1011.23247907 44.69954760 51.02990467     2    414   418   419   420
H 1011.43334157 46.02149938 52.52917675     6    417    0    0    0
H 1013.11837714 43.80726867 51.10570070     6    417    0    0    0
C 1010.57662411 45.91957851 48.45371520     2    417   421   422   423
H 1010.53003737 44.50941354 46.95144923     6    420    0    0    0
H 1008.60457278 46.62069110 48.74595299     6    420    0    0    0
C 1012.25376538 48.21900576 47.65332195     2    420   424   425   426
H 1011.56602335 48.73819291 45.82888185     6    423    0    0    0
H 1012.15932953 49.73346435 48.99379146     6    423    0    0    0
C 1015.12860065 47.58784322 47.60577493     1    423   427   428   429
H 1015.79175048 48.65663580 45.81637522     6    426    0    0    0
H 1015.60460670 45.55812376 47.27038267     6    426    0    0    0
H 1016.32999107 48.23866187 49.14954742     6    426    0    0    0
H 1014.85570699 36.61193338 32.38833742     6     431    0    0    0 
C 1013.53487543 37.79117773 31.50827648     1     430    432    433    434
H 1013.76925056 39.64214627 32.19961033     6     431    0    0    0
H 1013.86973796 37.68524050 29.40658932     6     431    0    0    0
C 1011.08057323 36.52196747 32.07784833     2     431    435    436    437
H 1011.12091382 34.60162709 31.65009814     6     434    0    0    0
H 1010.68913279 36.74404488 34.17060256     6     434    0    0    0
C 1009.03549076 37.83386902 30.47554069     2     434    438   439   440
H 1008.96155732 39.94569874 30.75554064     6     437    0    0    0
H 1009.38813237 37.57545722 28.44642927     6     437    0    0    0
C 1006.30968899 36.87823972 30.86266508     2     437   441   442   443
H 1005.33186570 37.19081446 28.93594419     6    440    0    0    0
H 1006.31491551 34.87068738 31.35485376     6    440    0    0    0
C 1004.71295443 38.27248276 32.75202448     2    440   444   445   446
H 1005.98528984 38.55023105 34.36276441     6    443    0    0    0
H 1003.85680992 39.84795397 31.69513134     6    443    0    0    0
C 1002.50688233 36.72372802 33.81411506     2    443   447   448   449
H 1001.10464640 36.25974744 32.27158834     6    446    0    0    0
H 1003.15147953 34.96636313 34.45005030     6    446    0    0    0
C 1000.68022722 38.25694207 35.36982130     2    446   450   451   452
H 1000.33011537 40.08086304 34.41049403     6    449    0    0    0
H 998.66748055 37.42343066 35.42328181     6    449    0    0    0
C 1001.51617934 38.55998940 38.09370111     2    449   453   454   455
H 1002.39275782 36.96345560 38.75914259     6    452    0    0    0
H 1002.92458579 40.05691238 38.04647643     6    452    0    0    0
C 999.55301874 39.13172999 40.16065530     2    452   456   457   458
H 998.69110646 40.80896055 39.66409397     6    455    0    0    0
H 997.98438011 37.67528189 40.08857703     6    455    0    0    0
C 1000.53719413 38.98711004 42.88538475     2    455   459   460   461
H 998.84370800 39.43208876 44.10596352     6    458    0    0    0
H 1000.79450155 36.96752994 43.28926023     6    458    0    0    0
C 1002.78871075 40.81029718 43.39024470     2    458   462   463   464
H 1004.30784226 40.07791696 42.26329454     6    461    0    0    0
H 1002.26709189 42.72033424 42.60540834     6    461    0    0    0
C 1003.34718487 41.40106942 46.13910177     1    461   465   466   467
H 1003.37141951 39.79937851 47.51578954     6    464    0    0    0
H 1002.06582082 42.76610698 47.02616824     6    464    0    0    0
H 1005.23258932 42.32431419 46.49836446     6    464    0    0    0
H 1033.28220429 7.58948158 33.78127021     6     469    0    0    0 
C 1033.36657443 7.70357978 31.68187418     1     468    470    471    472
H 1034.79266863 6.39099604 31.09641771     6     469    0    0    0
H 1031.63833445 7.28554177 30.52860173     6     469    0    0    0
C 1034.28143190 10.37963895 31.08740399     2     469    473    474    475
H 1034.72622041 10.33862666 29.14240347     6     472    0    0    0
H 1032.76505335 11.69656382 31.37335573     6     472    0    0    0
C 1036.41276374 11.29401805 32.76392608     2     472    476   477   478
H 1035.59582406 11.52467555 34.64160309     6     475    0    0    0
H 1037.80372562 9.83979663 33.03929905     6     475    0    0    0
C 1037.68067363 13.84247774 31.92508963     2     475   479   480   481
H 1037.80048002 14.00522389 29.89621012     6    478    0    0    0
H 1036.37777553 15.42940244 32.62798950     6    478    0    0    0
C 1040.35132110 14.04756006 33.07476201     2    478   482   483   484
H 1040.44816976 14.21293441 35.17357024     6    481    0    0    0
H 1041.35479505 12.26291485 32.54312994     6    481    0    0    0
C 1041.80147529 16.26189504 31.91186517     2    481   485   486   487
H 1041.76588745 16.12632971 29.88900683     6    484    0    0    0
H 1041.06904532 18.22374843 32.35461881     6    484    0    0    0
C 1044.52500248 16.37361843 32.76443439     2    484   488   489   490
H 1044.64468330 16.32645073 34.86142377     6    487    0    0    0
H 1045.52465803 14.65429509 32.23810035     6    487    0    0    0
C 1045.63531356 18.82753237 31.64976375     2    487   491   492   493
H 1044.94385325 18.96521734 29.65140561     6    490    0    0    0
H 1044.99932360 20.44906547 32.77895186     6    490    0    0    0
C 1048.60256886 18.61576704 31.85965000     2    490   494   495   496
H 1049.16523010 18.14189300 33.74167154     6    493    0    0    0
H 1049.21624299 17.09762192 30.68358810     6    493    0    0    0
C 1049.83672948 21.12040667 30.92312272     2    493   497   498   499
H 1049.10034632 21.24827614 28.86814731     6    496    0    0    0
H 1049.35490005 22.66633323 32.19769460     6    496    0    0    0
C 1052.76030584 20.94887290 30.99911548     2    496   500   501   502
H 1053.30970525 20.62741307 33.03745660     6    499    0    0    0
H 1053.21063063 19.36779472 29.79678172     6    499    0    0    0
C 1053.99180671 23.32562998 29.87151617     1    499   503   504   505
H 1056.02159650 23.07178475 29.53250986     6    502    0    0    0
H 1053.92292475 24.94536524 31.01371923     6    502    0    0    0
H 1053.43665281 23.59510806 27.88445380     6    502    0    0    0
H 1034.99468758 56.03309087 28.93533117     6     507    0    0    0 
C 1033.20466228 55.11873401 28.34447228     1     506    508    509    510
H 1032.06372923 56.36042221 27.19189975     6     507    0    0    0
H 1033.70067574 53.48845737 27.04480694     6     507    0    0    0
C 1031.64083035 54.34574620 30.50954099     2     507    511    512    513
H 1032.81136541 53.07912585 31.79647354     6     510    0    0    0
H 1031.21536450 56.10657368 31.56893340     6     510    0    0    0
C 1029.17096161 53.05867517 29.97621470     2     510    514   515   516
H 1028.01358950 54.42023536 29.00527174     6     513    0    0    0
H 1029.27426501 51.33285648 28.76426437     6     513    0    0    0
C 1027.62838987 52.28474757 32.31957505     2     513   517   518   519
H 1028.33917898 50.52075975 32.94555272     6    516    0    0    0
H 1027.73713382 53.80942279 33.66738483     6    516    0    0    0
C 1024.81973004 51.98986594 31.68516566     2    516   520   521   522
H 1023.82586102 53.89228827 31.51269070     6    519    0    0    0
H 1024.28588027 51.01577560 29.89028304     6    519    0    0    0
C 1023.37114051 50.81035867 33.86181804     2    519   523   524   525
H 1024.15310299 49.31919744 35.09858073     6    522    0    0    0
H 1023.65962267 52.30832907 35.38052162     6    522    0    0    0
C 1020.45376577 50.15696582 33.50233476     2    522   526   527   528
H 1019.41081412 51.84729764 33.18132698     6    525    0    0    0
H 1020.12746192 48.79084698 31.91014000     6    525    0    0    0
C 1019.28627973 48.78645696 35.71936522     2    525   529   530   531
H 1020.55502856 47.33248647 36.31668304     6    528    0    0    0
H 1019.31252370 49.96524542 37.41364473     6    528    0    0    0
C 1016.56575388 47.91092671 35.19340726     2    528   532   533   534
H 1015.34830944 49.34051660 34.46659840     6    531    0    0    0
H 1016.96378305 46.39870975 33.84637518     6    531    0    0    0
C 1014.98894211 46.52158350 37.34387388     2    531   535   536   537
H 1015.83176695 44.64237447 37.48976486     6    534    0    0    0
H 1015.50860044 47.52940501 39.10103115     6    534    0    0    0
C 1012.04533248 46.36947754 37.08895524     2    534   538   539   540
H 1011.42870763 48.15959548 37.36541829     6    537    0    0    0
H 1011.53682319 45.79866117 35.09667484     6    537    0    0    0
C 1010.69448637 44.58805937 38.87596427     1    537   541   542   543
H 1008.59533042 44.69993600 38.86024386     6    540    0    0    0
H 1011.21733354 44.77937439 40.87593861     6    540    0    0    0
H 1011.00848352 42.62181653 38.45058882     6    540    0    0    0
H 1010.83682413 28.21202515 44.57020813     6     545    0    0    0 
C 1011.52171762 27.86567068 46.37806214     1     544    546    547    548
H 1011.64369418 25.79514679 46.58081535     6     545    0    0    0
H 1013.41454117 28.81678019 46.61773725     6     545    0    0    0
C 1009.86923677 28.67787523 48.64865810     2     545    549    550    551
H 1009.83422572 30.72065158 48.84450214     6     548    0    0    0
H 1008.08765921 27.87615576 48.42742904     6     548    0    0    0
C 1010.90288449 28.12762812 51.33172612     2     548    552   553   554
H 1012.41676082 29.18834991 51.92955062     6     551    0    0    0
H 1009.51910772 28.69762053 52.82798214     6     551    0    0    0
C 1011.68971315 25.37766808 51.96469811     2     551   555   556   557
H 1009.93053923 24.30922610 51.97786737     6    554    0    0    0
H 1012.77525906 24.61603081 50.37107603     6    554    0    0    0
C 1012.96002117 24.84245838 54.61079603     2    554   558   559   560
H 1014.98053116 24.99108866 54.48514503     6    557    0    0    0
H 1012.08697259 25.82425216 56.17222652     6    557    0    0    0
C 1012.76003280 22.04131738 55.41369077     2    557   561   562   563
H 1010.84077335 21.60449837 55.97116093     6    560    0    0    0
H 1013.12140725 20.82967503 53.76214767     6    560    0    0    0
C 1014.38032178 21.21056915 57.71115546     2    560   564   565   566
H 1016.19477173 21.46550155 56.86186545     6    563    0    0    0
H 1014.39813134 22.57501741 59.18384399     6    563    0    0    0
C 1014.06500311 18.51652531 58.49230101     2    563   567   568   569
H 1012.09749429 17.99291411 58.42453075     6    566    0    0    0
H 1014.99810369 17.21067901 57.14637673     6    566    0    0    0
C 1015.16147568 18.11920318 61.17199951     2    566   570   571   572
H 1016.89421382 19.14762806 61.61896577     6    569    0    0    0
H 1013.76833719 18.53832314 62.56219179     6    569    0    0    0
C 1015.74572894 15.33381758 61.42730248     2    569   573   574   575
H 1014.33802636 14.19143830 60.62784978     6    572    0    0    0
H 1017.36373148 14.64431764 60.35118247     6    572    0    0    0
C 1016.23494153 14.80185803 64.17722642     2    572   576   577   578
H 1014.99128853 15.78614139 65.40106509     6    575    0    0    0
H 1015.71073635 13.02961220 64.67552022     6    575    0    0    0
C 1018.97499343 15.08921909 65.14808133     1    575   579   580   581
H 1020.35145232 14.20038927 63.82408855     6    578    0    0    0
H 1019.25951673 14.47260318 67.14518346     6    578    0    0    0
H 1019.41195045 17.01125612 64.79913305     6    578    0    0    0
H 1046.14663813 12.40645721 43.75312476     6     583    0    0    0 
C 1046.00786923 12.04597789 45.69069994     1     582    584    585    586
H 1047.69098918 10.90963802 46.37123846     6     583    0    0    0
H 1046.09538072 13.86255655 46.59002873     6     583    0    0    0
C 1043.29631145 11.05794234 46.49199910     2     583    587    588    589
H 1041.76523983 12.41702659 46.24283779     6     586    0    0    0
H 1042.79838461 9.34081884 45.59051420     6     586    0    0    0
C 1042.90857875 10.42260860 49.31787403     2     586    590   591   592
H 1044.45675210 9.19190993 50.09972985     6     589    0    0    0
H 1042.90749409 12.18451603 50.43350305     6     589    0    0    0
C 1040.48162518 8.97638489 49.92462119     2     589   593   594   595
H 1038.96366432 10.41716146 49.73524904     6    592    0    0    0
H 1040.13917429 7.29445416 48.75927992     6    592    0    0    0
C 1040.31660727 8.14818937 52.78507052     2    592   596   597   598
H 1041.75596864 6.94340633 53.25145613     6    595    0    0    0
H 1040.41441867 9.85261919 53.99994597     6    595    0    0    0
C 1037.75569102 6.87722240 53.25386822     2    595   599   600   601
H 1036.25425171 8.34333787 52.91068029     6    598    0    0    0
H 1037.47857566 5.32555376 51.96055405     6    598    0    0    0
C 1037.72475533 5.73661561 55.87581040     2    598   602   603   604
H 1039.10377792 4.31390383 55.96156830     6    601    0    0    0
H 1038.37209318 7.20323389 57.19946854     6    601    0    0    0
C 1035.36255731 4.24462958 56.51311079     2    601   605   606   607
H 1033.69467779 5.34917411 56.00528460     6    604    0    0    0
H 1035.34130195 2.50695329 55.39017464     6    604    0    0    0
C 1035.23176963 3.70290488 59.25354964     2    604   608   609   610
H 1036.28755099 1.99439061 59.73949389     6    607    0    0    0
H 1036.15778470 5.31760749 60.32432756     6    607    0    0    0
C 1032.47223636 3.27761265 59.97178172     2    607   611   612   613
H 1031.41432734 5.06635784 59.45092163     6    610    0    0    0
H 1031.45079334 1.79293464 58.97556957     6    610    0    0    0
C 1032.44712519 2.66811669 62.85392106     2    610   614   615   616
H 1033.67498974 1.13799938 63.48048656     6    613    0    0    0
H 1033.32851560 4.17817403 63.92493575     6    613    0    0    0
C 1029.86429722 2.08612396 63.65886282     1    613   617   618   619
H 1029.89488611 1.27590129 65.56551669     6    616    0    0    0
H 1028.76931582 0.75461670 62.36711394     6    616    0    0    0
H 1028.86671158 3.85429901 63.52538761     6    616    0    0    0
H 1020.79562531 44.70338686 63.53604865     6     621    0    0    0 
C 1021.09970187 45.17218185 61.58307556     1     620    622    623    624
H 1020.14481960 43.70275567 60.51473378     6     621    0    0    0
H 1020.38548646 47.04889999 61.25070857     6     621    0    0    0
C 1024.05150966 45.26835692 61.19038602     2     621    625    626    627
H 1024.40415859 45.80698439 59.23577974     6     624    0    0    0
H 1024.93992915 46.67173449 62.28021422     6     624    0    0    0
C 1025.47212086 42.71237994 61.64735808     2     624    628   629   630
H 1024.87463411 41.84916642 63.29667222     6     627    0    0    0
H 1024.81799720 41.50680093 60.15250780     6     627    0    0    0
C 1028.30707742 42.98527857 61.70248862     2     627   631   632   633
H 1029.12654806 41.07428910 61.63798572     6    630    0    0    0
H 1028.71357803 43.86370503 59.97641607     6    630    0    0    0
C 1029.55167846 44.51543214 63.78824454     2    630   634   635   636
H 1029.34491646 46.49862759 63.45293295     6    633    0    0    0
H 1028.54067629 44.10604952 65.45879821     6    633    0    0    0
C 1032.53302625 44.12317120 63.93311708     2    633   637   638   639
H 1032.86490929 42.18005758 64.28353784     6    636    0    0    0
H 1033.11953546 44.55338592 62.00641420     6    636    0    0    0
C 1033.76342575 45.94140093 65.88718066     2    636   640   641   642
H 1033.64527130 47.96860262 65.23653371     6    639    0    0    0
H 1032.67670228 45.83089278 67.58072225     6    639    0    0    0
C 1036.49865091 45.26923469 66.63954181     2    639   643   644   645
H 1036.42201447 43.44587464 67.67821324     6    642    0    0    0
H 1037.70434862 44.97465250 64.82898079     6    642    0    0    0
C 1037.89110420 47.11860608 68.43602262     2    642   646   647   648
H 1037.90529924 49.06295494 67.77025045     6    645    0    0    0
H 1036.80755860 47.01355277 70.15516776     6    645    0    0    0
C 1040.68522126 46.23634161 68.67959867     2    645   649   650   651
H 1040.96039586 44.39407562 69.57947269     6    648    0    0    0
H 1041.43278923 46.04023708 66.77990176     6    648    0    0    0
C 1042.17279962 47.99720967 70.24317632     2    648   652   653   654
H 1042.33735977 49.84574208 69.24105378     6    651    0    0    0
H 1041.03903068 48.19732088 71.96945997     6    651    0    0    0
C 1044.75779781 47.05890419 70.96286116     1    651   655   656   657
H 1045.69911296 46.34371149 69.35218046     6    654    0    0    0
H 1045.00172642 45.47206616 72.32097438     6    654    0    0    0
H 1045.88518448 48.67776401 71.66948819     6    654    0    0    0
H 1042.01767820 19.97126701 47.37415743     6     659    0    0    0 
C 1041.40516619 18.39747987 48.37336060     1     658    660    661    662
H 1039.47086398 18.28181488 47.88779473     6     659    0    0    0
H 1042.48930233 16.81718688 47.65743913     6     659    0    0    0
C 1041.96671699 19.00517198 51.19320694     2     659    663    664    665
H 1043.52037014 17.89612186 52.02574821     6     662    0    0    0
H 1042.87675971 20.95414447 51.18948685     6     662    0    0    0
C 1039.71811907 18.83718334 53.02933680     2     662    666   667   668
H 1040.48534695 19.67492423 54.85788689     6     665    0    0    0
H 1038.17134313 20.04554245 52.41887689     6     665    0    0    0
C 1039.02747884 16.11814223 53.66517016     2     665   669   670   671
H 1038.52604665 15.08298916 51.87076808     6    668    0    0    0
H 1040.75926815 15.34142168 54.34726588     6    668    0    0    0
C 1037.02633645 15.98021883 55.67456730     2    668   672   673   674
H 1037.97748961 16.31029909 57.39760254     6    671    0    0    0
H 1035.88741127 17.58288178 55.43703049     6    671    0    0    0
C 1035.35923779 13.64795794 55.45661070     2    671   675   676   677
H 1034.51034148 13.35180356 53.57734081     6    674    0    0    0
H 1036.67772072 12.17825434 55.86881031     6    674    0    0    0
C 1033.31092064 13.46562267 57.54001549     2    674   678   679   680
H 1034.02882213 14.04888736 59.33355159     6    677    0    0    0
H 1031.73987679 14.73110664 57.09649365     6    677    0    0    0
C 1032.20057410 10.68115220 57.64276844     2    677   681   682   683
H 1032.31880691 9.86310524 55.71406121     6    680    0    0    0
H 1033.15362047 9.57920080 58.93023955     6    680    0    0    0
C 1029.46751764 10.74108654 58.49186030     2    680   684   685   686
H 1028.73324674 12.47080126 57.84599220     6    683    0    0    0
H 1028.42312411 9.21723615 57.48213435     6    683    0    0    0
C 1029.07657912 10.74173017 61.45780926     2    683   687   688   689
H 1029.93223882 9.13752915 62.42528919     6    686    0    0    0
H 1030.17953758 12.35201201 62.17849082     6    686    0    0    0
C 1026.43274205 11.09690272 62.40886252     2    686   690   691   692
H 1025.51990966 12.60961353 61.25672646     6    689    0    0    0
H 1025.68319559 9.26801350 61.83167298     6    689    0    0    0
C 1025.86480952 11.41800065 65.30819954     1    689   693   694   695
H 1023.80015820 11.48507563 65.25296885     6    692    0    0    0
H 1026.93023200 12.94782353 66.22905950     6    692    0    0    0
H 1026.37668965 9.84017417 66.43288357     6    692    0    0    0
H 1006.97332325 22.62378400 59.89795715     6     697    0    0    0 
C 1006.15720314 20.80826980 60.72309118     1     696    698    699    700
H 1006.88492486 19.14749999 59.99589564     6     697    0    0    0
H 1006.94039887 20.78375416 62.63153742     6     697    0    0    0
C 1003.23468800 20.97285065 60.76980203     2     697    701    702    703
H 1002.66623896 19.28104444 61.61565730     6     700    0    0    0
H 1002.50975139 22.51070909 62.11925534     6     700    0    0    0
C 1001.95956167 20.90386327 58.12506210     2     700    704   705   706
H 1002.34174107 19.10254119 57.12364647     6     703    0    0    0
H 999.88723692 20.84095324 58.40362464     6     703    0    0    0
C 1002.67688652 23.29830349 56.54218950     2     703   707   708   709
H 1001.88194662 25.04034858 57.54600587     6    706    0    0    0
H 1004.67271231 23.46390851 56.34609483     6    706    0    0    0
C 1001.59586413 23.24845779 53.92818368     2    706   710   711   712
H 1002.48414824 21.85155148 52.98078426     6    709    0    0    0
H 999.55335473 22.77613760 53.90164604     6    709    0    0    0
C 1001.61892679 25.84423334 52.58175995     2    709   713   714   715
H 1000.26404210 27.25635417 53.41585037     6    712    0    0    0
H 1003.42485530 26.88385159 52.86044989     6    712    0    0    0
C 1000.72214419 25.92233267 49.85262141     2    712   716   717   718
H 1001.90106601 24.71299114 48.78465913     6    715    0    0    0
H 998.93453413 24.96137154 49.75160278     6    715    0    0    0
C 1000.61610755 28.55183240 48.61176855     2    715   719   720   721
H 1000.67402570 29.99033957 50.13170994     6    718    0    0    0
H 1002.30495104 28.39750038 47.40716081     6    718    0    0    0
C 998.26533037 28.98625737 46.97386169     2    718   722   723   724
H 998.13354510 27.57042978 45.48731007     6    721    0    0    0
H 996.41848787 28.84549477 47.91789900     6    721    0    0    0
C 998.34752716 31.61060259 45.61804808     2    721   725   726   727
H 998.25321162 33.35588006 46.88972855     6    724    0    0    0
H 1000.18623841 31.80636839 44.72781670     6    724    0    0    0
C 996.23134696 31.87635325 43.60733063     2    724   728   729   730
H 996.82466054 33.61427310 42.62170249     6    727    0    0    0
H 996.52641038 30.13967371 42.51960488     6    727    0    0    0
C 993.56255110 31.98584684 44.50775653     1    727   731   732   733
H 993.16143125 33.26556627 46.00080591     6    730    0    0    0
H 992.84267569 30.14155983 44.83260054     6    730    0    0    0
H 992.62693792 32.83552038 42.85370622     6    730    0    0    0
H 1020.77921606 6.22541525 35.32633432     6     735    0    0    0 
C 1022.21213313 4.71708132 35.67824583     1     734    736    737    738
H 1021.82489313 4.21458822 37.68369622     6     735    0    0    0
H 1021.71857586 3.14802208 34.59648266     6     735    0    0    0
C 1024.99414894 5.59823540 35.20059960     2     735    739    740    741
H 1025.67185615 6.85664193 36.64992706     6     738    0    0    0
H 1026.09344350 3.90581073 35.32970421     6     738    0    0    0
C 1025.39599548 6.93771678 32.64148767     2     738    742   743   744
H 1027.33167884 7.43493032 32.77425572     6     741    0    0    0
H 1024.98195520 5.61828182 31.05770813     6     741    0    0    0
C 1023.84238502 9.40698214 32.32737158     2     741   745   746   747
H 1021.80283298 8.89219930 32.37074331     6    744    0    0    0
H 1024.10816443 10.62890312 33.98418425     6    744    0    0    0
C 1024.33702734 11.18222220 30.09519422     2    744   748   749   750
H 1024.70764155 10.09026336 28.30265541     6    747    0    0    0
H 1022.70349794 12.26980841 29.75057270     6    747    0    0    0
C 1026.82082525 12.73911211 30.32128494     2    747   751   752   753
H 1026.91481305 13.66731290 32.07282409     6    750    0    0    0
H 1028.46490199 11.50214574 30.25260530     6    750    0    0    0
C 1027.01713095 14.85804158 28.36725206     2    750   754   755   756
H 1027.34683289 13.92806876 26.50502041     6    753    0    0    0
H 1025.32733334 16.08098462 28.52203175     6    753    0    0    0
C 1029.37086755 16.54740289 29.01973111     2    753   757   758   759
H 1028.66790780 18.15856023 29.99147054     6    756    0    0    0
H 1030.63217337 15.55349071 30.33556469     6    756    0    0    0
C 1030.84420342 17.55076845 26.78091475     2    756   760   761   762
H 1031.76345654 15.91505317 26.11860804     6    759    0    0    0
H 1029.78827725 18.22117486 25.17250780     6    759    0    0    0
C 1032.83089712 19.40450004 27.47401584     2    759   763   764   765
H 1031.81782087 20.94694067 28.24221996     6    762    0    0    0
H 1033.89163339 18.74491769 29.00028292     6    762    0    0    0
C 1034.66903423 20.16035737 25.45199005     2    762   766   767   768
H 1036.51110165 19.11981650 25.30298742     6    765    0    0    0
H 1033.69384009 19.68482409 23.77005265     6    765    0    0    0
C 1035.12975268 22.95942109 25.63417940     1    765   769   770   771
H 1033.46578558 24.02487297 25.37241090     6    768    0    0    0
H 1036.41105287 23.56427471 24.17715994     6    768    0    0    0
H 1036.07847985 23.51916543 27.29690232     6    768    0    0    0
H 1036.26440668 55.75738184 59.60970569     6     773    0    0    0 
C 1034.75633081 55.13797119 58.39913489     1     772    774    775    776
H 1035.26248050 55.29603139 56.38994570     6     773    0    0    0
H 1034.52724660 53.21288388 58.86080974     6     773    0    0    0
C 1032.39142302 56.72456118 58.66959562     2     773    777    778    779
H 1032.18772888 56.99208304 60.66169323     6     776    0    0    0
H 1032.64098326 58.51650743 57.58186432     6     776    0    0    0
C 1030.07744047 55.14235853 57.86240289     2     776    780   781   782
H 1030.02578767 54.87922546 55.88698388     6     779    0    0    0
H 1030.02063325 53.15346200 58.35634100     6     779    0    0    0
C 1027.47588556 56.10180041 58.53867941     2     779   783   784   785
H 1027.06414138 56.44023388 60.62751268     6    782    0    0    0
H 1027.27999162 57.96461295 57.50204905     6    782    0    0    0
C 1025.41536630 54.29430445 57.67327354     2    782   786   787   788
H 1025.51008697 54.16819064 55.61330685     6    785    0    0    0
H 1025.78314657 52.31307419 58.23427201     6    785    0    0    0
C 1022.79104507 55.19166502 58.63457741     2    785   789   790   791
H 1022.89174313 55.59494275 60.62576491     6    788    0    0    0
H 1022.38428952 57.19582078 57.93102319     6    788    0    0    0
C 1020.53296117 53.44896383 57.92217886     2    788   792   793   794
H 1021.09860069 52.59095491 56.26485488     6    791    0    0    0
H 1020.17551755 52.01136642 59.44162119     6    791    0    0    0
C 1018.01473685 54.72886175 57.32584402     2    791   795   796   797
H 1017.18933168 55.89989380 58.88277700     6    794    0    0    0
H 1018.50496154 56.01931245 55.67625477     6    794    0    0    0
C 1016.03833506 52.79246063 56.51633951     2    794   798   799   800
H 1017.06711933 51.42614497 55.31952159     6    797    0    0    0
H 1015.69305421 51.53419667 58.13318383     6    797    0    0    0
C 1013.64482908 53.81699319 55.36078577     2    797   801   802   803
H 1012.85756675 55.26966231 56.34993920     6    800    0    0    0
H 1013.86902717 54.53858063 53.44874114     6    800    0    0    0
C 1011.63859619 51.68918717 55.23820503     2    800   804   805   806
H 1012.49044039 50.07517564 54.32818073     6    803    0    0    0
H 1011.07476257 51.05969674 57.21438398     6    803    0    0    0
C 1009.21454688 52.42434819 53.89207245     1    803   807   808   809
H 1007.59086259 51.09810376 54.26733137     6    806    0    0    0
H 1009.95637021 52.54024256 51.92194279     6    806    0    0    0
H 1008.91794090 54.37300872 54.72308769     6    806    0    0    0
H 1038.18456911 25.71436186 46.15141878     6     811    0    0    0 
C 1040.05482003 25.60068515 45.18061304     1     810    812    813    814
H 1041.35793701 24.24591722 46.03427175     6     811    0    0    0
H 1039.69242814 24.93363685 43.36981341     6     811    0    0    0
C 1041.26642956 28.28078774 44.90209536     2     811    815    816    817
H 1042.27057196 28.75876406 46.60398246     6     814    0    0    0
H 1042.81902632 28.04963563 43.49407227     6     814    0    0    0
C 1039.37907261 30.37057153 43.97780847     2     814    818   819   820
H 1038.97990406 30.32697444 41.94739775     6     817    0    0    0
H 1037.65981950 30.13076779 45.10598303     6     817    0    0    0
C 1040.37789805 32.90271135 44.67585350     2     817   821   822   823
H 1038.81577962 34.23511552 44.89016222     6    820    0    0    0
H 1041.31582622 32.61648737 46.47491540     6    820    0    0    0
C 1042.00705927 34.21182011 42.73424409     2    820   824   825   826
H 1043.75469462 32.99881145 42.60223611     6    823    0    0    0
H 1041.05869946 34.19530147 40.78523743     6    823    0    0    0
C 1043.13069166 36.82482878 43.46882335     2    823   827   828   829
H 1041.60975114 38.07713432 44.20605591     6    826    0    0    0
H 1044.55129123 36.61407442 44.97851103     6    826    0    0    0
C 1044.29447032 38.45847586 41.28509928     2    826   830   831   832
H 1045.80381645 37.36451886 40.42050663     6    829    0    0    0
H 1042.86592892 38.64222463 39.87778665     6    829    0    0    0
C 1044.88924521 41.16410061 42.06903919     2    829   833   834   835
H 1043.26343363 41.97772336 42.88741009     6    832    0    0    0
H 1046.05997177 41.08777594 43.75134201     6    832    0    0    0
C 1045.88965097 42.81051401 40.04790840     2    832   836   837   838
H 1047.70853569 41.97327988 39.19111915     6    835    0    0    0
H 1044.41085197 42.62613762 38.67676984     6    835    0    0    0
C 1046.53359560 45.72223775 40.60664059     2    835   839   840   841
H 1045.07471105 46.54199309 41.80317758     6    838    0    0    0
H 1048.29777935 45.77263813 41.65078256     6    838    0    0    0
C 1046.76814275 47.20171135 38.16409411     2    838   842   843   844
H 1048.49889564 46.59833029 37.24640155     6    841    0    0    0
H 1045.17329647 46.75478512 36.95614191     6    841    0    0    0
C 1046.88627543 50.12087652 38.54144261     1    841   845   846   847
H 1045.02457249 50.55547335 39.33612343     6    844    0    0    0
H 1046.98738556 50.90578470 36.63506468     6    844    0    0    0
H 1048.50415985 50.67828944 39.65648609     6    844    0    0    0
H 1028.06993446 0.81609297 75.23419599     6     849    0    0    0 
C 1027.26062348 1.19236863 73.38215984     1     848    850    851    852
H 1027.19708968 -0.49321569 72.37848946     6     849    0    0    0
H 1025.49318629 1.77088975 73.70270299     6     849    0    0    0
C 1028.63278907 3.14362180 71.94675766     2     849    853    854    855
H 1030.41549405 2.68717830 71.12185476     6     852    0    0    0
H 1027.56474008 3.19476962 70.28552480     6     852    0    0    0
C 1028.84779374 5.71502035 73.39978820     2     852    856   857   858
H 1027.03695727 5.67748601 74.53043255     6     855    0    0    0
H 1030.54089279 5.56301168 74.51386915     6     855    0    0    0
C 1029.16210115 8.11783588 71.70285343     2     855   859   860   861
H 1027.70637608 8.14164894 70.16511604     6    858    0    0    0
H 1028.84728778 9.89236046 72.88923702     6    858    0    0    0
C 1031.71490180 8.10581572 70.33000091     2    858   862   863   864
H 1033.10332635 8.31350182 71.74965124     6    861    0    0    0
H 1031.72054854 6.29640202 69.30086996     6    861    0    0    0
C 1032.15393052 10.48777478 68.77891226     2    861   865   866   867
H 1030.50809135 10.83498580 67.61516869     6    864    0    0    0
H 1032.42103620 12.08533477 70.06415072     6    864    0    0    0
C 1034.72327523 10.33456211 67.41332592     2    864   868   869   870
H 1036.29422930 9.82100434 68.67701936     6    867    0    0    0
H 1034.61632718 8.91213626 66.00610672     6    867    0    0    0
C 1035.33995251 12.71872902 66.04892614     2    867   871   872   873
H 1034.04868856 13.06301645 64.54895296     6    870    0    0    0
H 1034.92760901 14.35106133 67.31311589     6    870    0    0    0
C 1038.02473086 13.27224029 65.15558692     2    870   874   875   876
H 1038.13907955 15.23468847 64.79021794     6    873    0    0    0
H 1039.35771437 12.69084150 66.67746701     6    873    0    0    0
C 1038.65512634 11.68835543 62.79378867     2    873   877   878   879
H 1038.78653539 9.65591365 63.31363012     6    876    0    0    0
H 1037.17962137 11.91905212 61.23716328     6    876    0    0    0
C 1041.27120130 12.46412684 61.70796545     2    876   880   881   882
H 1040.99134378 14.09566662 60.36512784     6    879    0    0    0
H 1042.35713976 12.84361686 63.35570820     6    879    0    0    0
C 1042.60960748 10.25328220 60.26009817     1    879   883   884   885
H 1041.51792243 9.83921709 58.54070936     6    882    0    0    0
H 1042.58695413 8.62108540 61.29403328     6    882    0    0    0
H 1044.40267723 11.10625384 59.40287077     6    882    0    0    0
H 1032.62685730 35.35064895 49.73327274     6     887    0    0    0 
C 1032.70692288 34.68295946 47.78558199     1     886    888    889    890
H 1031.75616056 36.02804303 46.69610846     6     887    0    0    0
H 1034.69163768 34.80592481 47.41314390     6     887    0    0    0
C 1031.68511584 32.01635265 47.65162790     2     887    891    892    893
H 1029.73245402 32.02929000 48.39412172     6     890    0    0    0
H 1031.48632987 31.39802516 45.71058651     6     890    0    0    0
C 1033.35206059 30.27829592 49.15840467     2     890    894   895   896
H 1035.29079282 30.57189208 48.62823984     6     893    0    0    0
H 1033.36180526 30.56412303 51.22537913     6     893    0    0    0
C 1032.54329478 27.48604066 48.81749808     2     893   897   898   899
H 1030.53608709 27.24733699 49.28511440     6    896    0    0    0
H 1032.72978320 26.81889991 46.98255427     6    896    0    0    0
C 1033.96860081 25.65595308 50.63025372     2    896   900   901   902
H 1036.04813234 25.66881661 50.07218798     6    899    0    0    0
H 1033.96479611 26.23453521 52.67833789     6    899    0    0    0
C 1033.08711212 22.92238399 50.57484300     2    899   903   904   905
H 1034.27854206 21.80074820 51.84090516     6    902    0    0    0
H 1031.30916984 22.92083781 51.64009189     6    902    0    0    0
C 1032.93483803 21.88651811 47.96037876     2    902   906   907   908
H 1031.47347556 22.78484868 46.92098315     6    905    0    0    0
H 1034.79677512 22.35738315 46.93286057     6    905    0    0    0
C 1032.41535205 18.94082544 47.93364889     2    905   909   910   911
H 1033.39101344 18.00230013 49.60834338     6    908    0    0    0
H 1030.52253725 18.47113425 48.35729707     6    908    0    0    0
C 1033.01855036 17.42788145 45.46173751     2    908   912   913   914
H 1032.35022113 18.51291815 43.78208315     6    911    0    0    0
H 1035.01023790 17.46198429 45.19812546     6    911    0    0    0
C 1032.18282484 14.65193831 45.42469059     2    911   915   916   917
H 1030.27321723 14.67648796 45.96096491     6    914    0    0    0
H 1032.49290311 14.23564495 43.36489369     6    914    0    0    0
C 1033.49488463 13.04506682 47.47404357     2    914   918   919   920
H 1035.60414499 12.98422053 47.47528153     6    917    0    0    0
H 1032.92619782 13.63328903 49.30945816     6    917    0    0    0
C 1032.85718792 10.30697610 47.23066917     1    917   921   922   923
H 1033.64653892 9.50526093 45.49550679     6    920    0    0    0
H 1030.85799417 9.70833980 47.37250062     6    920    0    0    0
H 1034.19284037 9.34361478 48.63310316     6    920    0    0    0
H 1032.94610867 24.32155981 68.19831037     6     925    0    0    0 
C 1033.57637333 26.30744604 67.95079275     1     924    926    927    928
H 1032.07828690 27.62853258 68.20691402     6     925    0    0    0
H 1034.91388737 26.72052275 69.31870958     6     925    0    0    0
C 1034.50418223 26.58817800 65.10119440     2     925    929    930    931
H 1033.13954685 26.16514869 63.65593153     6     928    0    0    0
H 1035.21409286 28.55591469 64.81602421     6     928    0    0    0
C 1036.67000295 24.67061554 64.63333797     2     928    932   933   934
H 1037.85954807 24.76058017 66.30814692     6     931    0    0    0
H 1035.75069388 22.84466400 64.50095319     6     931    0    0    0
C 1038.34812088 25.00663961 62.35353038     2     931   935   936   937
H 1037.36844041 25.33269848 60.60329981     6    934    0    0    0
H 1039.52328161 26.60586608 62.65668988     6    934    0    0    0
C 1039.92790515 22.60744210 62.03153044     2    934   938   939   940
H 1040.90287108 22.19497415 63.90454195     6    937    0    0    0
H 1038.64541110 21.06326341 61.76051947     6    937    0    0    0
C 1041.97982729 22.66008040 60.04753483     2    937   941   942   943
H 1040.98657791 22.72435544 58.25427405     6    940    0    0    0
H 1043.19162414 24.33579990 60.18299659     6    940    0    0    0
C 1043.63616066 20.11819090 60.15325668     2    940   944   945   946
H 1042.44663190 18.53446050 60.67205763     6    943    0    0    0
H 1044.17654403 19.50472410 58.35060427     6    943    0    0    0
C 1045.88135736 20.09501384 61.91421443     2    943   947   948   949
H 1047.19156768 21.75842778 61.47179076     6    946    0    0    0
H 1045.12506459 20.44877205 63.92022979     6    946    0    0    0
C 1047.51534869 17.64365119 61.75396045     2    946   950   951   952
H 1046.65756055 16.07934823 62.68163106     6    949    0    0    0
H 1047.93311429 16.95310483 59.85480479     6    949    0    0    0
C 1050.11995341 18.13569402 63.13726183     2    949   953   954   955
H 1050.92790387 19.82468586 62.31374716     6    952    0    0    0
H 1050.07371392 18.36757685 65.19616069     6    952    0    0    0
C 1051.82990520 15.86594179 62.59652001     2    952   956   957   958
H 1050.79346056 14.03025217 63.08367723     6    955    0    0    0
H 1052.29507310 15.80175611 60.57755189     6    955    0    0    0
C 1054.29568237 16.11021566 64.13565800     1    955   959   960   961
H 1055.05460218 14.13793803 64.41236509     6    958    0    0    0
H 1053.92695832 16.76146411 65.97492912     6    958    0    0    0
H 1055.57725592 17.31618768 63.09153963     6    958    0    0    0
H 1025.70833846 29.88452515 35.85281421     6     963    0    0    0 
C 1023.72547676 29.40058238 35.93675344     1     962    964    965    966
H 1023.48208107 28.47888989 34.17187363     6     963    0    0    0
H 1023.67753565 28.00856134 37.52356422     6     963    0    0    0
C 1022.11897057 31.81231407 36.33675192     2     963    967    968    969
H 1023.03361268 33.26091165 37.40256281     6     966    0    0    0
H 1021.52350540 32.49156164 34.47802022     6     966    0    0    0
C 1019.66560345 30.75183751 37.58731327     2     966    970   971   972
H 1019.05085559 29.15468107 36.50953963     6     969    0    0    0
H 1019.87099928 30.22747350 39.59392983     6     969    0    0    0
C 1017.36833404 32.49627715 37.28596010     2     969   973   974   975
H 1017.72403589 34.51516683 37.45585099     6    972    0    0    0
H 1016.84728578 32.12279690 35.33950428     6    972    0    0    0
C 1015.12088970 31.85244323 39.13868857     2    972   976   977   978
H 1014.44144101 29.98802262 38.61214814     6    975    0    0    0
H 1015.87135374 31.65176080 40.97893207     6    975    0    0    0
C 1013.07400374 33.90406985 39.35773903     2    975   979   980   981
H 1013.96369017 35.65142790 39.83755867     6    978    0    0    0
H 1012.25811457 34.32970326 37.53124709     6    978    0    0    0
C 1010.70002930 33.32296111 41.00373232     2    978   982   983   984
H 1010.17888193 31.27744443 40.62616274     6    981    0    0    0
H 1011.12829912 33.09501223 42.96784086     6    981    0    0    0
C 1008.65303413 35.41303604 41.15306175     2    981   985   986   987
H 1009.54028710 37.13497665 41.97724312     6    984    0    0    0
H 1008.00306993 35.76558088 39.30429736     6    984    0    0    0
C 1006.34508960 34.65975002 42.77931825     2    984   988   989   990
H 1004.87045580 35.80385986 42.06206848     6    987    0    0    0
H 1005.78067995 32.65352845 42.44979131     6    987    0    0    0
C 1006.88538281 35.10652073 45.59291559     2    987   991   992   993
H 1008.74673843 34.21175262 45.97856506     6    990    0    0    0
H 1007.04443425 37.01939907 46.15574705     6    990    0    0    0
C 1004.65744265 34.03429735 47.09247536     2    990   994   995   996
H 1002.87632891 35.08583197 46.37174274     6    993    0    0    0
H 1004.47114318 31.97272907 46.82330615     6    993    0    0    0
C 1004.67377440 34.70614154 49.89632631     1    993   997   998   999
H 1005.50979570 33.13517832 50.96145821     6    996    0    0    0
H 1002.72263301 34.87739411 50.58620774     6    996    0    0    0
H 1005.64033602 36.41629349 50.21552232     6    996    0    0    0
H 1036.32657168 34.39033392 32.77517620     6     1001    0    0    0 
C 1035.19634213 34.50511654 31.01011190     1     1000    1002    1003    1004
H 1035.37954722 36.31132156 30.06397323     6     1001    0    0    0
H 1035.65418943 32.93072088 29.66441200     6     1001    0    0    0
C 1032.42838720 34.40418413 31.84334657     2     1001    1005    1006    1007
H 1032.13671263 32.69995467 32.90275785     6     1004    0    0    0
H 1032.13747285 36.06123477 33.07418371     6     1004    0    0    0
C 1030.68354725 34.38896746 29.63234979     2     1004    1008   1009   1010
H 1030.89972840 36.12188846 28.66425530     6     1007    0    0    0
H 1031.32903802 32.85815207 28.34848097     6     1007    0    0    0
C 1027.90177545 34.07468207 30.15387738     2     1007   1011   1012   1013
H 1027.39176541 32.43990900 31.39964515     6    1010    0    0    0
H 1027.20939219 35.80608293 31.07198638     6    1010    0    0    0
C 1026.26046849 33.70444754 27.80037185     2    1010   1014   1015   1016
H 1026.16878019 35.39986365 26.78394109     6    1013    0    0    0
H 1027.03988551 32.27655983 26.55262838     6    1013    0    0    0
C 1023.46193381 33.04130318 28.51852301     2    1013   1017   1018   1019
H 1023.26062265 31.25201562 29.59548652     6    1016    0    0    0
H 1022.89405515 34.54653593 29.76497752     6    1016    0    0    0
C 1021.73859815 32.93237529 26.01525144     2    1016   1020   1021   1022
H 1021.91056488 34.51380860 24.77771343     6    1019    0    0    0
H 1022.29990238 31.30310871 24.93300122     6    1019    0    0    0
C 1018.93638772 33.07337179 26.88225939     2    1019   1023   1024   1025
H 1018.70533893 34.57903331 28.18697050     6    1022    0    0    0
H 1017.65211675 33.33871084 25.29016273     6    1022    0    0    0
C 1018.30359965 30.58920715 28.24485614     2    1022   1026   1027   1028
H 1018.81870405 29.05350054 26.91493412     6    1025    0    0    0
H 1019.46410663 30.42556951 30.00955766     6    1025    0    0    0
C 1015.51859175 30.84976493 29.01053375     2    1025   1029   1030   1031
H 1015.28245677 32.30545535 30.44521568     6    1028    0    0    0
H 1014.09859373 31.04090605 27.38772416     6    1028    0    0    0
C 1014.69102315 28.54474509 30.70047956     2    1028   1032   1033   1034
H 1014.75980271 26.71241650 29.60535279     6    1031    0    0    0
H 1015.71731316 28.30696540 32.49718542     6    1031    0    0    0
C 1011.87913278 28.78741342 31.56488537     1    1031   1035   1036   1037
H 1011.62127391 30.57034601 32.73047971     6    1034    0    0    0
H 1011.11641844 27.29156270 32.61030641     6    1034    0    0    0
H 1010.71746983 29.20759564 29.96880191     6    1034    0    0    0
H 1026.78656592 46.09928176 52.72898599     6     1039    0    0    0 
C 1028.49423963 47.36485849 52.63616952     1     1038    1040    1041    1042
H 1029.48901694 47.72992084 50.80025527     6     1039    0    0    0
H 1027.91023596 49.29884126 53.27598332     6     1039    0    0    0
C 1030.58108020 46.37130536 54.43662179     2     1039    1043    1044    1045
H 1029.66955173 45.88936863 56.22468702     6     1042    0    0    0
H 1031.26233750 44.52697455 53.76671626     6     1042    0    0    0
C 1032.86270483 48.04757807 54.71487721     2     1042    1046   1047   1048
H 1033.77333227 48.38401247 52.77012518     6     1045    0    0    0
H 1032.32761622 49.88425957 55.35411494     6     1045    0    0    0
C 1034.87485194 46.90045071 56.43012959     2     1045   1049   1050   1051
H 1034.49428941 46.82025282 58.37363054     6    1048    0    0    0
H 1035.30991129 45.11258874 55.75931925     6    1048    0    0    0
C 1037.36167156 48.24635230 56.01016601     2    1048   1052   1053   1054
H 1037.95252738 48.07151493 54.03960639     6    1051    0    0    0
H 1037.12221970 50.35739930 56.28417761     6    1051    0    0    0
C 1039.49962070 47.04423427 57.54140268     2    1051   1055   1056   1057
H 1039.11111192 46.74694197 59.47494835     6    1054    0    0    0
H 1039.65719995 45.07416283 56.95079275     6    1054    0    0    0
C 1042.11541828 48.17322540 56.97092742     2    1054   1058   1059   1060
H 1042.59387557 47.82420935 54.98130438     6    1057    0    0    0
H 1041.96536729 50.18020355 57.38749069     6    1057    0    0    0
C 1044.17902048 47.31502681 58.70097189     2    1057   1061   1062   1063
H 1043.57310583 47.12646518 60.71427928     6    1060    0    0    0
H 1044.48667062 45.26069805 58.17431899     6    1060    0    0    0
C 1046.58627816 48.93055618 58.69640928     2    1060   1064   1065   1066
H 1047.12964011 49.23963749 56.70098753     6    1063    0    0    0
H 1046.09876448 50.83479747 59.29775261     6    1063    0    0    0
C 1048.66255025 47.57692385 60.21079415     2    1063   1067   1068   1069
H 1048.67146602 45.65452195 59.21153056     6    1066    0    0    0
H 1050.45704297 48.48366394 59.61774243     6    1066    0    0    0
C 1048.35206218 47.50562802 63.08371038     2    1066   1070   1071   1072
H 1048.59264025 49.34975881 63.85390833     6    1069    0    0    0
H 1046.55009710 46.95027271 63.85335633     6    1069    0    0    0
C 1050.29418061 45.83393719 64.50578218     1    1069   1073   1074   1075
H 1050.25489963 46.49941314 66.40587749     6    1072    0    0    0
[...]
 1804      H    1028.7370674600    38.5550771000    66.8498858000
 1805      C    1032.3906702500    37.9660728200    68.5982156300
 1806      H    1033.3369252900    39.4595269800    67.7292377600
 1807      H    1033.1716032800    37.7050186100    70.4839933300
 1808      C    1033.1160367400    35.6760296300    67.2441861400
 1809      H    1034.9667002100    35.1168278800    67.7470889600
 1810      H    1031.8168256000    34.1564167600    67.6369051900
 1811      C    1033.1715037500    36.1436657900    64.3442855600
 1812      H    1031.2697131200    36.6629276100    63.8086586100
 1813      H    1034.4842466900    37.5588286700    63.7128864100
 1814      C    1033.8987265100    33.6767917200    63.0040913900
 1815      H    1035.7079017100    32.8700952500    63.9428611000
 1816      H    1032.3467407700    32.2440841600    63.3242911600
 1817      C    1034.6226485000    33.9264328700    60.1460618000
 1818      H    1032.9004159800    34.5296301700    59.1804973800
 1819      H    1036.0579804200    35.3304938900    60.1417506100
 1820      C    1035.5485937500    31.3729358400    59.0992274900
 1821      H    1036.9168378200    30.6679611900    60.6166856700
 1822      H    1034.1756600300    29.9098898100    59.0154082600
 1823      C    1037.0390684000    31.7284250100    56.6544757300
 1824      H    1035.9055626100    32.1007021100    54.8513771400
 1825      H    1038.2816737300    33.4436638200    56.9121467800
 1826      C    1038.4125501000    29.1390568400    56.0851284200
 1827      H    1039.7079640300    28.5852394900    57.6430843300
 1828      H    1037.1000217300    27.5762623600    55.9800160800
 1829      C    1039.8645182000    29.4556366000    53.6443484600
 1830      H    1038.6208617000    30.2759455300    52.1507812800
 1831      H    1041.3710293100    30.8753009800    53.5071549500
 1832      C    1040.9408384000    26.7263242000    52.8187591700
 1833      H    1042.0907427000    26.7944378800    51.1354146100
 1834      H    1039.2676773200    25.7084837600    52.3532324200
 1835      H    1041.8478220500    25.6138668600    54.4712594700
 1836      H    1029.6086707200    21.8182996000    58.0880376700
 1837      C    1031.2531693500    20.5977027800    57.6352801500
 1838      H    1030.6926709900    18.7032839000    56.8807838300
 1839      H    1032.4550732800    21.5826292300    56.2683719800
 1840      C    1032.5932690100    20.2953292900    60.2236819800
 1841      H    1034.3025054700    19.3381120400    59.7082543600
 1842      H    1033.1184413500    22.2298122000    60.9538830400
 1843      C    1031.1380680300    18.6980257300    62.0097246300
 1844      H    1029.1418433300    18.9688848200    61.6216603600
 1845      H    1031.5040690600    16.6246560000    61.7571187200
 1846      C    1031.7346845900    19.2835744400    64.8709874300
 1847      H    1033.6293593300    18.7780004300    65.2562671100
 1848      H    1031.7305933500    21.3317586300    65.2063225100
 1849      C    1030.1159350600    17.9950941400    66.8558845100
 1850      H    1028.2460265400    18.5709826000    66.3864534400
 1851      H    1030.1630498400    16.0172454400    66.3487973000
 1852      C    1030.9542507300    18.7047938100    69.6032945300
 1853      H    1032.9567814100    18.5570763100    69.9584782200
 1854      H    1030.4168287600    20.6752498700    69.8332375500
 1855      C    1029.5764221700    17.0967266900    71.6319257900
 1856      H    1027.5995852300    17.8723708700    71.9148440000
 1857      H    1029.4650730900    15.1670394200    71.0359995400
 1858      C    1030.9355054000    17.0294602200    74.2057911900
 1859      H    1032.8192649300    16.3656323900    73.7889555600
 1860      H    1031.0065880900    18.9791213900    74.9641864300
 1861      C    1029.7774998000    14.9129523700    75.8085216000
 1862      H    1027.7526227800    15.3025463400    76.0317822300
 1863      H    1030.1606856700    13.2270118600    74.9708211100
 1864      C    1030.6500470800    14.7634684100    78.5688024300
 1865      H    1032.7483054100    14.6119471600    78.5125319900
 1866      H    1029.9739075100    16.4501306600    79.6032471300
 1867      C    1029.3438539200    12.4247972800    79.6363312000
 1868      H    1027.1918058200    12.6810150500    79.8454550200
 1869      H    1029.8931453300    10.6816094100    78.6426548100
 1870      C    1030.0889855200    11.8682077300    82.2808404200
 1871      H    1029.1116559900    10.2261576100    83.0072063000
 1872      H    1029.7081715600    13.4270871300    83.5838270500
 1873      H    1032.0237598800    11.5482787300    82.4489136000
 1874      H    1007.5696732700    28.1877610700    67.0308840800
 1875      C    1007.5745008500    28.0188058100    65.0327584900
 1876      H    1008.7138412100    26.1972864900    64.7914983700
 1877      H    1005.6704185700    27.7669208700    64.4229302600
 1878      C    1008.9956694600    30.1706762300    63.7146075400
 1879      H    1008.9054955600    31.9838231800    64.4798823200
 1880      H    1010.9866435000    29.6613026300    63.8880800600
 1881      C    1008.4555991300    30.3956464000    60.9460140900
 1882      H    1009.2733073500    28.7873426200    59.8891794600
 1883      H    1006.3159969000    30.3199545700    60.7857800600
 1884      C    1009.2677444800    32.9079121300    59.7374733400
 1885      H    1008.1449855600    34.5730313700    60.2369838500
 1886      H    1011.1309965000    33.3092961800    60.5829766400
 1887      C    1009.2803306500    33.1772655400    56.8087429500
 1888      H    1009.9750159900    31.3183702100    55.9872758900
 1889      H    1007.4038564100    33.1881403600    56.0004462600
 1890      C    1010.9426192400    35.2009470000    55.6655866400
 1891      H    1010.4531835100    37.1409981300    56.3299339700
 1892      H    1012.9179828900    34.8545117800    56.2265653500
 1893      C    1010.8112701000    35.3081408800    52.7168170900
 1894      H    1010.9133707200    33.3285624000    52.0601419200
 1895      H    1009.1858594400    36.2008065300    51.8091702000
 1896      C    1013.0212926600    36.7348948000    51.4981293100
 1897      H    1012.9357109100    38.5357660800    52.3292293500
 1898      H    1014.9351676100    36.1933264900    52.0638698500
 1899      C    1012.7268552600    37.0117467700    48.5937444000
 1900      H    1012.9437520300    35.1876128900    47.8150909400
 1901      H    1010.9018722300    37.7486140600    48.1567386800
 1902      C    1014.6186842700    38.8627333300    47.5235698300
 1903      H    1014.2774427300    40.7539783900    48.4207939700
 1904      H    1016.4630962300    38.0970529300    47.9444452700
 1905      C    1014.5217234100    39.1338931400    44.6249600500
 1906      H    1014.3278127000    37.3195853000    43.6706330200
 1907      H    1012.7318626600    40.1864251400    44.3408494000
 1908      C    1016.5998834600    40.5863069100    43.4037945900
 1909      H    1015.9497452700    40.7596245100    41.4653591100
 1910      H    1018.4345100500    39.7496564000    43.4311827000
 1911      H    1016.7749131000    42.5683697300    44.0748622900
 ----------------------------------------------------------------
 Nuclear Repulsion Energy =           0.00000000 hartrees
 There are     2498 alpha and     2498 beta electrons

 Total QAlloc Memory Limit   2000 MB
 Mega-Array Size       204 MB
 MEM_STATIC part       192 MB
   **** Step 1: MM calculation on the entire system **** 
 OPLSAA force field loaded.
Reading user-defined FF parameters...
 Reading user defined atom types.
 Found 3 user defined AtomTypes
finished.
Determining angles, torsions, etc. from user defined input
Determining VDW/Coulomb pairs... (useList = 0)

 Time req'd to get MM system information: 0.2 s (CPU) 0.3 s (wall)

 ------ MM Energies ------
   Ebond:           534.683274423648
   Eangle:          849.811228956456
   EUreyBrad:         0.000000000000
   Eimptors:          0.000000000000
   Etorsion:        230.259379229651
   Evdw:        1241352.691389144864
   Ecoulomb:        186.404598455547
   Etot:        1243153.849870210281 Kcal/mol (   1981.091772031932 hartree)
 -------------------------
 Time req'd to calc MM energy: 0.1 s (CPU) 0.1 s (wall)
 OPLSAA force field loaded.
Reading user-defined FF parameters...
 Reading user defined atom types.
 Found 3 user defined AtomTypes
finished.
 Time req'd to get MM system information: 0.0 s (CPU) 0.0 s (wall)
 Time req'd to calc MM gradient: 0.2 s (CPU) 0.2 s (wall)
   **** Step 2: MM calculation on the model system **** 
 Reading user defined atom types.
 Found 3 user defined AtomTypes
 ----------------------------------------------------------------
             Standard Nuclear Orientation (Bohr)
    I     Atom           X                Y                Z
 ----------------------------------------------------------------
    1      Fe   1020.9172380700    26.5617324400    52.1824113100
    2      C    1019.4753288900    27.4499911600    49.2573730300
    3      C    1022.5449550400    26.1885621300    55.1117935200
    4      C    1019.9880808200    23.3592664400    51.8304752700
    5      C    1023.9203541000    26.9320368000    50.4343444500
    6      C    1018.8402998700    28.8608463600    53.6366119200
    7      O    1018.6529353200    28.0941456700    47.2549854000
    8      O    1023.4021254900    26.0312863500    57.2026282000
    9      O    1019.4117644800    21.2380350300    51.7959263100
   10      O    1025.8188821800    26.8185190900    49.4631023900
   11      O    1017.3961845800    30.1509317300    54.4705226700
 ----------------------------------------------------------------
 Nuclear Repulsion Energy =         803.23710699 hartrees
 There are       48 alpha and       48 beta electrons
 OPLSAA force field loaded.
Reading user-defined FF parameters...
 Reading user defined atom types.
 Found 3 user defined AtomTypes
finished.
Determining VDW/Coulomb pairs... (useList = 0)

 No MM bonds in system. Return all possible pairs.
 Time req'd to get MM system information: 0.0 s (CPU) 0.0 s (wall)

 ------ MM Energies ------
   Ebond:             0.000000000000
   Eangle:            0.000000000000
   EUreyBrad:         0.000000000000
   Eimptors:          0.000000000000
   Etorsion:          0.000000000000
   Evdw:        1241823.415545869153
   Ecoulomb:         -6.523153705916
   Etot:        1241816.892392163165 Kcal/mol (   1978.961194662452 hartree)
 -------------------------
 Eold: 1981.0917720 mm_energy: 1978.9611947 Enew:    2.1305774
 Time req'd to calc MM energy: 0.0 s (CPU) 0.0 s (wall)
 OPLSAA force field loaded.
Reading user-defined FF parameters...
 Reading user defined atom types.
 Found 3 user defined AtomTypes
finished.
Determining VDW/Coulomb pairs... (useList = 0)

 No MM bonds in system. Return all possible pairs.
 Time req'd to get MM system information: 0.0 s (CPU) 0.0 s (wall)
 Number of fixed atoms: 0
 Time req'd to calc MM gradient: 0.0 s (CPU) 0.0 s (wall)
   **** Step 3: QM calculation on the model system **** 
 Requested basis set is def2-mSVP
 There are 80 shells and 174 basis functions

                       Distance Matrix (Bohrs)
             Fe(  1)   C (  2)   C (  3)   C (  4)   C (  5)   C (  6)
   C (  2)  3.379934
   C (  3)  3.371943  6.729639
   C (  4)  3.353055  4.859815  5.030862
   C (  5)  3.494506  4.627287  4.931836  5.493327
   C (  6)  3.422615  4.644514  4.800181  5.903127  6.307279
   O (  7)  5.635147  2.258500  8.972653  6.718393  6.261351  6.430248
   O (  8)  5.626599  8.975496  2.265186  6.903290  6.847596  6.444621
   O (  9)  5.545951  6.710938  6.731982  2.198399  7.389380  7.862693
   O ( 10)  5.611301  6.378225  6.559204  7.181165  2.135558  8.383907
   O ( 11)  5.524095  6.228551  6.528510  7.733983  8.319664  2.108363
             O (  7)   O (  8)   O (  9)   O ( 10)
   O (  8) 11.214535
   O (  9)  8.258463  8.254130
   O ( 10)  7.606168  8.146208  8.811074
   O ( 11)  7.607481  7.778638  9.521332 10.349931

 A cutoff of  1.0D-11 yielded   2498 shell pairs
 There are     12810 function pairs (     14658 Cartesian)
 Smallest overlap matrix eigenvalue = 2.40E-03
 Guess MOs from SCF MO coefficient file
 Reading MOs from coefficient file
 Reading MOs from coefficient file
 A restricted Kohn-Sham SCF calculation will be
 performed using Pulay DIIS extrapolation
 Exchange:  B88      Correlation:  P86
 Using SG-1 standard quadrature grid
 SCF converges when DIIS error is below 1.0E-08
 Using Q-Chem read-in guess as SCF_GUESS READ specified.

 using 2 threads for integral computing
 -------------------------------------------------------
 OpenMP Integral computing Module                
 Release: version 1.0, May 2013, Q-Chem Inc. Pittsburgh 
 -------------------------------------------------------
 ---------------------------------------
  Cycle       Energy         DIIS Error
 ---------------------------------------
    1   -1830.5122062021      8.33E-09
    2   -1830.5122062019      8.61E-08
    3   -1830.5122062021      1.12E-08
    4   -1830.5122062020      1.02E-09 Convergence criterion met
 ---------------------------------------
 SCF time:  CPU 5.17 s  wall 2.91 s
 E(QM + QM/MM):    -1830.5122062020 E(MM):    2.1305774 E(Tot): -1828.381628832550 
 SCF   energy in the final basis set = -1828.38162883
 Total energy in the final basis set = -1828.38162883

 --------------------------------------------------------------

                    Orbital Energies (a.u.)
 --------------------------------------------------------------

 Alpha MOs
 -- Occupied --
******** -29.6338 -25.5938 -25.5813 -25.5764 -18.8887 -18.8836 -18.8824
-18.8756 -18.8682 -10.0600 -10.0495 -10.0491 -10.0404 -10.0348  -3.3192
 -2.1559  -2.1316  -2.1207  -1.0824  -1.0794  -1.0419  -1.0402  -1.0299
 -0.5760  -0.5242  -0.5234  -0.5161  -0.5113  -0.4561  -0.4522  -0.4454
 -0.4393  -0.4368  -0.4313  -0.4289  -0.4229  -0.4170  -0.4086  -0.4057
 -0.4017  -0.3946  -0.3887  -0.3812  -0.2798  -0.2702  -0.2339  -0.2194
 -- Virtual --
 -0.0977  -0.0894  -0.0835  -0.0771  -0.0735  -0.0666  -0.0618  -0.0512
 -0.0445  -0.0336  -0.0207   0.0122   0.1879   0.2140   0.2218   0.2544
  0.2927   0.3303   0.3700   0.4043   0.4099   0.4137   0.4250   0.4327
  0.4477   0.4744   0.4982   0.5081   0.5296   0.5554   0.5624   0.5997
  0.6227   0.6322   0.6556   0.6684   0.7433   0.7443   0.7480   0.7742
  0.7795   0.8303   0.8424   0.8539   0.8715   0.9097   0.9444   0.9584
  0.9807   0.9846   0.9881   0.9995   1.0197   1.0236   1.0362   1.0722
  1.2085   1.2475   1.2824   1.3218   1.3902   1.3990   1.4076   1.4168
  1.4192   1.4227   1.4263   1.4347   1.4626   1.4705   1.4774   1.4877
  1.5199   1.5421   1.5476   1.5694   1.6140   1.6512   1.6649   1.6922
  1.7023   1.8251   1.8254   1.8377   1.8442   1.8490   1.8513   1.8552
  1.8656   1.8728   1.8787   1.8863   1.8918   1.9020   1.9045   1.9643
  2.3359   2.4235   2.4274   2.4492   2.4635   2.4756   2.4835   2.4870
  2.5251   2.5454   2.6327   2.6512   2.6814   2.6891   2.6999   2.8075
  2.8301   2.8998   2.9322   2.9960  13.2654  13.2973  13.3332  13.3408
 13.4519  24.9227  24.9294  24.9609  24.9645  25.0336
 --------------------------------------------------------------

          Ground-State Mulliken Net Atomic Charges

     Atom                 Charge (a.u.)
  ----------------------------------------
      1 Fe                   -0.517726
      2 C                     0.200486
      3 C                     0.203090
      4 C                     0.245193
      5 C                     0.225342
      6 C                     0.193562
      7 O                    -0.138491
      8 O                    -0.148223
      9 O                    -0.122021
     10 O                    -0.073202
     11 O                    -0.068010
  ----------------------------------------
  Sum of atomic charges =     0.000000

 -----------------------------------------------------------------
                    Cartesian Multipole Moments
 -----------------------------------------------------------------
    Charge (ESU x 10^10)
                -0.0000
    Dipole Moment (Debye)
         X       0.2342617012      Y       0.5583256082      Z      -0.3785443279
       Tot       0.7140741121
    Quadrupole Moments (Debye-Ang)
        XX     184.6179     XY     304.9183     YY     -53.8145
        XZ    -198.9877     YZ      10.5479     ZZ     -91.3603
    Octopole Moments (Debye-Ang^2)
       XXX   94092.7211    XXY  165542.4841    XYY  -29021.6257
       YYY   -2586.2327    XXZ -106407.4410    XYZ    5776.5816
       YYZ   -1544.5175    XZZ  -49233.2530    YZZ    -834.6545
       ZZZ   -6692.9854
    Hexadecapole Moments (Debye-Ang^3)
      XXXX ************   XXXY ************   XXYY ************
      XYYY ************   YYYY  -76031.9201   XXXZ ************
      XXYZ 3136452.7666   XYYZ -833169.1817   YYYZ  -72051.0700
      XXZZ ************   XYZZ -449119.1614   YYZZ  -58445.8320
      XZZZ ************   YZZZ  -81367.8877   ZZZZ -354009.6268
 -----------------------------------------------------------------
 Calculating MO derivatives via CPSCF
 Full subspace dimension requested for CIS/TDDFT
 MAX_CIS_SUBSPACE fits in available memory
    1     0    36    0.0412415  
    2     0    36    0.0066918  
    3     0    36    0.0006419  
    4     0    36    0.0000503  
    5    33     3    0.0000016  
    6    36     0    0.0000000  Converged
 Time for AOints: 6.5 s (CPU) 3.3 s (wall)
 ------------------------------------------------------------------------------
                     AOints        : Timing summary (seconds)
 ------------------------------------------------------------------------------
     job step          cpu (% of tot)      sys (% of tot)     wall (% of tot)
 ------------------------------------------------------------------------------
  AOints            0.6535E+01 ( 3.6)   0.1200E-04 (11.8)   0.3334E+01 ( 3.7)
 ------------------------------------------------------------------------------
   Grand Totals     0.1801E+03          0.1020E-03          0.9072E+02
 ------------------------------------------------------------------------------
 Polarizability Matrix (a.u.)
            1           2           3
    1 -88.0491000   7.2676915  -4.0492275
    2   7.2676915 -82.4389436   1.0362487
    3  -4.0492274   1.0362487-101.0652855
 Derivative of Dipole Moment Matrix (a.u.)
            1           2           3
    1  -1.8961499   0.0690446  -0.1350238
    2   0.0595048  -1.8729998   0.0351606
    3   0.0136575  -0.0085090  -1.9252693
    4   0.7167001  -0.1796295   0.6196170
    5  -0.1902458   0.5711439  -0.4488009
    6   0.6938436  -0.4568338   1.7263999
    7   0.7726682  -0.0693614   0.7122977
    8  -0.0499333   0.4609369  -0.1595848
    9   0.7328992  -0.1709952   1.8966273
   10   0.5649986   0.4719493   0.0437621
   11   0.5416405   2.2324789   0.0677955
   12   0.0346835   0.0965413   0.4432110
   13   1.9167802   0.1636855  -0.7937024
   14  -0.0698101   0.4118683   0.0633255
   15  -0.8491468  -0.0669686   0.7953847
   16   1.2752157  -0.8899400  -0.6315438
   17  -0.7936436   1.2485617   0.5906646
   18  -0.5350777   0.5294068   0.7589898
   19  -0.3763435   0.1385828  -0.4535848
   20   0.1683191  -0.2830867   0.3630122
   21  -0.5372907   0.3565540  -1.2504586
   22  -0.4340182   0.0488243  -0.5164515
   23   0.0357985  -0.1847774   0.0878489
   24  -0.6159768   0.1291914  -1.3737663
   25  -0.2954398  -0.3772316  -0.0252203
   26  -0.4301140  -1.6174662  -0.0937506
   27  -0.0084366  -0.0418587  -0.1808273
   28  -1.3805266  -0.1210794   0.6797567
   29   0.0963848  -0.1447117  -0.0623395
   30   0.6578367   0.0545622  -0.4819253
   31  -0.8638849   0.7451552   0.5000930
   32   0.6320990  -0.8219480  -0.4433317
   33   0.4130080  -0.4210905  -0.4083660
 -----------------------------------------
 Net:   0.00000  -0.00000  -0.00000
 -----------------------------------------

 Calculating analytic Hessian of the SCF energy
