                  Welcome to Q-Chem
     A Quantum Leap Into The Future Of Chemistry


 Q-Chem 5.4 (devel), Q-Chem, Inc., Pleasanton, CA (2021)

 E. Epifanovsky,  A. T. B. Gilbert,  Xintian Feng,  Joonho Lee,  Yuezhi Mao,  
 N. Mardirossian,  P. Pokhilko,  A. White,  M. Wormit,  M. P. Coons,  
 A. L. Dempwolff,  Zhengting Gan,  D. Hait,  P. R. Horn,  L. D. Jacobson,  
 I. Kaliman,  J. Kussmann,  A. W. Lange,  Ka Un Lao,  D. S. Levine,  Jie Liu,  
 S. C. McKenzie,  A. F. Morrison,  K. Nanda,  F. Plasser,  D. R. Rehn,  
 M. L. Vidal,  Zhi-Qiang You,  Ying Zhu,  B. Alam,  B. Albrecht,  
 A. Aldossary,  E. Alguire,  J. H. Andersen,  D. Barton,  K. Begam,  A. Behn,  
 Y. A. Bernard,  E. J. Berquist,  H. Burton,  A. Carreras,  K. Carter-Fenk,  
 R. Chakraborty,  A. D. Chien,  K. D. Closser,  V. Cofer-Shabica,  
 S. Dasgupta,  Jia Deng,  M. de Wergifosse,  M. Diedenhofen,  Hainam Do,  
 S. Ehlert,  Po-Tung Fang,  S. Fatehi,  Qingguo Feng,  T. Friedhoff,  
 J. Gayvert,  Qinghui Ge,  G. Gidofalvi,  M. Goldey,  J. Gomes,  
 C. Gonzalez-Espinoza,  S. Gulania,  A. Gunina,  M. W. D. Hanson-Heine,  
 P. H. P. Harbach,  A. W. Hauser,  M. F. Herbst,  M. Hernandez Vera,  
 M. Hodecker,  Z. C. Holden,  S. Houck,  Xunkun Huang,  Kerwin Hui,  
 B. C. Huynh,  M. Ivanov,  Hyunjun Ji,  Hanjie Jiang,  B. Kaduk,  S. Kaehler,  
 K. Khistyaev,  Jaehoon Kim,  P. Klunzinger,  Z. Koczor-Benda,  
 Joong Hoon Koh,  D. Kosenkov,  L. Koulias,  T. Kowalczyk,  C. M. Krauter,  
 K. Kue,  A. Kunitsa,  T. Kus,  A. Landau,  K. V. Lawler,  D. Lefrancois,  
 S. Lehtola,  Rain Li,  Yi-Pei Li,  Jiashu Liang,  M. Liebenthal,  
 Hung-Hsuan Lin,  You-Sheng Lin,  Fenglai Liu,  Kuan-Yu Liu,  
 M. Loipersberger,  A. Luenser,  A. Manjanath,  P. Manohar,  E. Mansoor,  
 S. F. Manzer,  Shan-Ping Mao,  A. V. Marenich,  T. Markovich,  S. Mason,  
 S. A. Maurer,  P. F. McLaughlin,  M. F. S. J. Menger,  J.-M. Mewes,  
 S. A. Mewes,  P. Morgante,  J. W. Mullinax,  K. J. Oosterbaan,  G. Paran,  
 Alexander C. Paul,  Suranjan K. Paul,  F. Pavosevic,  Zheng Pei,  S. Prager,  
 E. I. Proynov,  E. Ramos,  B. Rana,  A. E. Rask,  A. Rettig,  R. M. Richard,  
 F. Rob,  E. Rossomme,  T. Scheele,  M. Scheurer,  M. Schneider,  
 N. Sergueev,  S. M. Sharada,  W. Skomorowski,  D. W. Small,  C. J. Stein,  
 Yu-Chuan Su,  E. J. Sundstrom,  Zhen Tao,  J. Thirman,  T. Tsuchimochi,  
 N. M. Tubman,  S. P. Veccham,  O. Vydrov,  J. Wenzel,  J. Witte,  A. Yamada,  
 Kun Yao,  S. Yeganeh,  S. R. Yost,  A. Zech,  Igor Ying Zhang,  Xing Zhang,  
 Yu Zhang,  D. Zuev,  A. Aspuru-Guzik,  A. T. Bell,  N. A. Besley,  
 K. B. Bravaya,  B. R. Brooks,  D. Casanova,  Jeng-Da Chai,  S. Coriani,  
 C. J. Cramer,  A. E. DePrince, III,  R. A. DiStasio Jr.,  A. Dreuw,  
 B. D. Dunietz,  T. R. Furlani,  W. A. Goddard III,  S. Grimme,  
 S. Hammes-Schiffer,  T. Head-Gordon,  W. J. Hehre,  Chao-Ping Hsu,  
 T.-C. Jagau,  Yousung Jung,  A. Klamt,  Jing Kong,  D. S. Lambrecht,  
 WanZhen Liang,  N. J. Mayhall,  C. W. McCurdy,  J. B. Neaton,  
 C. Ochsenfeld,  J. A. Parkhill,  R. Peverati,  V. A. Rassolov,  Yihan Shao,  
 L. V. Slipchenko,  T. Stauch,  R. P. Steele,  J. E. Subotnik,  
 A. J. W. Thom,  A. Tkatchenko,  D. G. Truhlar,  T. Van Voorhis,  
 T. A. Wesolowski,  K. B. Whaley,  H. L. Woodcock III,  P. M. Zimmerman,  
 S. Faraji,  P. M. W. Gill,  M. Head-Gordon,  J. M. Herbert,  A. I. Krylov

 Additional authors for Version 5.4.1: 
 S. Kotaru,  Shaozhi Li,  Xiangyuan Li,  F. Matz,  A. Molle,  Haisheng Ren,  
 Yingli Su,  Hung-Yi Tsai,  C. Utku,  Fang Wang

 Contributors to earlier versions of Q-Chem not listed above: 
 R. D. Adamson,  B. Austin,  R. Baer,  J. Baker,  G. J. O. Beran,  
 K. Brandhorst,  S. T. Brown,  E. F. C. Byrd,  A. K. Chakraborty,  
 G. K. L. Chan,  Chun-Min Chang,  Yunqing Chen,  C.-L. Cheng,  
 Siu Hung Chien,  D. M. Chipman,  D. L. Crittenden,  H. Dachsel,  
 R. J. Doerksen,  A. D. Dutoi,  R. G. Edgar,  J. Fosso-Tande,  
 L. Fusti-Molnar,  D. Ghosh,  A. Ghysels,  A. Golubeva-Zadorozhnaya,  
 J. Gonthier,  M. S. Gordon,  S. R. Gwaltney,  G. Hawkins,  J. E. Herr,  
 A. Heyden,  S. Hirata,  E. G. Hohenstein,  G. Kedziora,  F. J. Keil,  
 C. Kelley,  Jihan Kim,  R. A. King,  R. Z. Khaliullin,  P. P. Korambath,  
 W. Kurlancheek,  A. Laurent,  A. M. Lee,  M. S. Lee,  S. V. Levchenko,  
 Ching Yeh Lin,  D. Liotard,  E. Livshits,  R. C. Lochan,  I. Lotan,  
 L. A. Martinez-Martinez,  P. E. Maslen,  N. Nair,  D. P. O'Neill,  
 D. Neuhauser,  E. Neuscamman,  C. M. Oana,  R. Olivares-Amaya,  R. Olson,  
 T. M. Perrine,  B. Peters,  P. A. Pieniazek,  A. Prociuk,  Y. M. Rhee,  
 J. Ritchie,  M. A. Rohrdanz,  E. Rosta,  N. J. Russ,  H. F. Schaefer III,  
 M. W. Schmidt,  N. E. Schultz,  S. Sharma,  N. Shenvi,  C. D. Sherrill,  
 A. C. Simmonett,  A. Sodt,  T. Stein,  D. Stuck,  K. S. Thanthiriwatte,  
 V. Vanovschi,  L. Vogt,  Tao Wang,  A. Warshel,  M. A. Watson,  
 C. F. Williams,  Q. Wu,  X. Xu,  Jun Yang,  W. Zhang,  Yan Zhao

 Please cite Q-Chem as follows:
 Y. Shao et al., Mol. Phys. 113, 184-215 (2015)
 DOI: 10.1080/00268976.2014.952696

 Q-Chem 5.4.1 for Intel X86 EM64T Linux

 Parts of Q-Chem use Armadillo 9.900.5 (Nocturnal Misbehaviour).
 http://arma.sourceforge.net/

 Q-Chem begins on Fri Jul  1 20:00:03 2022  

 Host: p09r14n09.grace.hpc.yale.internal
0

     Scratch files written to /home/tl686/scratch60/qchem_dev/scratch/qchem8625//
 Processing $rem in /home/tl686/qchem_dev/qchem/config/preferences:
 Processing $rem in /home/tl686/.qchemrc:
Applying user defined connections for MM calculations

 Checking the input file for inconsistencies... 	...done.

--------------------------------------------------------------
User input:
--------------------------------------------------------------
$molecule
0   1
 Fe -57.64345098 -28.72084414 8.14219582    -1  0   0   0   0
C -57.90503749 -32.16620876 8.19689204    -2  0   0   0   0 
C -58.22481084 -26.91827068 10.90644302    -2  0   0   0   0
C -56.70838766 -27.39986312 5.15382923    -2  0   0   0   0
C -61.00550205 -28.43710725 7.44060077    -2  0   0   0   0
C -54.28046993 -28.68290841 8.95123554    -2  0   0   0   0
O -57.75069468 -34.36897520 8.12641598    -3  0   0   0   0
O -58.53306347 -25.74848400 12.69481902    -3  0   0   0   0 
O -55.88556235 -26.79122540 3.24898329    -3  0   0   0   0
O -63.19339118 -28.21813440 7.12666544    -3  0   0   0   0 
O -52.23862509 -28.44428930 9.68871372    -3  0   0   0   0
H -54.55929130 -40.42563814 -9.57720577      6     13    0    0    0 
C -54.61002830 -40.94435709 -7.59665991     1     12    14    15    16
H -52.81984220 -41.75095778 -6.99409542     6     13    0    0    0
H -54.91608608 -39.16578230 -6.48651052     6     13    0    0    0
C -56.62142912 -43.02064893 -7.31028063     2     13    17    18    19
H -56.39937225 -44.56883937 -8.65642180     6     16    0    0    0
H -56.32809470 -43.96649547 -5.50619260     6     16    0    0    0
C -59.21516772 -41.75391399 -7.66089265     2     16    20   21   22
H -59.19023237 -40.34243225 -6.10053157     6     19    0    0    0
H -59.53767032 -40.66882909 -9.42156604     6     19    0    0    0
C -61.52946183 -43.39646487 -6.92988297     2     19   23   24   25
H -61.79572740 -44.88228346 -8.44590275     6    22    0    0    0
H -60.96089212 -44.55522982 -5.25218661     6    22    0    0    0
C -63.95285446 -41.94860910 -6.44001820     2    22   26   27   28
H -63.51335768 -40.35814113 -5.17096335     6    25    0    0    0
H -64.58462329 -41.24861454 -8.30636131     6    25    0    0    0
C -66.01821871 -43.55820510 -5.32274749     2    25   29   30   31
H -66.25216913 -45.13213624 -6.45950878     6    28    0    0    0
H -65.39375876 -44.02254118 -3.45899157     6    28    0    0    0
C -68.47836244 -42.11429640 -5.02826721     2    28   32   33   34
H -68.17001394 -40.98555618 -3.38051612     6    31    0    0    0
H -68.93724709 -40.82962329 -6.55095736     6    31    0    0    0
C -70.71363796 -43.75046093 -4.13160032     2    31   35   36   37
H -71.00803224 -45.61233652 -5.08953850     6    34    0    0    0
H -70.44632907 -44.08311662 -2.10747050     6    34    0    0    0
C -73.15714524 -42.35745960 -4.45762240     2    34   38   39   40
H -73.23276207 -40.53822673 -3.44782734     6    37    0    0    0
H -73.24587105 -41.90917795 -6.46088995     6    37    0    0    0
C -75.30510411 -44.05980889 -3.85655538     2    37   41   42   43
H -75.50910031 -45.46950238 -5.24294869     6    40    0    0    0
H -74.99432412 -44.99377471 -2.02447278     6    40    0    0    0
C -77.78329163 -42.49203554 -3.60852373     2    40   44   45   46
H -77.51281221 -40.79993344 -2.57412904     6    43    0    0    0
H -78.31391382 -42.00647677 -5.44626036     6    43    0    0    0
C -79.96460166 -43.85726173 -2.27100854     1    43   47   48   49
H -81.15536583 -45.03749362 -3.38715076     6    46    0    0    0
H -81.25041112 -42.47121305 -1.28705351     6    46    0    0    0
H -79.22207415 -44.88936464 -0.63953706     6    46    0    0    0
H -67.07107685 -34.83988926 9.22318625     6     51    0    0    0 
C -65.71519438 -33.49664462 8.39222238     1     50    52    53    54
H -66.74410245 -31.61882453 8.10757296     6     51    0    0    0
H -64.24021809 -33.18844571 9.67345505     6     51    0    0    0
C -64.47807309 -34.48822973 5.92631915     2     51    55    56    57
H -62.61362686 -33.69615860 5.78469614     6     54    0    0    0
H -64.32157345 -36.47347260 6.24721854     6     54    0    0    0
C -65.81693843 -34.14817341 3.38499872     2     54    58   59   60
H -65.96904319 -32.16490756 2.87991387     6     57    0    0    0
H -64.68682380 -35.07992764 1.91698112     6     57    0    0    0
C -68.39605165 -35.41575024 3.44341278     2     57   61   62   63
H -67.91194410 -37.30940361 4.01632790     6    60    0    0    0
H -69.51844741 -34.35073402 4.62749783     6    60    0    0    0
C -69.81064747 -35.47364303 0.82161457     2    60   64   65   66
H -70.18259986 -33.54979323 0.28450860     6    63    0    0    0
H -68.42611936 -36.39473841 -0.33115567     6    63    0    0    0
C -72.36923297 -36.96989058 0.73560207     2    63   67   68   69
H -72.82876400 -37.29251341 -1.21515702     6    66    0    0    0
H -72.18430382 -38.72437206 1.87177180     6    66    0    0    0
C -74.51556118 -35.50334353 2.04426410     2    66   70   71   72
H -73.80817926 -34.42524725 3.72732010     6    69    0    0    0
H -75.10377731 -33.91709316 0.81590229     6    69    0    0    0
C -76.80299716 -37.21615722 2.79728475     2    69   73   74   75
H -78.47009062 -36.02494268 3.25493642     6    72    0    0    0
H -77.28317283 -38.31649237 1.23222555     6    72    0    0    0
C -76.15302223 -38.72965236 5.23203233     2    72   76   77   78
H -74.69133857 -39.97565366 4.86683846     6    75    0    0    0
H -75.58381662 -37.41803766 6.67050356     6    75    0    0    0
C -78.41152756 -40.41878303 6.09265172     2    75   79   80   81
H -80.38329040 -39.54159136 6.23282278     6    78    0    0    0
H -78.56481914 -42.00408616 4.89248070     6    78    0    0    0
C -77.79543991 -41.39591357 8.61652058     2    78   82   83   84
H -76.20846668 -42.70723200 8.43718670     6    81    0    0    0
H -76.98257308 -39.86887902 9.70477112     6    81    0    0    0
C -79.59129365 -43.27713324 9.82833691     1    81   85   86   87
H -78.50574713 -44.28213555 11.18558883     6    84    0    0    0
H -79.90699745 -44.69450257 8.25282551     6    84    0    0    0
H -81.26521202 -42.60151903 10.68383970     6    84    0    0    0
H -58.40193575 -25.61474978 -29.15466442     6     89    0    0    0 
C -60.24949398 -25.86295722 -28.23957371     1     88    90    91    92
H -60.08485985 -25.24596051 -26.26002655     6     89    0    0    0
H -61.55852268 -24.45883450 -29.05477616     6     89    0    0    0
C -61.18745810 -28.53519233 -28.77430421     2     89    93    94    95
H -61.36381476 -28.92450323 -30.78761570     6     92    0    0    0
H -59.70441579 -29.82670551 -27.97986425     6     92    0    0    0
C -63.61733979 -28.94752088 -27.17929023     2     92    96   97   98
H -63.23482753 -28.55839005 -25.20354754     6     95    0    0    0
H -65.11459901 -27.65163936 -27.99621922     6     95    0    0    0
C -64.84682859 -31.46243812 -27.20674914     2     95   99   100   101
H -65.93768679 -31.80434209 -29.07193359     6    98    0    0    0
H -63.48381136 -32.89480667 -27.05743707     6    98    0    0    0
C -66.94923746 -31.89382904 -25.18002761     2    98   102   103   104
H -66.29592559 -31.38004088 -23.27349207     6    101    0    0    0
H -68.51559110 -30.68580243 -25.71406091     6    101    0    0    0
C -67.95086024 -34.55786183 -24.91739065     2    101   105   106   107
H -68.38153508 -35.20976988 -26.94792422     6    104    0    0    0
H -66.30321380 -35.72834270 -24.16278557     6    104    0    0    0
C -70.31128560 -34.91719178 -23.28937904     2    104   108   109   110
H -70.06907017 -34.16165355 -21.28492601     6    107    0    0    0
H -71.58525731 -33.63043187 -24.23272065     6    107    0    0    0
C -71.23827067 -37.58193739 -23.16275768     2    107   111   112   113
H -70.71778011 -38.16098083 -24.99559095     6    110    0    0    0
H -70.07462067 -38.47702369 -21.64280387     6    110    0    0    0
C -74.02577764 -37.89427607 -22.72079609     2    110   114   115   116
H -74.56434548 -36.44873695 -21.28591217     6    113    0    0    0
H -75.28849236 -37.55031979 -24.34279108     6    113    0    0    0
C -74.60685955 -40.57349703 -21.85164529     2    113   117   118   119
H -74.24505408 -41.82867156 -23.31391920     6    116    0    0    0
H -73.86343893 -41.25745426 -20.12926430     6    116    0    0    0
C -77.39161299 -40.80071971 -21.30670450     2    116   120   121   122
H -77.87001954 -39.55467668 -19.68373721     6    119    0    0    0
H -78.53613544 -40.49501193 -22.96397741     6    119    0    0    0
C -77.90450116 -43.54774606 -20.24578541     1    119   123   124   125
H -79.86437993 -44.05868622 -20.04963737     6    122    0    0    0
H -77.13325070 -43.74567718 -18.31913918     6    122    0    0    0
H -77.06023149 -45.08145797 -21.37678810     6    122    0    0    0
H -66.78580362 -10.54451512 -18.22732052     6     127    0    0    0 
C -65.20054196 -11.05702033 -19.46757644     1     126    128    129    130
H -66.05100993 -11.62894642 -21.26195308     6     127    0    0    0
H -64.30841933 -9.24489730 -20.12765366     6     127    0    0    0
C -63.38156188 -12.81385101 -17.95520858     2     127    131    132    133
H -64.46660039 -14.46741071 -17.55590727     6     130    0    0    0
H -61.57857606 -13.36389850 -19.03801687     6     130    0    0    0
C -62.51969255 -11.49791276 -15.50283496     2     130    134   135   136
H -61.92364311 -9.48086248 -15.76769356     6     133    0    0    0
H -64.17470693 -11.43659136 -14.12657225     6     133    0    0    0
C -60.52457820 -13.22196679 -14.21849189     2     133   137   138   139
H -61.05157982 -15.17557369 -14.39831413     6    136    0    0    0
H -58.58749968 -13.31174603 -15.02734365     6    136    0    0    0
C -60.27659025 -12.70222257 -11.32900433     2    136   140   141   142
H -59.38075974 -10.81810544 -11.01271027     6    139    0    0    0
H -62.21164848 -12.67267156 -10.52477311     6    139    0    0    0
C -58.44017448 -14.60885189 -10.04752508     2    139   143   144   145
H -59.02157676 -16.56235501 -10.29189598     6    142    0    0    0
H -56.51117464 -14.49099455 -10.80219411     6    142    0    0    0
C -58.18289486 -14.28378415 -7.31019774     2    142   146   147   148
H -57.99095937 -12.27899837 -6.89463105     6    145    0    0    0
H -59.83559371 -14.77622199 -6.42413741     6    145    0    0    0
C -56.03302982 -15.99984820 -6.04273924     2    145   149   150   151
H -56.73156834 -17.93291958 -6.27319710     6    148    0    0    0
H -54.10299207 -15.87824459 -6.85032848     6    148    0    0    0
C -55.69317249 -15.58982966 -3.21695472     2    148   152   153   154
H -55.82113673 -13.61062485 -2.78246966     6    151    0    0    0
H -57.28094283 -16.58600805 -2.26767205     6    151    0    0    0
C -53.27102450 -16.58833565 -2.19231915     2    151   155   156   157
H -53.40169514 -16.84208604 -0.18040365     6    154    0    0    0
H -53.22964085 -18.52759211 -2.95392064     6    154    0    0    0
C -50.82238241 -15.24137333 -2.79640205     2    154   158   159   160
H -50.67451076 -14.74712350 -4.79455625     6    157    0    0    0
H -51.01558334 -13.42379036 -1.88796102     6    157    0    0    0
C -48.67914390 -16.87659324 -1.66657226     1    157   161   162   163
H -46.93470114 -16.04795156 -2.53783664     6    160    0    0    0
H -48.66660162 -18.77605782 -2.49203164     6    160    0    0    0
H -48.80396164 -17.01616514 0.39568952     6    160    0    0    0
H -84.81334983 -15.21565708 -10.67579762     6     165    0    0    0 
C -83.88785232 -13.38906290 -10.57026979     1     164    166    167    168
H -83.74610393 -12.62937195 -12.39000988     6     165    0    0    0
H -85.06906588 -12.12388124 -9.45104739     6     165    0    0    0
C -81.27863244 -13.99960794 -9.44795394     2     165    169    170    171
H -81.56725273 -14.78715135 -7.61716827     6     168    0    0    0
H -80.44333631 -15.24247067 -10.73031119     6     168    0    0    0
C -79.58788722 -11.84730230 -9.37299468     2     168    172   173   174
H -80.81840416 -10.25421436 -9.99973206     6     171    0    0    0
H -79.29058335 -11.64291093 -7.36044936     6     171    0    0    0
C -77.15875540 -12.05699947 -10.79656920     2     171   175   176   177
H -76.47376474 -13.80916431 -10.48367029     6    174    0    0    0
H -77.29739954 -12.08419794 -12.90227664     6    174    0    0    0
C -75.33224523 -9.83998354 -10.11280994     2    174   178   179   180
H -76.43894624 -8.10571974 -10.54148494     6    177    0    0    0
H -74.95277511 -9.93627338 -8.01970277     6    177    0    0    0
C -72.56781864 -9.87531298 -11.41058075     2    177   181   182   183
H -71.70622541 -11.72631744 -10.78628071     6    180    0    0    0
H -73.04293983 -10.10779364 -13.52267943     6    180    0    0    0
C -70.89539547 -7.55398299 -10.65286553     2    180   184   185   186
H -72.05335021 -5.95543223 -11.14072207     6    183    0    0    0
H -70.55550099 -7.45773658 -8.57221266     6    183    0    0    0
C -68.48383733 -7.30324820 -12.37613614     2    183   187   188   189
H -67.61661512 -9.08059284 -12.35736196     6    186    0    0    0
H -69.18860828 -6.95486439 -14.21226856     6    186    0    0    0
C -66.63807713 -5.26013510 -11.49556546     2    186   190   191   192
H -67.34718478 -3.32780487 -11.98195819     6    189    0    0    0
H -66.20250049 -5.24096971 -9.47532183     6    189    0    0    0
C -64.05115365 -5.49014832 -12.71471959     2    189   193   194   195
H -63.32054567 -7.48526817 -12.56660072     6    192    0    0    0
H -64.28782776 -4.91852888 -14.79260988     6    192    0    0    0
C -62.22512284 -3.89976767 -11.31063449     2    192   196   197   198
H -63.37139564 -2.30509446 -10.52887143     6    195    0    0    0
H -61.36280274 -5.00310925 -9.76523126     6    195    0    0    0
C -60.00613349 -2.90878055 -13.03633013     1    195   199   200   201
H -58.55037685 -1.97423297 -11.94624908     6    198    0    0    0
H -60.69257730 -1.50835895 -14.35525781     6    198    0    0    0
H -59.11004731 -4.27661714 -14.30571600     6    198    0    0    0
H -90.87624841 -13.93026868 -2.79102887     6     203    0    0    0 
C -89.80479360 -14.20749648 -4.59345211     1     202    204    205    206
H -91.19359576 -15.07438469 -5.84576740     6     203    0    0    0
H -89.52435358 -12.26964831 -5.38809426     6     203    0    0    0
C -87.29801542 -15.63241509 -4.14471579     2     203    207    208    209
H -87.76069248 -17.62917945 -3.61048430     6     206    0    0    0
H -86.35453437 -15.67694300 -6.02169929     6     206    0    0    0
C -85.59289371 -14.38879592 -2.20044847     2     206    210   211   212
H -83.75985631 -15.61578824 -1.97306550     6     209    0    0    0
H -84.85760453 -12.61513080 -2.91759221     6     209    0    0    0
C -86.89030498 -14.39430840 0.42521453     2     209   213   214   215
H -88.52732940 -13.13770681 0.34354204     6    212    0    0    0
H -87.59440355 -16.33204405 0.94299894     6    212    0    0    0
C -85.41175059 -13.13618617 2.56711153     2    212   216   217   218
H -84.01548263 -14.35906519 3.34584291     6    215    0    0    0
H -84.47804324 -11.45739044 1.87843581     6    215    0    0    0
C -87.31989863 -12.34676301 4.68747364     2    215   219   220   221
H -88.25141125 -10.71902312 3.94395968     6    218    0    0    0
H -88.64461545 -13.84863686 5.05606634     6    218    0    0    0
C -86.11516128 -11.33361966 7.15591473     2    218   222   223   224
H -85.14712803 -12.86365899 8.04733401     6    221    0    0    0
H -84.63159961 -10.12116534 6.48191195     6    221    0    0    0
C -87.65366753 -9.84740271 9.01297982     2    221   225   226   227
H -88.36931518 -8.26577836 7.98213277     6    224    0    0    0
H -89.15118702 -11.02653963 9.59114662     6    224    0    0    0
C -86.16706264 -8.94746806 11.24033519     2    224   228   229   230
H -85.06951465 -10.49541697 12.11056911     6    227    0    0    0
H -84.82440758 -7.38824840 10.72314533     6    227    0    0    0
C -88.05170216 -7.85785838 13.12369497     2    227   231   232   233
H -89.42118903 -6.64435163 12.17152897     6    230    0    0    0
H -89.13781061 -9.19608071 14.17118009     6    230    0    0    0
C -86.86672667 -6.08679969 14.96537812     2    230   234   235   236
H -85.72238463 -7.03477642 16.29133457     6    233    0    0    0
H -85.81899642 -4.62237902 13.88182310     6    233    0    0    0
C -88.79970386 -4.98858628 16.59092792     1    233   237   238   239
H -87.88238103 -3.82225773 18.11991484     6    236    0    0    0
H -89.91666587 -6.42039384 17.52797696     6    236    0    0    0
H -90.27534499 -3.80689358 15.73065489     6    236    0    0    0
H -89.75586505 -34.48186410 3.77468500     6     241    0    0    0 
C -87.73982101 -34.97258873 3.95660391     1     240    242    243    244
H -86.44007775 -33.52201518 3.38735203     6     241    0    0    0
H -87.79545126 -34.52517031 5.98216195     6     241    0    0    0
C -87.13019839 -37.71043174 3.54012135     2     241    245    246    247
H -86.78826195 -37.95544956 1.55804274     6     244    0    0    0
H -85.38051789 -38.08127779 4.47952245     6     244    0    0    0
C -89.13689390 -39.40905543 4.78178474     2     244    248   249   250
H -89.02730825 -39.12196760 6.82526046     6     247    0    0    0
H -91.04540311 -38.99036885 4.38008352     6     247    0    0    0
C -88.57148796 -42.16292776 4.22295978     2     247   251   252   253
H -90.28691658 -43.25774032 4.93217607     6    250    0    0    0
H -88.31797543 -42.58937576 2.20365683     6    250    0    0    0
C -86.28252666 -43.21693057 5.57308864     2    250   254   255   256
H -84.58834716 -42.11617964 4.92741891     6    253    0    0    0
H -86.07298055 -42.89609075 7.58732058     6    253    0    0    0
C -85.31609930 -45.93399223 5.00957725     2    253   257   258   259
H -83.59425859 -46.26514598 6.18763231     6    256    0    0    0
H -86.54573650 -47.23409160 5.94253387     6    256    0    0    0
C -85.45072767 -46.80983782 2.15942273     2    256   260   261   262
H -87.27438900 -46.67087414 1.21868835     6    259    0    0    0
H -84.34011417 -45.51574683 1.13616908     6    259    0    0    0
C -84.57680059 -49.48512788 1.82862413     2    259   263   264   265
H -82.62584005 -49.67259741 2.24216225     6    262    0    0    0
H -85.57014074 -50.54707806 3.29565807     6    262    0    0    0
C -85.33421593 -50.61464821 -0.69881806     2    262   266   267   268
H -87.49541896 -50.37554815 -0.90140050     6    265    0    0    0
H -84.54416481 -49.40484988 -2.15376100     6    265    0    0    0
C -84.66947236 -53.44219378 -0.98369104     2    265   269   270   271
H -82.78323658 -53.82051178 -0.27187582     6    268    0    0    0
H -86.01207907 -54.64636505 0.04686923     6    268    0    0    0
C -84.83124972 -54.25330431 -3.84370396     2    268   272   273   274
H -84.84407459 -56.39224040 -3.83282233     6    271    0    0    0
H -86.56904957 -53.72400587 -4.72244969     6    271    0    0    0
C -82.52967028 -53.01411741 -5.23635151     1    271   275   276   277
H -83.11234345 -51.01950580 -5.83714932     6    274    0    0    0
H -82.18655228 -53.79794253 -7.05392447     6    274    0    0    0
H -80.90821385 -52.69627885 -4.10873647     6    274    0    0    0
H -84.39258133 -19.60378284 -11.91344724     6     279    0    0    0 
C -84.51809422 -21.45890703 -10.89364025     1     278    280    281    282
H -86.11279049 -22.53157217 -11.77550158     6     279    0    0    0
H -82.71877306 -22.38392398 -11.13974718     6     279    0    0    0
C -84.87837513 -20.98352116 -7.98991735     2     279    283    284    285
H -83.36038312 -19.94381699 -7.03674099     6     282    0    0    0
H -86.39657390 -19.65992954 -8.01097862     6     282    0    0    0
C -85.66433212 -23.44552348 -6.67418376     2     282    286   287   288
H -87.58889851 -23.85671386 -7.28007067     6     285    0    0    0
H -84.44051435 -24.87218023 -7.23081890     6     285    0    0    0
C -85.45943198 -23.09466660 -3.92266963     2     285   289   290   291
H -83.43716971 -23.23012048 -3.49116022     6    288    0    0    0
H -86.14712038 -21.25926172 -3.28821972     6    288    0    0    0
C -86.69460702 -25.25360235 -2.48526585     2    288   292   293   294
H -88.77106908 -25.78211010 -2.83944644     6    291    0    0    0
H -85.53896013 -26.95086065 -2.86297133     6    291    0    0    0
C -86.43345799 -24.80981007 0.22259020     2    291   295   296   297
H -84.42817583 -25.08375301 0.64012304     6    294    0    0    0
H -86.76591428 -22.92574489 0.79522371     6    294    0    0    0
C -87.81563493 -26.70780493 1.75794282     2    294   298   299   300
H -89.74008961 -26.50845177 1.13114281     6    297    0    0    0
H -87.21151288 -28.68220581 1.46232583     6    297    0    0    0
C -87.65482107 -26.10484154 4.52193611     2    297   301   302   303
H -85.63468525 -25.98932328 5.12641117     6    300    0    0    0
H -88.77786216 -24.37271235 4.85644788     6    300    0    0    0
C -88.76403115 -28.34474285 6.04790834     2    300   304   305   306
H -90.45822895 -28.93784437 5.23272917     6    303    0    0    0
H -87.55778516 -30.02276049 5.81425981     6    303    0    0    0
C -88.52038859 -28.03327232 8.88973142     2    303   307   308   309
H -86.55251018 -28.07118599 9.59151463     6    306    0    0    0
H -89.26747204 -26.14127205 9.40070618     6    306    0    0    0
C -90.08670657 -30.12728816 10.46008454     2    306   310   311   312
H -92.04921321 -29.53516609 9.96092187     6    309    0    0    0
H -89.84084289 -32.02334156 9.72977087     6    309    0    0    0
C -90.06065982 -29.98930196 13.46663977     1    309   313   314   315
H -91.66492645 -28.92204927 14.16479266     6    312    0    0    0
H -88.35783849 -28.77973397 14.09669320     6    312    0    0    0
H -90.09549161 -31.82508434 14.39632181     6    312    0    0    0
H -62.43524311 -19.54751528 -22.78779467     6     317    0    0    0 
C -63.87795929 -20.35379333 -21.61410928     1     316    318    319    320
H -65.04959489 -18.93398415 -20.51609488     6     317    0    0    0
H -65.19970568 -21.51314500 -22.74030297     6     317    0    0    0
C -62.78223099 -22.22338769 -19.58556200     2     317    321    322    323
H -64.09563554 -23.27444249 -18.47670148     6     320    0    0    0
H -61.68980773 -23.72648678 -20.50648710     6     320    0    0    0
C -61.01872945 -20.59891245 -17.84586970     2     320    324   325   326
H -59.62243126 -19.42327489 -18.75413827     6     323    0    0    0
H -62.12828926 -19.26715775 -16.93128848     6     323    0    0    0
C -59.52501400 -22.11636335 -15.83416114     2     323   327   328   329
H -60.80951224 -23.14515546 -14.46356067     6    326    0    0    0
H -58.21555318 -23.35364645 -16.84845150     6    326    0    0    0
C -57.88685482 -20.30447898 -14.15311121     2    326   330   331   332
H -56.52520236 -19.53557391 -15.47076885     6    329    0    0    0
H -58.89672280 -18.66954891 -13.38102440     6    329    0    0    0
C -56.18060169 -21.32240288 -12.12639881     2    329   333   334   335
H -54.91945088 -22.64728087 -13.09736810     6    332    0    0    0
H -55.02509655 -19.75517669 -11.40956426     6    332    0    0    0
C -57.49503208 -22.72559725 -10.07117370     2    332   336   337   338
H -59.02516804 -21.75187447 -9.06699182     6    335    0    0    0
H -58.36310892 -24.34462174 -10.98659800     6    335    0    0    0
C -55.63212713 -23.55841312 -8.05416107     2    335   339   340   341
H -54.35005457 -24.99843295 -8.80900168     6    338    0    0    0
H -54.74522994 -21.87863696 -7.45886052     6    338    0    0    0
C -56.92813953 -24.30123046 -5.42810376     2    338   342   343   344
H -57.20535320 -22.65983688 -4.15897616     6    341    0    0    0
H -58.81788617 -24.99967508 -5.61859787     6    341    0    0    0
C -55.39556474 -26.54321862 -4.15575538     2    341   345   346   347
H -56.15068580 -27.21736205 -2.39695401     6    344    0    0    0
H -55.78146448 -28.26561928 -5.12195102     6    344    0    0    0
C -52.40747478 -26.16334624 -4.09276410     2    344   348   349   350
H -51.54809472 -25.59336636 -5.83942321     6    347    0    0    0
H -51.75441127 -24.45176736 -3.01795106     6    347    0    0    0
C -51.04592930 -28.48181381 -3.21608227     1    347   351   352   353
H -51.47684746 -28.82476566 -1.18309046     6    350    0    0    0
H -48.94536791 -28.19626663 -3.32908795     6    350    0    0    0
H -51.52713727 -30.12638885 -4.39388002     6    350    0    0    0
H -83.47062832 -33.17201171 -2.14533646     6     355    0    0    0 
C -81.57091566 -32.92111882 -2.90543524     1     354    356    357    358
H -80.57804440 -31.96319779 -1.34143092     6     355    0    0    0
H -80.69204946 -34.80294563 -3.03466765     6     355    0    0    0
C -81.66066688 -31.51626272 -5.34833656     2     355    359    360    361
H -82.79835561 -32.63760817 -6.60525828     6     358    0    0    0
H -82.80698742 -29.85899220 -4.94060067     6     358    0    0    0
C -78.99805833 -30.85259398 -6.40225191     2     358    362   363   364
H -77.72278056 -29.92093354 -5.06050683     6     361    0    0    0
H -77.97802014 -32.46786431 -7.21598556     6     361    0    0    0
C -79.23117803 -28.95735682 -8.59009073     2     361   365   366   367
H -79.73219085 -30.05575840 -10.22505002     6    364    0    0    0
H -80.75263247 -27.60672976 -8.30298561     6    364    0    0    0
C -76.83675030 -27.52360112 -8.94799455     2    364   368   369   370
H -76.17209910 -26.60392086 -7.18051292     6    367    0    0    0
H -75.51738870 -28.96798149 -9.48665355     6    367    0    0    0
C -77.22184934 -25.39189606 -10.84900019     2    367   371   372   373
H -77.76250520 -25.95763224 -12.75455738     6    370    0    0    0
H -78.91948024 -24.39374593 -10.22695713     6    370    0    0    0
C -75.11359913 -23.39834561 -11.04718579     2    370   374   375   376
H -75.02372541 -22.65079487 -9.13515325     6    373    0    0    0
H -73.38387099 -24.53339025 -11.32232399     6    373    0    0    0
C -75.68977313 -21.38709392 -13.05613926     2    373   377   378   379
H -76.20575233 -22.14924143 -14.92320412     6    376    0    0    0
H -77.21273153 -20.29990179 -12.28472506     6    376    0    0    0
C -73.70451824 -19.23385872 -13.47862976     2    376   380   381   382
H -73.47011078 -18.00160477 -11.81690948     6    379    0    0    0
H -71.94107386 -20.25606990 -13.62516862     6    379    0    0    0
C -74.27289824 -17.33121141 -15.62442988     2    379   383   384   385
H -74.52959328 -18.51059216 -17.40594471     6    382    0    0    0
H -75.97421976 -16.21957646 -15.15237857     6    382    0    0    0
C -72.04234133 -15.55143756 -16.05963233     2    382   386   387   388
H -72.54254635 -13.98388893 -17.30081236     6    385    0    0    0
H -71.47877570 -14.87777554 -14.15564272     6    385    0    0    0
C -69.97337411 -17.01155549 -17.34991486     1    385   389   390   391
H -70.58543421 -17.94353833 -18.97646866     6    388    0    0    0
H -69.23709821 -18.22187498 -15.82358633     6    388    0    0    0
H -68.41006269 -15.85168394 -17.82813029     6    388    0    0    0
H -41.96046227 -38.56258019 19.62503877     6     393    0    0    0 
C -43.94288653 -38.08189922 20.08444897     1     392    394    395    396
H -43.91769859 -36.90705257 21.86376014     6     393    0    0    0
H -44.58290429 -36.71505496 18.63475140     6     393    0    0    0
C -45.67337732 -40.50658860 19.88150530     2     393    397    398    399
H -46.05983208 -41.26783347 17.95631456     6     396    0    0    0
H -44.45084477 -41.96797385 20.62585921     6     396    0    0    0
C -48.14880411 -40.18424098 21.40991177     2     396    400   401   402
H -47.96913364 -40.62483003 23.35927696     6     399    0    0    0
H -48.69685098 -38.26573768 21.39109961     6     399    0    0    0
C -50.37368587 -41.92613045 20.56890127     2     399   403   404   405
H -50.46487329 -41.98810226 18.53283834     6    402    0    0    0
H -50.01038435 -43.92172560 21.02179662     6    402    0    0    0
C -52.85122444 -41.01834186 21.62260041     2    402   406   407   408
H -52.71133612 -40.99173171 23.64126306     6    405    0    0    0
H -53.55654249 -39.06592871 21.28748990     6    405    0    0    0
C -54.78843606 -42.82770292 20.73020450     2    405   409   410   411
H -55.05890449 -42.49826563 18.74255686     6    408    0    0    0
H -54.29697912 -44.75915237 20.98817498     6    408    0    0    0
C -57.24187764 -42.28720763 22.18501857     2    408   412   413   414
H -57.03807285 -42.67744154 24.11417743     6    411    0    0    0
H -57.82355285 -40.24585309 22.04788761     6    411    0    0    0
C -59.40562574 -44.13909003 21.52620800     2    411   415   416   417
H -59.79728194 -44.29588349 19.48202834     6    414    0    0    0
H -59.05817194 -46.13457338 22.06243362     6    414    0    0    0
C -61.96769911 -43.50321719 22.94530350     2    414   418   419   420
H -61.82318501 -43.94694270 24.89863223     6    417    0    0    0
H -62.50350605 -41.53595824 22.84859078     6    417    0    0    0
C -64.13660413 -45.18530225 21.99753647     2    417   421   422   423
H -64.07161964 -45.33783243 20.07030091     6    420    0    0    0
H -63.64502545 -47.04392808 22.74089133     6    420    0    0    0
C -66.60655702 -44.25258716 23.32710696     2    420   424   425   426
H -67.88717481 -45.91975146 23.15862518     6    423    0    0    0
H -66.47541959 -44.08239635 25.41038068     6    423    0    0    0
C -67.83077869 -41.92024802 22.10126041     1    423   427   428   429
H -69.62630547 -41.65225391 22.74939521     6    426    0    0    0
H -67.98193692 -41.95156438 20.10406893     6    426    0    0    0
H -66.70086106 -40.25662635 22.77183363     6    426    0    0    0
H -64.71006111 -52.08869840 9.62083424     6     431    0    0    0 
C -63.98979546 -51.47029497 7.78292661     1     430    432    433    434
H -65.61429642 -51.19361408 6.46956778     6     431    0    0    0
H -62.86647681 -49.70215739 7.88551722     6     431    0    0    0
C -62.74134334 -53.81314517 6.81700432     2     431    435    436    437
H -61.11379454 -54.25183094 7.99339669     6     434    0    0    0
H -64.13394210 -55.37515109 7.02268443     6     434    0    0    0
C -61.96867062 -53.72121087 3.91321607     2     434    438   439   440
H -61.70185466 -55.81417698 3.11729536     6     437    0    0    0
H -63.59796841 -52.98845795 2.81081402     6     437    0    0    0
C -59.48597161 -52.14812226 3.32425544     2     437   441   442   443
H -58.74614100 -53.12243982 1.61037042     6    440    0    0    0
H -60.06111266 -50.16344154 2.87703500     6    440    0    0    0
C -57.49867627 -52.34513234 5.41554062     2    440   444   445   446
H -57.99952584 -51.14030901 7.07686749     6    443    0    0    0
H -57.25102564 -54.32495824 6.13795502     6    443    0    0    0
C -55.02136471 -51.59125441 4.38440762     2    443   447   448   449
H -54.60395292 -52.70847556 2.83447606     6    446    0    0    0
H -55.47733468 -49.75356402 3.46712484     6    446    0    0    0
C -52.96530324 -51.58333840 6.31127844     2    446   450   451   452
H -53.24678968 -50.09589282 7.53320174     6    449    0    0    0
H -53.18179172 -53.32320854 7.42137096     6    449    0    0    0
C -50.48012384 -51.46492709 5.03795492     2    449   453   454   455
H -50.34815645 -52.93775355 3.46776581     6    452    0    0    0
H -50.18147599 -49.75935767 3.90093175     6    452    0    0    0
C -48.28880659 -51.75071071 6.98618559     2    452   456   457   458
H -48.18065066 -50.13329504 8.39927719     6    455    0    0    0
H -48.75356786 -53.48446388 8.03963967     6    455    0    0    0
C -45.64497635 -52.05760765 5.63923623     2    455   459   460   461
H -44.61719777 -53.55103863 6.41124621     6    458    0    0    0
H -46.24934826 -52.64300653 3.71918993     6    458    0    0    0
C -43.72718147 -49.80244605 5.80207459     2    458   462   463   464
H -44.62668375 -48.04079255 5.03943820     6    461    0    0    0
H -43.21876784 -49.30819001 7.72785483     6    461    0    0    0
C -41.43354871 -50.17283840 4.10350726     1    461   465   466   467
H -41.98710229 -50.41263866 2.16786228     6    464    0    0    0
H -40.18306947 -51.63490031 4.69995938     6    464    0    0    0
H -40.36158931 -48.50817271 4.43060833     6    464    0    0    0
H -70.77639838 -26.84509526 -20.79127504     6     469    0    0    0 
C -69.28007414 -26.97554710 -19.61621857     1     468    470    471    472
H -68.78626717 -28.92050938 -19.69157827     6     469    0    0    0
H -67.67845102 -25.79697014 -19.99852331     6     469    0    0    0
C -70.14322632 -26.68787258 -16.96777671     2     469    473    474    475
H -68.69225945 -27.27831831 -15.48164758     6     472    0    0    0
H -70.41628797 -24.61164093 -16.74563626     6     472    0    0    0
C -72.49286669 -28.33421358 -16.19737556     2     472    476   477   478
H -73.18747860 -27.71379470 -14.36769193     6     475    0    0    0
H -74.03280260 -28.22941605 -17.47454109     6     475    0    0    0
C -71.67221255 -31.11120899 -16.00548036     2     475   479   480   481
H -71.07049593 -31.78127017 -17.77182614     6    478    0    0    0
H -69.87540562 -31.01984760 -15.03750672     6    478    0    0    0
C -73.89188891 -32.73925330 -15.06240856     2    478   482   483   484
H -74.25161731 -31.77974532 -13.32378279     6    481    0    0    0
H -75.39837362 -32.41388557 -16.41691553     6    481    0    0    0
C -73.12063283 -35.57062371 -14.56204827     2    481   485   486   487
H -72.37420397 -36.51734961 -16.21373672     6    484    0    0    0
H -71.56472821 -35.55299807 -13.31282733     6    484    0    0    0
C -75.29236615 -37.19844208 -13.69989509     2    484   488   489   490
H -76.54636952 -36.16641749 -12.24879104     6    487    0    0    0
H -76.59461157 -37.47157082 -15.30845046     6    487    0    0    0
C -74.55266216 -39.81161776 -12.69493426     2    487   491   492   493
H -73.50859529 -40.95842599 -14.24460817     6    490    0    0    0
H -73.27043922 -39.61778843 -11.02912952     6    490    0    0    0
C -76.91538327 -41.25117334 -11.63751526     2    490   494   495   496
H -77.46375935 -40.25722491 -9.92900470     6    493    0    0    0
H -78.49294961 -41.32471628 -12.96499620     6    493    0    0    0
C -76.40084271 -44.03752981 -10.97475361     2    493   497   498   499
H -75.67089700 -44.95034921 -12.72314439     6    496    0    0    0
H -75.13459881 -44.12346088 -9.41675124     6    496    0    0    0
C -78.89526463 -45.47840272 -10.20525686     2    496   500   501   502
H -79.98793700 -44.72537652 -8.64068850     6    499    0    0    0
H -80.42108302 -45.22119579 -11.70449692     6    499    0    0    0
C -78.44170649 -48.37026954 -9.59533522     1    499   503   504   505
H -79.92256176 -49.11563052 -8.29262332     6    502    0    0    0
H -76.68826734 -48.72332016 -8.59657386     6    502    0    0    0
H -78.35634691 -49.61531999 -11.34216746     6    502    0    0    0
H -78.40303954 -61.51175730 5.13689642     6     507    0    0    0 
C -77.06855111 -62.17734266 6.53599241     1     506    508    509    510
H -77.99132672 -63.55980422 7.80777387     6     507    0    0    0
H -75.39478064 -63.17863155 5.58724924     6     507    0    0    0
C -75.75810947 -59.92750784 7.84326992     2     507    511    512    513
H -75.24881534 -58.55043563 6.37504261     6     510    0    0    0
H -77.14389026 -58.94941897 8.78980169     6     510    0    0    0
C -73.41082266 -60.66219991 9.43116199     2     510    514   515   516
H -74.11445794 -61.73919914 11.06745901     6     513    0    0    0
H -72.03826279 -61.90044051 8.53839698     6     513    0    0    0
C -71.99526728 -58.38681814 10.50577830     2     513   517   518   519
H -71.45245758 -57.26879743 8.86511794     6    516    0    0    0
H -73.32381672 -57.25389977 11.60220494     6    516    0    0    0
C -69.39536032 -59.13870253 11.60732736     2    516   520   521   522
H -69.80935714 -60.86988964 12.69820140     6    519    0    0    0
H -68.22850358 -59.76967283 9.99734940     6    519    0    0    0
C -68.38252026 -57.12765393 13.50015314     2    519   523   524   525
H -68.72727072 -55.23985954 12.63531017     6    522    0    0    0
H -69.60069883 -57.32245773 15.22478123     6    522    0    0    0
C -65.61904480 -57.16986792 14.06919711     2    522   526   527   528
H -65.01317652 -58.78287908 15.23192795     6    525    0    0    0
H -64.57051212 -57.95003533 12.55332831     6    525    0    0    0
C -64.32866318 -54.74731393 15.18671819     2    525   529   530   531
H -65.04106559 -53.13609689 14.19179752     6    528    0    0    0
H -64.90813369 -54.13273550 17.02412431     6    528    0    0    0
C -61.40496157 -54.62615168 14.73219236     2    528   532   533   534
H -60.37926738 -56.13562373 15.76316247     6    531    0    0    0
H -60.79052317 -54.83058362 12.79712575     6    531    0    0    0
C -60.39571274 -52.03196650 15.64580964     2    531   535   536   537
H -61.14243533 -50.60048297 14.34022624     6    534    0    0    0
H -61.22801635 -51.65174868 17.43512018     6    534    0    0    0
C -57.53149529 -51.61687612 15.92821985     2    534   538   539   540
H -56.98095391 -52.57918874 17.66146788     6    537    0    0    0
H -56.47568925 -52.56019986 14.48219328     6    537    0    0    0
C -56.69930670 -48.91337153 16.21291435     1    537   541   542   543
H -54.80729425 -48.57557060 16.77180062     6    540    0    0    0
H -57.69198427 -47.79561991 17.58006086     6    540    0    0    0
H -56.85777274 -47.95078482 14.52508550     6    540    0    0    0
H -49.20793601 -38.23804019 7.56672075     6     545    0    0    0 
C -47.72255966 -36.83593879 7.05594519     1     544    546    547    548
H -46.60075598 -36.70751729 8.74197854     6     545    0    0    0
H -46.38294986 -37.68645249 5.74305779     6     545    0    0    0
C -48.66248923 -34.36353875 5.81727650     2     545    549    550    551
H -48.90473208 -34.83000165 3.70122652     6     548    0    0    0
H -50.53642119 -33.86600908 6.33965574     6     548    0    0    0
C -47.28834786 -31.85477223 6.67006766     2     548    552   553   554
H -47.47285099 -31.56689199 8.63929750     6     551    0    0    0
H -45.22128395 -32.10040159 6.32223719     6     551    0    0    0
C -48.23185246 -29.66850419 5.03744415     2     551   555   556   557
H -47.68135870 -29.95167693 3.12871471     6    554    0    0    0
H -50.25831917 -29.61907296 4.93535568     6    554    0    0    0
C -47.44276093 -27.08205110 5.88344045     2    554   558   559   560
H -47.65089324 -26.93855427 7.94679314     6    557    0    0    0
H -45.49935533 -26.69702282 5.42903855     6    557    0    0    0
C -48.75695339 -24.75917393 4.66091812     2    557   561   562   563
H -47.82149771 -24.19481299 2.90761521     6    560    0    0    0
H -50.57550936 -25.34231506 4.11861462     6    560    0    0    0
C -48.61144923 -22.39026602 6.30443453     2    560   564   565   566
H -50.08186509 -22.44467261 7.71905554     6    563    0    0    0
H -46.85035725 -22.52459450 7.31778658     6    563    0    0    0
C -49.11987586 -19.87384570 4.98602725     2    563   567   568   569
H -47.51543024 -19.71627148 3.66864667     6    566    0    0    0
H -50.94660115 -20.01373593 4.12829786     6    566    0    0    0
C -49.10323506 -17.50075648 6.69988229     2    566   570   571   572
H -50.49173532 -17.74755575 8.11428423     6    569    0    0    0
H -47.20370984 -17.13880281 7.59939413     6    569    0    0    0
C -49.74114205 -15.07126558 5.25885555     2    569   573   574   575
H -48.30651084 -14.66648323 3.72118335     6    572    0    0    0
H -51.81463536 -14.94728431 4.61047696     6    572    0    0    0
C -49.06770923 -12.78539289 6.99396529     2    572   576   577   578
H -47.08151370 -12.89220655 7.62321651     6    575    0    0    0
H -49.09840828 -10.92914533 5.84306625     6    575    0    0    0
C -50.85012824 -12.48404678 9.24084601     1    575   579   580   581
H -51.18394392 -14.29836234 10.18401277     6    578    0    0    0
H -52.59915069 -11.65405359 8.81529167     6    578    0    0    0
H -49.95601794 -11.32546664 10.77187700     6    578    0    0    0
H -78.90952049 -15.37732081 -3.24194349     6     583    0    0    0 
C -77.69266973 -16.85278309 -3.65876668     1     582    584    585    586
H -77.08083010 -17.66453611 -1.87768351     6     583    0    0    0
H -78.74840289 -18.16888391 -4.88590786     6     583    0    0    0
C -75.36660946 -15.86187994 -4.97681220     2     583    587    588    589
H -74.10514376 -17.57150320 -5.00952834     6     586    0    0    0
H -75.76652788 -15.37000081 -6.94655261     6     586    0    0    0
C -74.14700059 -13.56300810 -3.76360977     2     586    590   591   592
H -74.81295794 -11.75677068 -4.44622259     6     589    0    0    0
H -74.24982442 -13.55554220 -1.71204579     6     589    0    0    0
C -71.24885470 -13.68633474 -4.59051654     2     589   593   594   595
H -70.57267269 -15.48901757 -3.79207263     6    592    0    0    0
H -71.21687883 -13.73066278 -6.61665278     6    592    0    0    0
C -69.81476056 -11.33955242 -3.65588546     2    592   596   597   598
H -70.97605204 -9.74451535 -4.26468243     6    595    0    0    0
H -69.72380669 -11.35698772 -1.65834382     6    595    0    0    0
C -67.20236993 -11.32682817 -4.70029048     2    595   599   600   601
H -66.28602051 -13.27043534 -4.76377625     6    598    0    0    0
H -67.57865894 -11.01136676 -6.59483843     6    598    0    0    0
C -65.70324566 -9.08657942 -3.43511433     2    598   602   603   604
H -66.72729749 -7.28990631 -4.02822395     6    601    0    0    0
H -65.81622508 -9.19840312 -1.33989445     6    601    0    0    0
C -62.91616654 -8.59274934 -4.24146469     2    601   605   606   607
H -61.85235380 -10.30060310 -3.77626941     6    604    0    0    0
H -63.04969201 -7.99984299 -6.30060389     6    604    0    0    0
C -61.96901262 -6.34964542 -2.50701886     2    604   608   609   610
H -62.99824280 -4.60915181 -2.78057309     6    607    0    0    0
H -62.01930361 -6.81504272 -0.50020225     6    607    0    0    0
C -59.14905361 -5.60989635 -3.39927339     2    607   611   612   613
H -57.91965499 -7.26651129 -3.53604321     6    610    0    0    0
H -59.13985620 -4.95272191 -5.27581896     6    610    0    0    0
C -57.91012403 -3.52226089 -1.77209941     2    610   614   615   616
H -58.94988301 -1.78555457 -1.67310790     6    613    0    0    0
H -57.77529982 -4.16509388 0.15327339     6    613    0    0    0
C -55.18892022 -3.03576434 -2.66506565     1    613   617   618   619
H -54.75964641 -1.26013474 -1.75502452     6    616    0    0    0
H -55.40773071 -2.53377722 -4.58073210     6    616    0    0    0
H -53.60653508 -4.39019972 -2.29034490     6    616    0    0    0
H -63.92532052 -23.89554724 33.86687345     6     621    0    0    0 
C -65.09230170 -25.04781164 32.66859071     1     620    622    623    624
H -63.77388151 -25.73771531 31.14430502     6     621    0    0    0
H -65.73378686 -26.58718863 33.70963419     6     621    0    0    0
C -67.40671926 -23.54303155 31.46195672     2     621    625    626    627
H -68.67072300 -24.91645474 30.43743949     6     624    0    0    0
H -68.56109420 -22.75156999 32.95887182     6     624    0    0    0
C -66.91719955 -21.49720408 29.44983408     2     624    628   629   630
H -65.96738976 -19.92291669 30.14315487     6     627    0    0    0
H -65.75506836 -22.07079822 27.97140476     6     627    0    0    0
C -69.40082434 -20.43420405 28.06775586     2     627   631   632   633
H -68.88746736 -19.14968314 26.48807378     6    630    0    0    0
H -70.62360291 -21.90524244 27.48978830     6    630    0    0    0
C -70.92399164 -18.69902769 29.96364309     2    630   634   635   636
H -71.49211160 -19.71682288 31.63598852     6    633    0    0    0
H -69.92820136 -17.04007805 30.69234703     6    633    0    0    0
C -73.31868596 -17.59509292 28.79058534     2    633   637   638   639
H -72.77436883 -16.47130545 27.02912962     6    636    0    0    0
H -74.35260457 -19.28861938 28.24217704     6    636    0    0    0
C -75.01360133 -16.13756940 30.60683832     2    636   640   641   642
H -75.46070158 -17.26456326 32.19706445     6    639    0    0    0
H -74.35051147 -14.36137300 31.44099486     6    639    0    0    0
C -77.68788327 -15.72544937 29.48950760     2    639   643   644   645
H -77.39765379 -14.63992755 27.73906086     6    642    0    0    0
H -78.53327352 -17.36993760 28.61622977     6    642    0    0    0
C -79.13373592 -14.21433192 31.39503915     2    642   646   647   648
H -79.61411350 -15.49025588 32.95159734     6    645    0    0    0
H -77.97387009 -12.56603689 32.07750221     6    645    0    0    0
C -81.52303032 -12.77785235 30.34578959     2    645   649   650   651
H -82.76416535 -14.24005300 29.58907236     6    648    0    0    0
H -82.46732586 -12.00003467 32.09813891     6    648    0    0    0
C -81.18714659 -10.39713191 28.78734686     2    648   652   653   654
H -80.51901783 -8.98750849 30.14039069     6    651    0    0    0
H -79.67337405 -10.56580433 27.38559487     6    651    0    0    0
C -83.65178346 -9.43866108 27.51517125     1    651   655   656   657
H -85.23650263 -9.29708652 28.71457463     6    654    0    0    0
H -84.20439072 -10.79088407 26.01524998     6    654    0    0    0
H -83.15283341 -7.71099162 26.52869476     6    654    0    0    0
H -73.55577607 -17.64033264 6.88859056     6     659    0    0    0 
C -73.26056672 -18.65134961 5.14451140     1     658    660    661    662
H -71.57527358 -19.92636801 4.96368985     6     659    0    0    0
H -74.99263652 -19.94217442 5.09590377     6     659    0    0    0
C -73.50749808 -16.74159455 3.04509077     2     659    663    664    665
H -73.34231543 -17.68385370 1.29933872     6     662    0    0    0
H -75.29757958 -15.76440820 3.08505614     6     662    0    0    0
C -71.33744416 -14.86150430 3.04729679     2     662    666   667   668
H -71.83709166 -13.31472949 1.83522147     6     665    0    0    0
H -71.04949425 -14.01047960 4.93151713     6     665    0    0    0
C -68.77944529 -15.90366109 2.10141993     2     665   669   670   671
H -68.37714480 -17.56324607 3.27079155     6    668    0    0    0
H -68.89762444 -16.54869050 0.23036903     6    668    0    0    0
C -66.47712265 -14.14280688 2.61265572     2    668   672   673   674
H -66.79650954 -12.29103054 1.75853942     6    671    0    0    0
H -66.25076060 -13.71879811 4.49652614     6    671    0    0    0
C -63.78606405 -15.00725918 1.82109984     2    671   675   676   677
H -63.17772285 -16.78661707 2.80216606     6    674    0    0    0
H -63.83144991 -15.49211777 -0.11160548     6    674    0    0    0
C -61.68660849 -12.95173031 2.14543667     2    674   678   679   680
H -60.07666078 -13.41807741 0.98764931     6    677    0    0    0
H -62.19994270 -11.18858719 1.09372018     6    677    0    0    0
C -60.76987070 -12.39112758 4.79540899     2    677   681   682   683
H -62.33197067 -12.00137060 6.13234674     6    680    0    0    0
H -59.80367804 -14.15152976 5.32252847     6    680    0    0    0
C -58.92534073 -10.20708672 5.05512406     2    680   684   685   686
H -60.03206673 -8.53645714 4.96262451     6    683    0    0    0
H -58.39625074 -10.14508685 6.95677172     6    683    0    0    0
C -56.54895870 -9.99035569 3.33643162     2    683   687   688   689
H -55.58754420 -11.81407940 3.52420875     6    686    0    0    0
H -57.16112736 -9.92034303 1.43936715     6    686    0    0    0
C -54.59038691 -7.75311288 3.87006310     2    686   690   691   692
H -55.61779388 -6.12200426 3.78596556     6    689    0    0    0
H -53.97220863 -8.01641149 5.76761485     6    689    0    0    0
C -52.32101728 -8.06644289 2.14445459     1    689   693   694   695
H -50.92284253 -6.77716439 2.84935062     6    692    0    0    0
H -52.57930438 -7.51774826 0.18444911     6    692    0    0    0
H -51.41451113 -9.95658430 2.21215425     6    692    0    0    0
H -39.62542834 -25.29160229 8.22690143     6     697    0    0    0 
C -40.20452887 -25.41628373 10.26093220     1     696    698    699    700
H -38.44044526 -25.23347765 11.29839694     6     697    0    0    0
H -41.40510085 -23.80294167 10.52208953     6     697    0    0    0
C -41.77895945 -27.66626084 11.03093590     2     697    701    702    703
H -42.09823915 -27.62909201 13.10705963     6     700    0    0    0
H -43.61278113 -27.75892996 10.13312665     6     700    0    0    0
C -40.20081562 -30.08865997 10.78565691     2     700    704   705   706
H -38.35148817 -29.96266543 11.88552506     6     703    0    0    0
H -41.37715163 -31.54436595 11.57463989     6     703    0    0    0
C -39.68465089 -30.59755301 7.94323976     2     703   707   708   709
H -41.31216103 -30.97738362 6.92667349     6    706    0    0    0
H -38.89642968 -29.00724181 7.10590408     6    706    0    0    0
C -38.08820839 -32.90970265 7.24658796     2    706   710   711   712
H -36.12142565 -32.52359348 7.81186059     6    709    0    0    0
H -39.03708261 -34.41731239 8.18290083     6    709    0    0    0
C -37.90665074 -33.45546282 4.43798515     2    709   713   714   715
H -39.64738536 -34.08120935 3.62357985     6    712    0    0    0
H -37.65260961 -31.49962141 3.60354160     6    712    0    0    0
C -35.73705985 -35.34850519 3.89381685     2    712   716   717   718
H -33.85204288 -34.87289657 4.77233020     6    715    0    0    0
H -36.41016205 -37.12365554 4.76126909     6    715    0    0    0
C -35.45973097 -35.84785898 1.10684430     2    715   719   720   721
H -34.20316001 -37.50030218 0.99456706     6    718    0    0    0
H -37.33067585 -36.53253180 0.45507617     6    718    0    0    0
C -34.69718490 -33.60322724 -0.62687149     2    718   722   723   724
H -36.28265691 -32.14481298 -0.40486429     6    721    0    0    0
H -32.93108265 -32.55655422 -0.26072150     6    721    0    0    0
C -34.84919415 -34.65790941 -3.38059920     2    721   725   726   727
H -33.52750427 -36.32380798 -3.54439693     6    724    0    0    0
H -36.85121705 -35.15555052 -3.91120816     6    724    0    0    0
C -33.98099121 -32.52243449 -5.12653186     2    724   728   729   730
H -32.10745938 -31.94416278 -4.41261350     6    727    0    0    0
H -33.87450706 -33.31745145 -7.05282669     6    727    0    0    0
C -35.75205565 -30.20923998 -5.27624439     1    727   731   732   733
H -34.89169707 -29.07835132 -6.62114413     6    730    0    0    0
H -36.07800349 -28.98913062 -3.67818024     6    730    0    0    0
H -37.59781075 -30.52516236 -6.20080471     6    730    0    0    0
H -56.85229337 -29.71473181 -18.53006940     6     735    0    0    0 
C -58.58035997 -29.69251021 -17.26579944     1     734    736    737    738
H -57.99131305 -30.59931495 -15.47583318     6     735    0    0    0
H -59.14327643 -27.70065722 -16.93236197     6     735    0    0    0
C -60.55087465 -31.35306406 -18.62183318     2     735    739    740    741
H -61.66171883 -30.14227500 -19.90379952     6     738    0    0    0
H -59.57834325 -32.29571018 -20.05003601     6     738    0    0    0
C -62.05164123 -33.09206640 -16.78040390     2     738    742   743   744
H -60.57286567 -34.22581080 -15.81806788     6     741    0    0    0
H -63.24265706 -32.06735225 -15.34226145     6     741    0    0    0
C -63.81932917 -34.99312376 -18.18546668     2     741   745   746   747
H -65.13100250 -34.04668445 -19.35560006     6    744    0    0    0
H -62.75968420 -36.15288155 -19.47834374     6    744    0    0    0
C -65.39277811 -36.66581344 -16.28270546     2    744   748   749   750
H -64.71337076 -36.54971465 -14.41224008     6    747    0    0    0
H -67.16894293 -35.68447790 -16.47927629     6    747    0    0    0
C -65.69618280 -39.44085254 -17.20380249     2    747   751   752   753
H -66.89289527 -39.73755450 -18.84454000     6    750    0    0    0
H -63.88932243 -39.81763118 -18.15443271     6    750    0    0    0
C -66.48512473 -41.23682421 -15.00808003     2    750   754   755   756
H -65.08441098 -41.11604693 -13.75802451     6    753    0    0    0
H -68.37556784 -40.47072449 -14.31343558     6    753    0    0    0
C -66.91955546 -44.06000537 -15.77366003     2    753   757   758   759
H -68.51344218 -43.98342790 -16.99478433     6    756    0    0    0
H -65.24705523 -44.72711314 -16.83720096     6    756    0    0    0
C -67.39808063 -45.67760217 -13.45947749     2    756   760   761   762
H -66.11942797 -45.25034338 -11.83102174     6    759    0    0    0
H -69.28850387 -45.27443384 -12.73707397     6    759    0    0    0
C -67.56240165 -48.58962345 -14.17329099     2    759   763   764   765
H -68.73299749 -49.00877117 -15.80771047     6    762    0    0    0
H -65.68272323 -49.30685953 -14.67426112     6    762    0    0    0
C -68.22459350 -49.90753403 -11.66232188     2    762   766   767   768
H -67.02072957 -49.02643170 -10.22567273     6    765    0    0    0
H -70.05218191 -49.18634708 -10.96709297     6    765    0    0    0
C -68.37269113 -52.67219944 -11.84947537     1    765   769   770   771
H -69.63326288 -53.15842879 -13.34056245     6    768    0    0    0
H -69.08837721 -53.55499826 -10.10874545     6    768    0    0    0
H -66.50996544 -53.37446890 -12.41351538     6    768    0    0    0
H -74.22679159 -32.14994535 34.28625582     6     773    0    0    0 
C -74.22303376 -34.08985426 35.06213735     1     772    774    775    776
H -73.63609266 -34.01018542 36.93463276     6     773    0    0    0
H -76.13560360 -34.91136065 35.18928273     6     773    0    0    0
C -72.76361153 -35.95908039 33.39048159     2     773    777    778    779
H -72.46172129 -37.78543902 34.42216777     6     776    0    0    0
H -73.85536949 -36.29077905 31.71249545     6     776    0    0    0
C -70.22188613 -34.90511553 32.51566027     2     776    780   781   782
H -70.29276258 -33.25344692 31.34864914     6     779    0    0    0
H -69.33681623 -34.11851310 34.23255379     6     779    0    0    0
C -68.37352609 -36.83450572 31.31493464     2     779   783   784   785
H -68.54721339 -38.54999756 32.53123405     6    782    0    0    0
H -69.13067828 -37.58122827 29.51964250     6    782    0    0    0
C -65.66231420 -35.70885925 31.31106793     2    782   786   787   788
H -65.55446562 -34.63404453 29.53028071     6    785    0    0    0
H -65.37647734 -34.36201143 32.81724047     6    785    0    0    0
C -63.84240121 -38.05727298 31.37131513     2    785   789   790   791
H -64.28938544 -39.13555006 33.17514821     6    788    0    0    0
H -64.36406881 -39.08678172 29.66166710     6    788    0    0    0
C -60.98720544 -37.66793384 31.25845579     2    788   792   793   794
H -60.59652339 -36.03418602 30.30412436     6    791    0    0    0
H -60.00998651 -37.26822095 33.11755812     6    791    0    0    0
C -59.63999594 -40.09112619 30.27217223     2    791   795   796   797
H -60.50354582 -41.55557471 31.40609774     6    794    0    0    0
H -59.88822488 -40.65997731 28.35446364     6    794    0    0    0
C -56.74171546 -40.03484559 30.77063388     2    794   798   799   800
H -56.00830876 -38.81667730 29.15623044     6    797    0    0    0
H -56.31716639 -39.37199365 32.75945701     6    797    0    0    0
C -55.30215472 -42.54781795 30.69130097     2    797   801   802   803
H -56.16632553 -43.80123480 31.95421117     6    800    0    0    0
H -55.87405146 -43.77601047 29.17069729     6    800    0    0    0
C -52.48537194 -42.38601432 31.05034570     2    800   804   805   806
H -51.85529630 -40.79190207 29.84889921     6    803    0    0    0
H -52.10100308 -41.98464578 33.11532476     6    803    0    0    0
C -51.03409892 -44.70869198 30.11699591     1    803   807   808   809
H -49.00744948 -44.79376701 30.38119221     6    806    0    0    0
H -51.48647330 -45.17784554 28.08477359     6    806    0    0    0
H -51.47182399 -46.31533635 31.36461771     6    806    0    0    0
H -77.03062469 -24.96200536 -2.87366490     6     811    0    0    0 
C -77.77329343 -23.37622411 -1.78173765     1     810    812    813    814
H -76.40506742 -21.92905438 -2.09925388     6     811    0    0    0
H -79.59259600 -22.69525209 -2.61013579     6     811    0    0    0
C -78.28113771 -24.18835027 1.02132342     2     811    815    816    817
H -76.52624321 -23.80745505 2.03438669     6     814    0    0    0
H -79.71456672 -23.02250486 1.96168348     6     814    0    0    0
C -79.16402566 -26.98770806 0.99069266     2     814    818   819   820
H -80.63608510 -27.27933338 -0.43449890     6     817    0    0    0
H -77.49517090 -28.22144006 0.38054771     6     817    0    0    0
C -80.21972058 -27.72105866 3.61726739     2     817   821   822   823
H -79.04922662 -27.16061276 5.24078812     6    820    0    0    0
H -81.91511916 -26.67479456 3.98175573     6    820    0    0    0
C -80.66792484 -30.56353531 3.99136643     2    820   824   825   826
H -81.91518645 -31.26277919 2.62019600     6    823    0    0    0
H -78.90968549 -31.54256884 3.90332394     6    823    0    0    0
C -81.62138209 -30.93768966 6.68130073     2    823   827   828   829
H -80.28124288 -30.11931314 8.03861103     6    826    0    0    0
H -83.32941570 -29.79673248 6.73852073     6    826    0    0    0
C -82.12839626 -33.66998523 7.55550821     2    826   830   831   832
H -83.03863970 -34.61430062 6.04671618     6    829    0    0    0
H -80.38745670 -34.73772654 7.77898087     6    829    0    0    0
C -83.71146970 -33.90160475 10.03502080     2    829   833   834   835
H -82.43981931 -32.96268452 11.42453982     6    832    0    0    0
H -85.51928120 -32.88861134 9.88324814     6    832    0    0    0
C -84.08140966 -36.65083324 10.78398407     2    832   836   837   838
H -85.26928286 -37.82103909 9.56802249     6    835    0    0    0
H -82.35705801 -37.68690423 11.17019546     6    835    0    0    0
C -85.47923649 -36.61607855 13.24595270     2    835   839   840   841
H -84.37053512 -35.56865444 14.65185612     6    838    0    0    0
H -87.28473815 -35.59174459 12.98854518     6    838    0    0    0
C -86.14255620 -39.20437978 14.24385539     2    838   842   843   844
H -87.51219635 -40.14674914 12.98800089     6    841    0    0    0
H -84.51993737 -40.57246446 14.21188428     6    841    0    0    0
C -87.09781815 -38.96768078 17.05013585     1    841   845   846   847
H -85.42562721 -38.25900198 18.09383487     6    844    0    0    0
H -87.72076109 -40.79708884 17.73300105     6    844    0    0    0
H -88.70423959 -37.58465477 17.23497025     6    844    0    0    0
H -52.83164195 -0.83138712 7.60897067     6     849    0    0    0 
C -53.96397236 0.14717464 8.97098427     1     848    850    851    852
H -52.94011674 -0.11452467 10.76894321     6     849    0    0    0
H -53.97918564 2.17095821 8.57968942     6     849    0    0    0
C -56.53379428 -1.04293261 9.27988314     2     849    853    854    855
H -56.12877153 -3.06875864 9.53527346     6     852    0    0    0
H -57.24674422 -0.38155081 11.17998217     6     852    0    0    0
C -58.26442755 -0.51097728 7.03378369     2     852    856   857   858
H -58.64516971 1.54054973 6.99906053     6     855    0    0    0
H -57.42504605 -1.21215319 5.20500943     6     855    0    0    0
C -61.01295150 -1.54038867 7.27749189     2     855   859   860   861
H -60.98111825 -3.56848876 7.75446500     6    858    0    0    0
H -61.86535513 -0.95779035 8.96645867     6    858    0    0    0
C -62.76148694 -1.25236227 4.88644346     2    858   862   863   864
H -62.46944913 0.71897132 4.27595664     6    861    0    0    0
H -62.03966378 -2.63024339 3.39454662     6    861    0    0    0
C -65.55670351 -1.85248112 5.38926469     2    861   865   866   867
H -65.62655899 -3.77190062 6.07333082     6    864    0    0    0
H -66.42765085 -0.84939803 7.03483400     6    864    0    0    0
C -67.17768733 -2.20314148 3.01295837     2    864   868   869   870
H -67.13812295 -0.21488755 2.39000822     6    867    0    0    0
H -66.22003650 -3.49842235 1.68470826     6    867    0    0    0
C -70.01102683 -2.63741095 3.47767400     2    867   871   872   873
H -70.32489489 -4.58253622 4.04645010     6    870    0    0    0
H -70.65499511 -1.55541475 5.05791091     6    870    0    0    0
C -71.83969607 -1.89734830 1.31065477     2    870   874   875   876
H -73.66489203 -1.82832228 2.29367045     6    873    0    0    0
H -71.52062953 0.09696740 0.97389182     6    873    0    0    0
C -72.00009789 -3.67184264 -1.09345873     2    873   877   878   879
H -70.30637215 -3.55654816 -2.13370407     6    876    0    0    0
H -72.02198530 -5.59133407 -0.48394134     6    876    0    0    0
C -74.42650283 -3.11369765 -2.40013571     2    876   880   881   882
H -76.03107616 -3.55327168 -1.10324707     6    879    0    0    0
H -74.46333453 -1.15932029 -2.90336098     6    879    0    0    0
C -74.62226018 -4.49561748 -4.85915211     1    879   883   884   885
H -76.60279260 -4.16700625 -5.61519394     6    882    0    0    0
H -74.52435403 -6.53475717 -4.54819059     6    882    0    0    0
H -73.21120464 -3.95581595 -6.20308517     6    882    0    0    0
H -76.29709226 -33.89779592 10.51425958     6     887    0    0    0 
C -75.40073667 -32.37423456 11.52589481     1     886    888    889    890
H -76.83158335 -30.99764016 12.10865964     6     887    0    0    0
H -74.92257296 -33.04391132 13.38263240     6     887    0    0    0
C -73.13924784 -31.43615442 10.02146462     2     887    891    892    893
H -72.44794067 -30.31832790 11.54097916     6     890    0    0    0
H -72.00888473 -33.07297971 9.55463089     6     890    0    0    0
C -73.94565917 -29.99396143 7.68864567     2     890    894   895   896
H -74.94843930 -31.33741753 6.33255143     6     893    0    0    0
H -75.40672411 -28.65319046 8.15374262     6     893    0    0    0
C -71.65393488 -28.69280155 6.50490881     2     893   897   898   899
H -71.01358101 -27.07944995 7.71154580     6    896    0    0    0
H -70.04460977 -29.80750731 6.29398633     6    896    0    0    0
C -72.20977984 -27.64646506 3.80853462     2    896   900   901   902
H -72.32055119 -29.45607554 2.74386856     6    899    0    0    0
H -74.14257820 -26.88023781 3.69290813     6    899    0    0    0
C -70.10789579 -26.01315531 2.61733486     2    899   903   904   905
H -69.89147331 -24.27449977 3.66772685     6    902    0    0    0
H -68.41961331 -27.04356183 2.96184418     6    902    0    0    0
C -70.70964898 -25.32145450 -0.17828431     2    902   906   907   908
H -70.83652577 -27.13471076 -1.22487689     6    905    0    0    0
H -72.60474197 -24.49293986 -0.18132385     6    905    0    0    0
C -68.68530087 -23.68979113 -1.32338706     2    905   909   910   911
H -68.50467549 -22.14443819 0.09635767     6    908    0    0    0
H -66.82512064 -24.65706579 -1.44566191     6    908    0    0    0
C -69.34477261 -22.70751857 -4.06836730     2    908   912   913   914
H -70.36503916 -24.14337750 -5.19156387     6    911    0    0    0
H -70.69839054 -21.34820757 -3.87534070     6    911    0    0    0
C -67.02696172 -21.82731258 -5.55973894     2    911   915   916   917
H -65.70996309 -20.55729956 -4.55142688     6    914    0    0    0
H -65.88321168 -23.42772209 -6.20592255     6    914    0    0    0
C -67.97818866 -20.36042034 -7.99228051     2    914   918   919   920
H -68.86747113 -21.40787747 -9.64050219     6    917    0    0    0
H -69.53976156 -19.14513340 -7.39088054     6    917    0    0    0
C -65.88476161 -18.81356117 -9.25699313     1    917   921   922   923
H -64.27822314 -20.00138184 -9.31973660     6    920    0    0    0
H -65.47826938 -17.25228249 -8.12621222     6    920    0    0    0
H -66.53873557 -18.57979921 -11.21183670     6    920    0    0    0
H -70.99305290 -2.53384978 13.52855124     6     925    0    0    0 
C -73.00034716 -2.51485573 13.61803547     1     924    926    927    928
H -73.90382321 -2.19717885 15.43348392     6     925    0    0    0
H -73.67425222 -0.96867336 12.42393248     6     925    0    0    0
C -73.97688777 -5.09532156 12.68628751     2     925    929    930    931
H -72.75122358 -6.49864450 13.24286782     6     928    0    0    0
H -75.82208589 -5.39392420 13.45151692     6     928    0    0    0
C -74.31240144 -5.42799482 9.80478264     2     928    932   933   934
H -75.43095966 -3.80006486 9.08324317     6     931    0    0    0
H -72.35293174 -5.28399021 9.21427008     6     931    0    0    0
C -75.16200339 -7.96633612 9.01939415     2     931   935   936   937
H -73.53285354 -9.11615471 9.19270716     6    934    0    0    0
H -76.61957269 -8.65244633 10.33933954     6    934    0    0    0
C -75.86019236 -7.78999893 6.24628513     2    934   938   939   940
H -77.38337111 -6.49915758 5.89334176     6    937    0    0    0
H -74.20222500 -7.06178444 5.14461893     6    937    0    0    0
C -76.67810651 -10.28105677 4.99170832     2    937   941   942   943
H -75.49002527 -11.83513998 5.58884697     6    940    0    0    0
H -78.54584091 -10.68021129 5.73102139     6    940    0    0    0
C -76.87366934 -10.45813959 2.15037052     2    940   944   945   946
H -75.07984734 -9.96923245 1.46071945     6    943    0    0    0
H -77.22328815 -12.47769702 1.46551371     6    943    0    0    0
C -79.12993994 -8.81755626 1.35035003     2    943   947   948   949
H -80.84980191 -9.23599295 2.18735550     6    946    0    0    0
H -78.49740793 -6.87668450 2.02033823     6    946    0    0    0
C -79.70668239 -8.75270393 -1.45925760     2    946   950   951   952
H -78.14647123 -8.46850323 -2.68330110     6    949    0    0    0
H -80.34730312 -10.72592720 -2.03996528     6    949    0    0    0
C -81.86439114 -7.11962514 -2.05132538     2    949   953   954   955
H -83.39270718 -7.36678241 -0.54700631     6    952    0    0    0
H -81.04376324 -5.32981587 -1.71989453     6    952    0    0    0
C -82.72386749 -7.25329353 -4.86553202     2    952   956   957   958
H -81.03441283 -7.69674747 -6.06692124     6    955    0    0    0
H -83.92871029 -8.87444101 -5.14633518     6    955    0    0    0
C -84.16498941 -4.93578232 -5.97259432     1    955   959   960   961
H -84.71292823 -5.32026680 -7.94969020     6    958    0    0    0
H -83.21086441 -3.08339795 -5.84662041     6    958    0    0    0
H -85.89189362 -4.84344606 -4.99147914     6    958    0    0    0
H -62.19576753 -41.49887742 -0.72710852     6     963    0    0    0 
C -63.22480093 -40.23411144 0.61937957     1     962    964    965    966
H -62.47352163 -38.23721884 0.62512598     6     963    0    0    0
H -65.24921983 -40.45214222 0.49614768     6     963    0    0    0
C -62.44553885 -41.52442433 3.00291307     2     963    967    968    969
H -62.97535484 -40.29319081 4.71584034     6     966    0    0    0
H -63.23640429 -43.45545872 3.25922900     6     966    0    0    0
C -59.58311810 -41.91245810 3.35750653     2     966    970   971   972
H -58.90183887 -43.08491636 1.90192215     6     969    0    0    0
H -58.61710780 -40.17687583 2.97786658     6     969    0    0    0
C -58.91082819 -42.80472250 6.03675518     2     969   973   974   975
H -59.57526743 -41.31534210 7.28329317     6    972    0    0    0
H -59.62575647 -44.55113161 6.50499724     6    972    0    0    0
C -55.98360223 -43.00996884 6.17673863     2    972   976   977   978
H -55.29451290 -44.05630826 4.42278751     6    975    0    0    0
H -55.27643416 -41.13568650 6.12986814     6    975    0    0    0
C -55.23308972 -44.12843759 8.61543063     2    975   979   980   981
H -55.84999495 -43.07844919 10.29174430     6    978    0    0    0
H -56.00576225 -46.09640832 8.79115048     6    978    0    0    0
C -52.34134561 -44.34289602 8.87939063     2    978   982   983   984
H -51.44867657 -45.14168565 7.17434439     6    981    0    0    0
H -51.51664936 -42.45896777 8.82367649     6    981    0    0    0
C -51.62628907 -45.46387426 11.50260682     2    981   985   986   987
H -52.76634386 -44.52607254 12.98561356     6    984    0    0    0
H -52.25826104 -47.40203862 11.43279640     6    984    0    0    0
C -48.76253445 -45.34528913 12.03702650     2    984   988   989   990
H -48.18434166 -46.68076382 13.51511021     6    987    0    0    0
H -47.63760587 -46.01689232 10.31920900     6    987    0    0    0
C -47.67318924 -42.82678657 12.82285855     2    987   991   992   993
H -48.18334675 -41.52144255 11.36013797     6    990    0    0    0
H -48.71753300 -42.16868302 14.56604801     6    990    0    0    0
C -44.80999437 -42.80536143 13.05050306     2    990   994   995   996
H -44.15423982 -43.93589047 14.67660704     6    993    0    0    0
H -44.07568517 -43.99213344 11.38771622     6    993    0    0    0
C -43.44223175 -40.32358125 12.87501145     1    993   997   998   999
H -43.78389224 -39.55224336 11.04437267     6    996    0    0    0
H -41.40176284 -40.68724489 12.92008590     6    996    0    0    0
H -43.81087839 -38.92142188 14.37763627     6    996    0    0    0
H -78.37935512 -54.18232988 1.19393266     6     1001    0    0    0 
C -76.47574258 -53.36564844 0.95893400     1     1000    1002    1003    1004
H -76.32115066 -52.55659312 -0.79269258     6     1001    0    0    0
H -76.30607622 -51.97283175 2.36698347     6     1001    0    0    0
C -74.63065560 -55.52570726 1.09839897     2     1001    1005    1006    1007
H -74.88683288 -56.46090784 2.89558626     6     1004    0    0    0
H -74.93593494 -57.22792496 -0.14718268     6     1004    0    0    0
C -71.96220108 -54.42301208 1.04830167     2     1004    1008   1009   1010
H -71.55155553 -52.77902886 2.36159860     6     1007    0    0    0
H -70.63474837 -55.78055103 1.81031555     6     1007    0    0    0
C -71.23110278 -53.80877975 -1.61124882     2     1007   1011   1012   1013
H -71.77188956 -55.18582363 -2.96228344     6    1010    0    0    0
H -72.21847181 -52.05490004 -2.00967126     6    1010    0    0    0
C -68.35975577 -53.35387124 -1.72154178     2    1010   1014   1015   1016
H -67.69315955 -52.03168602 -0.26007483     6    1013    0    0    0
H -67.41110567 -55.11283827 -1.56366174     6    1013    0    0    0
C -67.26786848 -52.06598970 -4.22090448     2    1013   1017   1018   1019
H -67.26554340 -53.67664344 -5.49810623     6    1016    0    0    0
H -68.74858510 -50.82417005 -5.01562586     6    1016    0    0    0
C -64.87193292 -50.53180270 -3.79662455     2    1016   1020   1021   1022
H -65.35271934 -48.73674262 -3.21594111     6    1019    0    0    0
H -63.77408396 -51.25447817 -2.26023029     6    1019    0    0    0
C -62.98363552 -50.37696554 -6.08075646     2    1019   1023   1024   1025
H -63.30286494 -52.08978552 -7.21706431     6    1022    0    0    0
H -63.29254044 -48.70795092 -7.18283243     6    1022    0    0    0
C -60.13041531 -50.33903371 -5.13790909     2    1022   1026   1027   1028
H -60.26322410 -48.60501848 -4.06492257     6    1025    0    0    0
H -59.61646492 -51.90370081 -3.88754020     6    1025    0    0    0
C -58.33559605 -49.95522735 -7.31137936     2    1025   1029   1030   1031
H -58.53319439 -51.41260751 -8.87341055     6    1028    0    0    0
H -58.91472481 -48.20914177 -8.20958394     6    1028    0    0    0
C -55.51322874 -49.58079316 -6.56500059     2    1028   1032   1033   1034
H -55.26111892 -47.94706839 -5.22146932     6    1031    0    0    0
H -54.72757423 -51.12559744 -5.45611442     6    1031    0    0    0
C -53.50846457 -49.39741079 -8.69782023     1    1031   1035   1036   1037
H -53.53780067 -47.77332002 -9.93169896     6    1034    0    0    0
H -53.69316338 -50.98113884 -9.93387324     6    1034    0    0    0
H -51.66331376 -49.08997513 -7.96851562     6    1034    0    0    0
H -68.46282970 -29.25360842 28.88470342     6     1039    0    0    0 
C -69.70224427 -29.15491397 27.24217066     1     1038    1040    1041    1042
H -69.18159192 -27.56694634 26.00545862     6     1039    0    0    0
H -69.57098986 -31.19906933 26.59219327     6     1039    0    0    0
C -72.45493037 -28.82408594 28.42798450     2     1039    1043    1044    1045
H -72.36391521 -29.71855445 30.28725229     6     1042    0    0    0
H -72.78744303 -26.75142207 28.63668276     6     1042    0    0    0
C -74.64839217 -30.15887748 27.03373855     2     1042    1046   1047   1048
H -74.70991524 -29.39182399 25.12861583     6     1045    0    0    0
H -74.30681545 -32.16301002 27.08661080     6     1045    0    0    0
C -77.37276964 -29.43946113 27.99518724     2     1045   1049   1050   1051
H -77.89522326 -29.63660596 30.05222260     6    1048    0    0    0
H -77.66559004 -27.39164334 27.74955052     6    1048    0    0    0
C -79.45672007 -30.46581376 26.22617300     2    1048   1052   1053   1054
H -79.03645723 -29.85695103 24.41521256     6    1051    0    0    0
H -79.35823998 -32.49095871 26.21679900     6    1051    0    0    0
C -82.11174541 -29.53929097 26.82082289     2    1051   1055   1056   1057
H -83.18937524 -30.88093023 28.00258681     6    1054    0    0    0
H -82.01638990 -27.77449248 27.88826343     6    1054    0    0    0
C -83.72938354 -28.90288313 24.56191188     2    1054   1058   1059   1060
H -82.70565730 -27.60950313 23.37090768     6    1057    0    0    0
H -83.97532344 -30.59152375 23.42843402     6    1057    0    0    0
C -86.09096714 -27.74902215 25.26093418     2    1057   1061   1062   1063
H -87.30174497 -29.17764249 26.29044508     6    1060    0    0    0
H -85.92597038 -26.40144919 26.76528999     6    1060    0    0    0
C -87.44569925 -26.45599614 23.06044554     2    1060   1064   1065   1066
H -86.25738853 -25.22325643 21.96670071     6    1063    0    0    0
H -87.83944914 -27.78184182 21.61733448     6    1063    0    0    0
C -89.70976410 -24.80058978 23.80803821     2    1063   1067   1068   1069
H -91.19533273 -26.15170191 24.49241811     6    1066    0    0    0
H -89.22114645 -23.92701574 25.47572247     6    1066    0    0    0
C -90.65964076 -23.00908097 21.77130854     2    1066   1070   1071   1072
H -89.19801048 -21.93265226 20.96643655     6    1069    0    0    0
H -91.39537010 -23.98773665 20.13215566     6    1069    0    0    0
C -92.55768706 -20.83433226 22.56526842     1    1069   1073   1074   1075
H -92.82386970 -19.55936030 20.98954390     6    1072    0    0    0
H -91.83559300 -19.70648385 24.12821846     6    1072    0    0    0
H -94.44676508 -21.52280516 23.05743011     6    1072    0    0    0
[...]
 1803      H     -62.7361455300   -14.3550123700    25.9774449900
 1804      H     -65.6288753500   -15.2538194300    26.6194562800
 1805      C     -65.2845386000   -11.1872392700    26.5764007300
 1806      H     -66.8106835100   -10.7633096300    27.8712394800
 1807      H     -63.7220940900    -9.8736923800    27.0086234400
 1808      C     -65.8764832000   -10.8758277300    23.8786516100
 1809      H     -65.6958447600    -9.0211809200    23.1367740400
 1810      H     -64.4104302900   -11.8978372300    22.9266351700
 1811      C     -68.5805655800   -11.6807307400    23.1249847600
 1812      H     -69.5231742400   -13.1326837400    24.3893801900
 1813      H     -69.9494961700   -10.0406403300    23.2631842300
 1814      C     -68.9089210500   -12.8030369800    20.4581854500
 1815      H     -69.0525167700   -11.2438977600    19.0657693500
 1816      H     -67.3329342500   -14.0539229300    20.0488338400
 1817      C     -71.3044223400   -14.4689352900    20.3668146800
 1818      H     -71.0733118100   -15.9590147200    21.7765396900
 1819      H     -73.2164694400   -13.6669504500    20.6807960400
 1820      C     -71.3866949900   -15.6919741800    17.8433346200
 1821      H     -71.7023458700   -14.1791242500    16.5039803000
 1822      H     -69.5436095200   -16.7398078000    17.5240423800
 1823      C     -73.3041475100   -17.8201473000    17.5558833800
 1824      H     -72.5844095500   -19.1361124700    18.6534395300
 1825      H     -75.1918392900   -17.4180850900    18.2834139500
 1826      C     -73.1538143800   -18.9243484000    14.8144766700
 1827      H     -73.3832085900   -17.3513965300    13.6196871500
 1828      H     -71.2577595000   -19.7285980100    14.6298738800
 1829      C     -75.2411558400   -20.8932710700    13.9741915000
 1830      H     -75.5307358500   -22.4680054500    15.4093588100
 1831      H     -77.0395108200   -19.9904390500    13.8273368000
 1832      C     -74.5605037900   -22.2134711200    11.4880608300
 1833      H     -75.8791102600   -23.7575195700    11.2212237000
 1834      H     -72.7145237500   -22.9796393300    11.5351811300
 1835      H     -74.7525726700   -20.9071013300    10.0583521900
 1836      H     -65.4566701400   -23.4353447700    10.1700852600
 1837      C     -63.8489553800   -22.6672306900    11.2158985000
 1838      H     -64.0806568100   -22.8774745900    13.1800223300
 1839      H     -62.1265178400   -23.6964438600    10.5210046400
 1840      C     -63.3837084900   -19.7742934400    10.5377349300
 1841      H     -62.5157636100   -18.8463844000    12.1175899100
 1842      H     -62.1978274500   -19.6471555300     8.8956091200
 1843      C     -65.9677368700   -18.3513936000    10.2231059000
 1844      H     -66.8822488900   -18.9817219700     8.3836008700
 1845      H     -67.0999438300   -18.9988742300    11.8921585900
 1846      C     -65.6988534800   -15.4134552700    10.2935252900
 1847      H     -64.2703106100   -14.8636363900    11.7637620000
 1848      H     -65.0035054300   -14.6625908200     8.6229174000
 1849      C     -68.1847101100   -14.0484351900    10.6464912300
 1850      H     -69.7839733400   -14.6219944900     9.3280233000
 1851      H     -69.1472619900   -14.6004539900    12.3801790300
 1852      C     -67.7528047800   -11.2610071000    10.4622928100
 1853      H     -66.9404585300   -10.5632893500     8.7579824700
 1854      H     -69.6390073800   -10.5639007900    10.8123761200
 1855      C     -66.1072182700   -10.0721409300    12.5524382600
 1856      H     -66.5823210800   -10.8644736500    14.3794316100
 1857      H     -64.2171968600   -10.3942759100    12.1719093200
 1858      C     -66.4691361100    -7.2145630800    12.5825595200
 1859      H     -66.0496889600    -6.3835107100    10.6285485500
 1860      H     -68.5316026200    -6.7784321500    12.9892985100
 1861      C     -64.7959582500    -5.9922364400    14.6421806500
 1862      H     -65.0557946900    -7.1293859100    16.3224334500
 1863      H     -62.8131493800    -5.9451875700    13.9996548500
 1864      C     -65.6026318300    -3.4160895900    15.6561599000
 1865      H     -67.5236228500    -3.4374738500    16.2629098400
 1866      H     -64.5870872100    -2.9681597000    17.3648673200
 1867      C     -65.6484317900    -1.3319948700    13.7202445800
 1868      H     -63.9958223600    -1.7122001400    12.6908966800
 1869      H     -67.0921170000    -1.5920384800    12.2595484000
 1870      C     -66.1458276400     1.2628994100    14.7009116700
 1871      H     -65.3165023900     2.6403019800    13.3758868500
 1872      H     -65.0182035200     1.4601087700    16.3588432300
 1873      H     -68.0977007200     1.7761188400    15.1174995700
 1874      H     -46.8628019000   -28.5159797000    24.0978575800
 1875      C     -46.9878109800   -28.3346630400    21.9046388800
 1876      H     -48.2411391800   -26.6229639700    21.5047903900
 1877      H     -45.0999774400   -28.1336702100    21.0988638800
 1878      C     -48.0480878300   -30.5409649700    20.6725259100
 1879      H     -47.3511189700   -32.2682700600    21.5583886200
 1880      H     -49.9972421500   -30.4576965300    21.1789869900
 1881      C     -47.8565824100   -30.7827404600    17.9257599600
 1882      H     -48.7055972100   -29.1956111000    16.9460944900
 1883      H     -45.9581546800   -30.9536200100    17.2879344700
 1884      C     -49.2228025000   -33.2324802800    17.2477581400
 1885      H     -48.0088851200   -34.8951570600    17.5155915500
 1886      H     -50.8580100400   -33.7069015200    18.2260944500
 1887      C     -49.5453871500   -33.4027422500    14.3617247300
 1888      H     -50.5330397400   -31.8149476200    13.6843587700
 1889      H     -47.5879306600   -33.0995747100    13.5092966100
 1890      C     -50.8247235500   -35.7738320000    13.5079158000
 1891      H     -50.8970557700   -36.0807112400    11.5577116900
 1892      H     -49.7998545300   -37.3965124600    14.2918675000
 1893      C     -53.4583906900   -35.7418185600    14.3925766100
 1894      H     -53.6676812700   -35.2008367400    16.3211514200
 1895      H     -54.4277170100   -34.1198460400    13.4324071300
 1896      C     -54.7820843400   -38.0540027500    13.7820976000
 1897      H     -55.1662228200   -38.0934533000    11.7755701300
 1898      H     -53.5009345000   -39.5659313300    14.4196726000
 1899      C     -57.4096323400   -38.2259956600    15.3693665300
 1900      H     -57.1914730900   -38.3351968500    17.3619966200
 1901      H     -58.3149003800   -36.3830598900    15.1858192300
 1902      C     -59.4900598600   -39.8912418800    14.1460547400
 1903      H     -59.6989571900   -39.4358695600    12.2616408100
 1904      H     -58.8856563600   -41.9293236700    14.1408420600
 1905      C     -62.0852805000   -39.6207289500    15.5259946200
 1906      H     -61.8128623500   -40.0211670200    17.6375426700
 1907      H     -62.7462630000   -37.6661224900    15.6072518800
 1908      C     -64.0009164300   -41.4295371900    14.4965609200
 1909      H     -65.5921321200   -41.3915986700    15.8171419800
 1910      H     -63.3382114400   -43.3161907400    14.5017630400
 1911      H     -64.3925214900   -41.0682398700    12.5194546900
 ----------------------------------------------------------------
 Nuclear Repulsion Energy =           0.00000000 hartrees
 There are     2498 alpha and     2498 beta electrons

 Total QAlloc Memory Limit   2000 MB
 Mega-Array Size       204 MB
 MEM_STATIC part       192 MB
   **** Step 1: MM calculation on the entire system **** 
 OPLSAA force field loaded.
Reading user-defined FF parameters...
 Reading user defined atom types.
 Found 3 user defined AtomTypes
finished.
Determining angles, torsions, etc. from user defined input
Determining VDW/Coulomb pairs... (useList = 0)

 Time req'd to get MM system information: 0.2 s (CPU) 0.3 s (wall)

 ------ MM Energies ------
   Ebond:           586.256898990763
   Eangle:          889.113803146488
   EUreyBrad:         0.000000000000
   Eimptors:          0.000000000000
   Etorsion:        227.360449109180
   Evdw:        1213640.697747028200
   Ecoulomb:        184.706172223052
   Etot:        1215528.135070497636 Kcal/mol (   1937.067392996364 hartree)
 -------------------------
 Time req'd to calc MM energy: 0.1 s (CPU) 0.1 s (wall)
 OPLSAA force field loaded.
Reading user-defined FF parameters...
 Reading user defined atom types.
 Found 3 user defined AtomTypes
finished.
 Time req'd to get MM system information: 0.0 s (CPU) 0.0 s (wall)
 Time req'd to calc MM gradient: 0.2 s (CPU) 0.2 s (wall)
   **** Step 2: MM calculation on the model system **** 
 Reading user defined atom types.
 Found 3 user defined AtomTypes
 ----------------------------------------------------------------
             Standard Nuclear Orientation (Bohr)
    I     Atom           X                Y                Z
 ----------------------------------------------------------------
    1      Fe    -57.6434509800   -28.7208441400     8.1421958200
    2      C     -57.9050374900   -32.1662087600     8.1968920400
    3      C     -58.2248108400   -26.9182706800    10.9064430200
    4      C     -56.7083876600   -27.3998631200     5.1538292300
    5      C     -61.0055020500   -28.4371072500     7.4406007700
    6      C     -54.2804699300   -28.6829084100     8.9512355400
    7      O     -57.7506946800   -34.3689752000     8.1264159800
    8      O     -58.5330634700   -25.7484840000    12.6948190200
    9      O     -55.8855623500   -26.7912254000     3.2489832900
   10      O     -63.1933911800   -28.2181344000     7.1266654400
   11      O     -52.2386250900   -28.4442893000     9.6887137200
 ----------------------------------------------------------------
 Nuclear Repulsion Energy =         800.81685159 hartrees
 There are       48 alpha and       48 beta electrons
 OPLSAA force field loaded.
Reading user-defined FF parameters...
 Reading user defined atom types.
 Found 3 user defined AtomTypes
finished.
Determining VDW/Coulomb pairs... (useList = 0)

 No MM bonds in system. Return all possible pairs.
 Time req'd to get MM system information: 0.0 s (CPU) 0.0 s (wall)

 ------ MM Energies ------
   Ebond:             0.000000000000
   Eangle:            0.000000000000
   EUreyBrad:         0.000000000000
   Eimptors:          0.000000000000
   Etorsion:          0.000000000000
   Evdw:        1214088.312760382425
   Ecoulomb:         -6.558871050816
   Etot:        1214081.753889331594 Kcal/mol (   1934.762437855431 hartree)
 -------------------------
 Eold: 1937.0673930 mm_energy: 1934.7624379 Enew:    2.3049551
 Time req'd to calc MM energy: 0.0 s (CPU) 0.0 s (wall)
 OPLSAA force field loaded.
Reading user-defined FF parameters...
 Reading user defined atom types.
 Found 3 user defined AtomTypes
finished.
Determining VDW/Coulomb pairs... (useList = 0)

 No MM bonds in system. Return all possible pairs.
 Time req'd to get MM system information: 0.0 s (CPU) 0.0 s (wall)
 Number of fixed atoms: 0
 Time req'd to calc MM gradient: 0.0 s (CPU) 0.0 s (wall)
   **** Step 3: QM calculation on the model system **** 
 Requested basis set is def2-mSVP
 There are 80 shells and 174 basis functions

                       Distance Matrix (Bohrs)
             Fe(  1)   C (  2)   C (  3)   C (  4)   C (  5)   C (  6)
   C (  2)  3.455714
   C (  3)  3.350867  5.914793
   C (  4)  3.398480  5.780160  5.968587
   C (  5)  3.446176  4.908264  4.695867  4.976986
   C (  6)  3.459137  5.083297  4.742848  4.686287  6.896992
   O (  7)  5.649171  2.209291  7.966576  7.647954  6.800821  6.712238
   O (  8)  5.509330  7.862122  2.159099  7.932403  6.399098  6.380424
   O (  9)  5.545911  7.579613  8.007803  2.162387  6.818531  6.218558
   O ( 10)  5.664438  6.685758  6.376767  6.827659  2.221118  9.109623
   O ( 11)  5.628529  6.941646  6.296508  6.452502  9.050536  2.184020
             O (  7)   O (  8)   O (  9)   O ( 10)
   O (  8)  9.787506
   O (  9)  9.202737  9.865109
   O ( 10)  8.273771  7.669561  8.395049
   O ( 11)  8.241698  7.478234  7.583067 11.252650

 A cutoff of  1.0D-11 yielded   2492 shell pairs
 There are     12846 function pairs (     14706 Cartesian)
 Smallest overlap matrix eigenvalue = 2.50E-03
 Guess MOs from SCF MO coefficient file
 Reading MOs from coefficient file
 Reading MOs from coefficient file
 A restricted Kohn-Sham SCF calculation will be
 performed using Pulay DIIS extrapolation
 Exchange:  B88      Correlation:  P86
 Using SG-1 standard quadrature grid
 SCF converges when DIIS error is below 1.0E-08
 Using Q-Chem read-in guess as SCF_GUESS READ specified.

 using 2 threads for integral computing
 -------------------------------------------------------
 OpenMP Integral computing Module                
 Release: version 1.0, May 2013, Q-Chem Inc. Pittsburgh 
 -------------------------------------------------------
 ---------------------------------------
  Cycle       Energy         DIIS Error
 ---------------------------------------
    1   -1830.5234276014      1.57E-09
    2   -1830.5234276018      1.50E-08
    3   -1830.5234276016      2.38E-09 Convergence criterion met
 ---------------------------------------
 SCF time:  CPU 3.91 s  wall 2.05 s
 E(QM + QM/MM):    -1830.5234276016 E(MM):    2.3049551 E(Tot): -1828.218472460623 
 SCF   energy in the final basis set = -1828.21847246
 Total energy in the final basis set = -1828.21847246

 --------------------------------------------------------------

                    Orbital Energies (a.u.)
 --------------------------------------------------------------

 Alpha MOs
 -- Occupied --
******** -29.6333 -25.5933 -25.5793 -25.5774 -18.8894 -18.8869 -18.8754
-18.8736 -18.8730 -10.0582 -10.0562 -10.0398 -10.0384 -10.0358  -3.3175
 -2.1528  -2.1276  -2.1222  -1.0663  -1.0595  -1.0586  -1.0529  -1.0429
 -0.5711  -0.5279  -0.5163  -0.5144  -0.5122  -0.4568  -0.4467  -0.4419
 -0.4336  -0.4312  -0.4302  -0.4250  -0.4210  -0.4175  -0.4108  -0.4090
 -0.4087  -0.3977  -0.3958  -0.3809  -0.2752  -0.2700  -0.2261  -0.2249
 -- Virtual --
 -0.0988  -0.0859  -0.0845  -0.0791  -0.0717  -0.0650  -0.0608  -0.0552
 -0.0437  -0.0302  -0.0206   0.0117   0.1885   0.2199   0.2242   0.2664
  0.2964   0.3283   0.3544   0.3989   0.4091   0.4290   0.4321   0.4377
  0.4438   0.4726   0.5013   0.5033   0.5247   0.5657   0.5740   0.5888
  0.6185   0.6372   0.6444   0.6499   0.7376   0.7524   0.7575   0.7652
  0.7757   0.8301   0.8383   0.8563   0.8889   0.8978   0.9486   0.9585
  0.9735   0.9843   0.9906   0.9978   1.0147   1.0219   1.0347   1.0632
  1.2221   1.2738   1.3004   1.3117   1.4041   1.4057   1.4129   1.4153
  1.4201   1.4224   1.4238   1.4321   1.4469   1.4594   1.4751   1.4935
  1.5117   1.5287   1.5490   1.5731   1.5977   1.6470   1.6653   1.6871
  1.6916   1.8241   1.8283   1.8342   1.8487   1.8503   1.8524   1.8598
  1.8635   1.8724   1.8781   1.8900   1.8951   1.9013   1.9065   1.9585
  2.3738   2.4252   2.4332   2.4728   2.4743   2.4800   2.4859   2.4953
  2.5050   2.5259   2.6556   2.6618   2.6706   2.6768   2.6826   2.8170
  2.8291   2.9124   2.9326   2.9800  13.2665  13.3096  13.3147  13.3368
 13.4576  24.9303  24.9369  24.9558  24.9705  25.0315
 --------------------------------------------------------------

          Ground-State Mulliken Net Atomic Charges

     Atom                 Charge (a.u.)
  ----------------------------------------
      1 Fe                   -0.505317
      2 C                     0.230057
      3 C                     0.193801
      4 C                     0.210342
      5 C                     0.206944
      6 C                     0.202715
      7 O                    -0.120137
      8 O                    -0.100519
      9 O                    -0.099641
     10 O                    -0.119121
     11 O                    -0.099124
  ----------------------------------------
  Sum of atomic charges =     0.000000

 -----------------------------------------------------------------
                    Cartesian Multipole Moments
 -----------------------------------------------------------------
    Charge (ESU x 10^10)
                -0.0000
    Dipole Moment (Debye)
         X       0.0150003732      Y       0.1408237806      Z      -0.0915215554
       Tot       0.1686195228
    Quadrupole Moments (Debye-Ang)
        XX     -69.6200     XY      -4.4828     YY     -74.0814
        XZ       3.2575     YZ       1.4214     ZZ     -70.4729
    Octopole Moments (Debye-Ang^2)
       XXX    6326.1423    XXY    1184.2314    XYY    2260.1694
       YYY    3291.2495    XXZ    -409.9176    XYZ     -48.6684
       YYZ    -324.7222    XZZ    2149.1727    YZZ    1061.5652
       ZZZ    -905.5663
    Hexadecapole Moments (Debye-Ang^3)
      XXXX -385779.8536   XXXY  -99808.6925   XXYY  -84981.0036
      XYYY -100338.1923   YYYY -100028.3320   XXXZ   30976.8859
      XXYZ    6134.8084   XYYZ    9952.2182   YYYZ   14165.0748
      XXZZ  -67062.0435   XYZZ  -32361.4035   YYZZ  -17513.7841
      XZZZ   27598.9112   YZZZ   13626.4129   ZZZZ   -8447.5344
 -----------------------------------------------------------------
 Calculating MO derivatives via CPSCF
 Full subspace dimension requested for CIS/TDDFT
 MAX_CIS_SUBSPACE fits in available memory
    1     0    36    0.0407340  
    2     0    36    0.0065881  
    3     0    36    0.0007836  
    4     1    35    0.0000536  
    5    33     3    0.0000017  
    6    36     0    0.0000000  Converged
 Time for AOints: 6.7 s (CPU) 3.4 s (wall)
 ------------------------------------------------------------------------------
                     AOints        : Timing summary (seconds)
 ------------------------------------------------------------------------------
     job step          cpu (% of tot)      sys (% of tot)     wall (% of tot)
 ------------------------------------------------------------------------------
  AOints            0.6682E+01 ( 3.8)   0.1300E-04 (13.3)   0.3412E+01 ( 3.8)
 ------------------------------------------------------------------------------
   Grand Totals     0.1774E+03          0.9800E-04          0.8934E+02
 ------------------------------------------------------------------------------
 Polarizability Matrix (a.u.)
            1           2           3
    1-101.4937711  -0.1046641  -1.2481321
    2  -0.1046641 -84.6235666  -3.4411592
    3  -1.2481321  -3.4411592 -86.5634620
 Derivative of Dipole Moment Matrix (a.u.)
            1           2           3
    1  -1.9241361  -0.0028021  -0.0273011
    2   0.0723937  -1.8525774  -0.0138172
    3   0.0098379  -0.0397255  -1.8947443
    4   0.3988298  -0.0746091   0.0062488
    5   0.0512657   2.3768775   0.0028647
    6   0.0007887   0.0410759   0.4166293
    7   0.4130630  -0.1498009  -0.2654401
    8  -0.1820180   1.0330098   0.9034564
    9  -0.2938175   0.9011238   1.8067986
   10   0.6018654   0.2709789  -0.6353779
   11   0.1659116   0.6367953  -0.5546004
   12  -0.4930144  -0.6297936   1.9717141
   13   2.1790325  -0.1850354   0.3374779
   14  -0.1853247   0.4552797  -0.0549391
   15   0.2740793  -0.0445881   0.4755611
   16   2.0897439   0.0492493   0.4770451
   17   0.1514573   0.4397557   0.0319778
   18   0.5227057   0.0105232   0.5495415
   19  -0.1554154   0.1170892   0.0025069
   20  -0.0684520  -1.7612456   0.0064153
   21   0.0025470  -0.0511230  -0.1799722
   22  -0.1806086   0.1186814   0.1974219
   23   0.1467099  -0.6539352  -0.7163592
   24   0.2347103  -0.7149536  -1.2646706
   25  -0.3292655  -0.2327894   0.5560496
   26  -0.1323210  -0.3409621   0.4031605
   27   0.4152845   0.5179850  -1.4155406
   28  -1.5920932   0.1396729  -0.2758059
   29   0.1478199  -0.1741950   0.0337902
   30  -0.2031358   0.0240917  -0.1943341
   31  -1.5010159  -0.0506348  -0.3728251
   32  -0.1674424  -0.1588026  -0.0419489
   33  -0.4699856  -0.0146158  -0.2709828
 -----------------------------------------
 Net:  -0.00000  -0.00000  -0.00000
 -----------------------------------------

 Calculating analytic Hessian of the SCF energy
