                  Welcome to Q-Chem
     A Quantum Leap Into The Future Of Chemistry


 Q-Chem 5.4 (devel), Q-Chem, Inc., Pleasanton, CA (2021)

 E. Epifanovsky,  A. T. B. Gilbert,  Xintian Feng,  Joonho Lee,  Yuezhi Mao,  
 N. Mardirossian,  P. Pokhilko,  A. White,  M. Wormit,  M. P. Coons,  
 A. L. Dempwolff,  Zhengting Gan,  D. Hait,  P. R. Horn,  L. D. Jacobson,  
 I. Kaliman,  J. Kussmann,  A. W. Lange,  Ka Un Lao,  D. S. Levine,  Jie Liu,  
 S. C. McKenzie,  A. F. Morrison,  K. Nanda,  F. Plasser,  D. R. Rehn,  
 M. L. Vidal,  Zhi-Qiang You,  Ying Zhu,  B. Alam,  B. Albrecht,  
 A. Aldossary,  E. Alguire,  J. H. Andersen,  D. Barton,  K. Begam,  A. Behn,  
 Y. A. Bernard,  E. J. Berquist,  H. Burton,  A. Carreras,  K. Carter-Fenk,  
 R. Chakraborty,  A. D. Chien,  K. D. Closser,  V. Cofer-Shabica,  
 S. Dasgupta,  Jia Deng,  M. de Wergifosse,  M. Diedenhofen,  Hainam Do,  
 S. Ehlert,  Po-Tung Fang,  S. Fatehi,  Qingguo Feng,  T. Friedhoff,  
 J. Gayvert,  Qinghui Ge,  G. Gidofalvi,  M. Goldey,  J. Gomes,  
 C. Gonzalez-Espinoza,  S. Gulania,  A. Gunina,  M. W. D. Hanson-Heine,  
 P. H. P. Harbach,  A. W. Hauser,  M. F. Herbst,  M. Hernandez Vera,  
 M. Hodecker,  Z. C. Holden,  S. Houck,  Xunkun Huang,  Kerwin Hui,  
 B. C. Huynh,  M. Ivanov,  Hyunjun Ji,  Hanjie Jiang,  B. Kaduk,  S. Kaehler,  
 K. Khistyaev,  Jaehoon Kim,  P. Klunzinger,  Z. Koczor-Benda,  
 Joong Hoon Koh,  D. Kosenkov,  L. Koulias,  T. Kowalczyk,  C. M. Krauter,  
 K. Kue,  A. Kunitsa,  T. Kus,  A. Landau,  K. V. Lawler,  D. Lefrancois,  
 S. Lehtola,  Rain Li,  Yi-Pei Li,  Jiashu Liang,  M. Liebenthal,  
 Hung-Hsuan Lin,  You-Sheng Lin,  Fenglai Liu,  Kuan-Yu Liu,  
 M. Loipersberger,  A. Luenser,  A. Manjanath,  P. Manohar,  E. Mansoor,  
 S. F. Manzer,  Shan-Ping Mao,  A. V. Marenich,  T. Markovich,  S. Mason,  
 S. A. Maurer,  P. F. McLaughlin,  M. F. S. J. Menger,  J.-M. Mewes,  
 S. A. Mewes,  P. Morgante,  J. W. Mullinax,  K. J. Oosterbaan,  G. Paran,  
 Alexander C. Paul,  Suranjan K. Paul,  F. Pavosevic,  Zheng Pei,  S. Prager,  
 E. I. Proynov,  E. Ramos,  B. Rana,  A. E. Rask,  A. Rettig,  R. M. Richard,  
 F. Rob,  E. Rossomme,  T. Scheele,  M. Scheurer,  M. Schneider,  
 N. Sergueev,  S. M. Sharada,  W. Skomorowski,  D. W. Small,  C. J. Stein,  
 Yu-Chuan Su,  E. J. Sundstrom,  Zhen Tao,  J. Thirman,  T. Tsuchimochi,  
 N. M. Tubman,  S. P. Veccham,  O. Vydrov,  J. Wenzel,  J. Witte,  A. Yamada,  
 Kun Yao,  S. Yeganeh,  S. R. Yost,  A. Zech,  Igor Ying Zhang,  Xing Zhang,  
 Yu Zhang,  D. Zuev,  A. Aspuru-Guzik,  A. T. Bell,  N. A. Besley,  
 K. B. Bravaya,  B. R. Brooks,  D. Casanova,  Jeng-Da Chai,  S. Coriani,  
 C. J. Cramer,  A. E. DePrince, III,  R. A. DiStasio Jr.,  A. Dreuw,  
 B. D. Dunietz,  T. R. Furlani,  W. A. Goddard III,  S. Grimme,  
 S. Hammes-Schiffer,  T. Head-Gordon,  W. J. Hehre,  Chao-Ping Hsu,  
 T.-C. Jagau,  Yousung Jung,  A. Klamt,  Jing Kong,  D. S. Lambrecht,  
 WanZhen Liang,  N. J. Mayhall,  C. W. McCurdy,  J. B. Neaton,  
 C. Ochsenfeld,  J. A. Parkhill,  R. Peverati,  V. A. Rassolov,  Yihan Shao,  
 L. V. Slipchenko,  T. Stauch,  R. P. Steele,  J. E. Subotnik,  
 A. J. W. Thom,  A. Tkatchenko,  D. G. Truhlar,  T. Van Voorhis,  
 T. A. Wesolowski,  K. B. Whaley,  H. L. Woodcock III,  P. M. Zimmerman,  
 S. Faraji,  P. M. W. Gill,  M. Head-Gordon,  J. M. Herbert,  A. I. Krylov

 Additional authors for Version 5.4.1: 
 S. Kotaru,  Shaozhi Li,  Xiangyuan Li,  F. Matz,  A. Molle,  Haisheng Ren,  
 Yingli Su,  Hung-Yi Tsai,  C. Utku,  Fang Wang

 Contributors to earlier versions of Q-Chem not listed above: 
 R. D. Adamson,  B. Austin,  R. Baer,  J. Baker,  G. J. O. Beran,  
 K. Brandhorst,  S. T. Brown,  E. F. C. Byrd,  A. K. Chakraborty,  
 G. K. L. Chan,  Chun-Min Chang,  Yunqing Chen,  C.-L. Cheng,  
 Siu Hung Chien,  D. M. Chipman,  D. L. Crittenden,  H. Dachsel,  
 R. J. Doerksen,  A. D. Dutoi,  R. G. Edgar,  J. Fosso-Tande,  
 L. Fusti-Molnar,  D. Ghosh,  A. Ghysels,  A. Golubeva-Zadorozhnaya,  
 J. Gonthier,  M. S. Gordon,  S. R. Gwaltney,  G. Hawkins,  J. E. Herr,  
 A. Heyden,  S. Hirata,  E. G. Hohenstein,  G. Kedziora,  F. J. Keil,  
 C. Kelley,  Jihan Kim,  R. A. King,  R. Z. Khaliullin,  P. P. Korambath,  
 W. Kurlancheek,  A. Laurent,  A. M. Lee,  M. S. Lee,  S. V. Levchenko,  
 Ching Yeh Lin,  D. Liotard,  E. Livshits,  R. C. Lochan,  I. Lotan,  
 L. A. Martinez-Martinez,  P. E. Maslen,  N. Nair,  D. P. O'Neill,  
 D. Neuhauser,  E. Neuscamman,  C. M. Oana,  R. Olivares-Amaya,  R. Olson,  
 T. M. Perrine,  B. Peters,  P. A. Pieniazek,  A. Prociuk,  Y. M. Rhee,  
 J. Ritchie,  M. A. Rohrdanz,  E. Rosta,  N. J. Russ,  H. F. Schaefer III,  
 M. W. Schmidt,  N. E. Schultz,  S. Sharma,  N. Shenvi,  C. D. Sherrill,  
 A. C. Simmonett,  A. Sodt,  T. Stein,  D. Stuck,  K. S. Thanthiriwatte,  
 V. Vanovschi,  L. Vogt,  Tao Wang,  A. Warshel,  M. A. Watson,  
 C. F. Williams,  Q. Wu,  X. Xu,  Jun Yang,  W. Zhang,  Yan Zhao

 Please cite Q-Chem as follows:
 Y. Shao et al., Mol. Phys. 113, 184-215 (2015)
 DOI: 10.1080/00268976.2014.952696

 Q-Chem 5.4.1 for Intel X86 EM64T Linux

 Parts of Q-Chem use Armadillo 9.900.5 (Nocturnal Misbehaviour).
 http://arma.sourceforge.net/

 Q-Chem begins on Wed Jun 22 16:37:42 2022  

 Host: p09r16n03.grace.hpc.yale.internal
0

     Scratch files written to /home/tl686/scratch60/qchem_dev/scratch/qchem215427//
 Processing $rem in /home/tl686/qchem_dev/qchem/config/preferences:
 Processing $rem in /home/tl686/.qchemrc:
Applying user defined connections for MM calculations

 Checking the input file for inconsistencies... 	...done.

--------------------------------------------------------------
User input:
--------------------------------------------------------------
$molecule
0   1
 Fe 931.12892864 -53.25692929 71.39699423    -1  0   0   0   0
C 929.47246960 -54.37105443 74.03822989    -2  0   0   0   0 
C 929.97319995 -53.52697350 68.26872280    -2  0   0   0   0
C 934.53754949 -52.18375415 72.16039541    -2  0   0   0   0
C 931.92196195 -56.80849493 71.20905287    -2  0   0   0   0
C 929.88841352 -50.05659830 71.79355090    -2  0   0   0   0
O 928.53021752 -55.15067417 75.92506802    -3  0   0   0   0
O 929.41835206 -54.11532305 66.24073056    -3  0   0   0   0 
O 936.48477126 -51.82717869 72.80135311    -3  0   0   0   0
O 932.26739838 -58.93149257 71.32179346    -3  0   0   0   0 
O 929.10489970 -48.08205628 71.97169203    -3  0   0   0   0
H 946.42828391 -68.53270806 93.57918379      6     13    0    0    0 
C 944.35357637 -69.00894192 94.15224401     1     12    14    15    16
H 944.46361897 -69.27989672 96.30130110     6     13    0    0    0
H 943.28169004 -67.15916313 94.00098423     6     13    0    0    0
C 943.27251927 -71.32716683 92.95544795     2     13    17    18    19
H 944.70122631 -72.72532817 93.06785374     6     16    0    0    0
H 941.74067056 -72.09775810 93.93597777     6     16    0    0    0
C 942.46388321 -70.55186724 90.18886673     2     16    20   21   22
H 941.14207061 -68.94258547 90.21933946     6     19    0    0    0
H 944.11172405 -69.76508224 89.17843805     6     19    0    0    0
C 941.29259835 -72.81810245 88.60544777     2     19   23   24   25
H 942.63153759 -74.31731674 88.38912079     6    22    0    0    0
H 939.86381829 -73.48802123 89.85420931     6    22    0    0    0
C 939.72843049 -72.07134782 86.34553915     2    22   26   27   28
H 938.27916952 -70.78603938 86.79455784     6    25    0    0    0
H 941.11341476 -71.33622947 84.93865128     6    25    0    0    0
C 938.61118497 -74.70014098 85.23662022     2    25   29   30   31
H 939.96405766 -75.86111386 84.33853066     6    28    0    0    0
H 937.86130608 -75.84008618 86.75767687     6    28    0    0    0
C 936.52177840 -74.25692890 83.12975676     2    28   32   33   34
H 934.72855733 -73.42379717 83.90526668     6    31    0    0    0
H 937.36662615 -72.69271744 81.98557130     6    31    0    0    0
C 935.64393020 -76.58167933 81.71357356     2    31   35   36   37
H 937.36390532 -77.59739416 80.91615648     6    34    0    0    0
H 934.75070320 -77.80810526 83.11324267     6    34    0    0    0
C 933.49781587 -76.00719081 79.85121956     2    34   38   39   40
H 931.92427314 -75.21042383 80.93145562     6    37    0    0    0
H 934.12403347 -74.36257534 78.83059405     6    37    0    0    0
C 932.99689455 -78.32041832 78.18833646     2    37   41   42   43
H 934.66418973 -79.05529333 77.21119307     6    40    0    0    0
H 932.31894694 -79.94582741 79.53216059     6    40    0    0    0
C 930.97298016 -77.78370862 76.02064677     2    40   44   45   46
H 929.15020375 -77.92472404 77.10323875     6    43    0    0    0
H 931.32713880 -75.88691394 75.12472866     6    43    0    0    0
C 931.22616279 -79.64700031 73.64340520     1    43   47   48   49
H 933.07870162 -79.67794177 72.61233030     6    46    0    0    0
H 929.91545045 -79.06292718 72.32344646     6    46    0    0    0
H 930.88637045 -81.61739163 74.21121150     6    46    0    0    0
H 927.48470615 -67.54844484 70.60755119     6     51    0    0    0 
C 929.12991409 -67.65602194 71.63980086     1     50    52    53    54
H 930.48679419 -66.64230839 70.55587087     6     51    0    0    0
H 928.82904763 -66.43691369 73.20395453     6     51    0    0    0
C 929.91962598 -70.42175751 72.54278635     2     51    55    56    57
H 931.74643252 -70.54717512 73.46824390     6     54    0    0    0
H 928.53525058 -71.20177876 73.80136365     6     54    0    0    0
C 929.94658120 -72.17500609 70.30873843     2     54    58   59   60
H 930.55624113 -71.08332499 68.65545795     6     57    0    0    0
H 931.45224513 -73.60348428 70.47034671     6     57    0    0    0
C 927.31760730 -73.36172378 69.99583311     2     57   61   62   63
H 926.77579805 -74.78370930 71.47188194     6    60    0    0    0
H 925.93663319 -71.84009449 70.27844249     6    60    0    0    0
C 927.23392305 -74.38923567 67.36885612     2    60   64   65   66
H 927.71043515 -72.84607618 66.14426113     6    63    0    0    0
H 928.84391500 -75.70709804 67.07637576     6    63    0    0    0
C 924.73874966 -75.68262397 66.86323347     2    63   67   68   69
H 924.87472950 -77.08442622 65.45639722     6    66    0    0    0
H 924.10712964 -76.80277238 68.42813485     6    66    0    0    0
C 922.48749361 -73.80032054 66.42775221     2    66   70   71   72
H 921.61286422 -73.02616050 68.20451404     6    69    0    0    0
H 923.27800080 -72.03561382 65.79040959     6    69    0    0    0
C 920.49153150 -74.78435547 64.57593157     2    69   73   74   75
H 921.37038129 -74.57949734 62.71148590     6    72    0    0    0
H 920.05528562 -76.66329622 65.28467791     6    72    0    0    0
C 917.94051189 -73.37908696 64.66785609     2    72   76   77   78
H 917.24637204 -73.12553405 66.58537325     6    75    0    0    0
H 918.34212444 -71.54737739 63.84126930     6    75    0    0    0
C 915.65538295 -74.74190114 63.42340783     2    75   79   80   81
H 915.68293996 -74.75393499 61.26561920     6    78    0    0    0
H 915.79710193 -76.67260831 64.07734378     6    78    0    0    0
C 913.04332649 -73.85202922 64.52399063     2    78   82   83   84
H 912.93047679 -73.98774706 66.65877572     6    81    0    0    0
H 912.91795868 -71.86170896 64.05811537     6    81    0    0    0
C 910.70477898 -75.33328265 63.65194036     1    81   85   86   87
H 910.56776649 -75.80104260 61.53880237     6    84    0    0    0
H 909.19974165 -74.05340580 64.18046150     6    84    0    0    0
H 910.46788188 -77.09500814 64.52538181     6    84    0    0    0
H 956.98503037 -81.96949836 77.18222737     6     89    0    0    0 
C 955.88929578 -83.63602320 76.62947051     1     88    90    91    92
H 954.08104886 -82.81786802 76.14724082     6     89    0    0    0
H 956.51441431 -84.72741007 75.20182211     6     89    0    0    0
C 955.50660654 -85.43884763 78.78188135     2     89    93    94    95
H 957.23629235 -86.22751019 79.37763951     6     92    0    0    0
H 954.92854607 -84.35460383 80.57627115     6     92    0    0    0
C 953.56581002 -87.54719571 78.07781443     2     92    96   97   98
H 953.56408540 -88.04599032 76.15722485     6     95    0    0    0
H 954.27806725 -89.20601690 79.01878846     6     95    0    0    0
C 950.99405703 -86.73701892 79.07993857     2     95   99   100   101
H 951.26709703 -86.08404407 80.97804396     6    98    0    0    0
H 950.01712318 -85.13288613 78.13195742     6    98    0    0    0
C 949.08043311 -88.89478639 78.82952486     2    98   102   103   104
H 948.16928743 -88.82084475 77.11362006     6    101    0    0    0
H 949.98932010 -90.64057402 79.00586005     6    101    0    0    0
C 946.69174429 -88.60001574 80.57640343     2    101   105   106   107
H 947.02712603 -89.70035435 82.20796288     6    104    0    0    0
H 946.58228635 -86.58941360 81.06380943     6    104    0    0    0
C 944.13552207 -89.93707811 79.76461692     2    104   108   109   110
H 943.63776232 -89.19868814 77.81885068     6    107    0    0    0
H 944.62238679 -91.89169220 79.58183971     6    107    0    0    0
C 942.09705049 -89.85833427 81.76583071     2    107   111   112   113
H 942.81589875 -89.46157998 83.76978784     6    110    0    0    0
H 941.09924241 -88.04952319 81.36261240     6    110    0    0    0
C 940.48905535 -92.30453237 82.02650007     2    110   114   115   116
H 941.46125557 -93.91687778 82.88317799     6    113    0    0    0
H 939.03517348 -91.61414078 83.33312187     6    113    0    0    0
C 939.11135894 -92.92711788 79.48735496     2    113   117   118   119
H 938.47700507 -91.21428224 78.44108692     6    116    0    0    0
H 940.32725616 -93.80148348 78.10071767     6    116    0    0    0
C 936.88617340 -94.80100398 79.76080966     2    116   120   121   122
H 936.70972688 -95.73941099 77.91775711     6    119    0    0    0
H 937.20988563 -96.15226993 81.30621523     6    119    0    0    0
C 934.25922034 -93.66146115 80.06526677     1    119   123   124   125
H 932.93508033 -94.93869115 79.06565789     6    122    0    0    0
H 934.16364457 -91.96283585 79.03092065     6    122    0    0    0
H 933.76802767 -93.43232261 82.08225328     6    122    0    0    0
H 956.15696536 -70.51181566 66.46110688     6     127    0    0    0 
C 956.42534156 -68.50295220 66.24160811     1     126    128    129    130
H 958.11149227 -67.90095446 67.11895494     6     127    0    0    0
H 956.59504286 -67.85109696 64.25051876     6     127    0    0    0
C 954.28622010 -67.20772980 67.87316272     2     127    131    132    133
H 952.30388874 -67.86937366 67.21430761     6     130    0    0    0
H 954.50538491 -67.83778362 69.73740647     6     130    0    0    0
C 954.19985209 -64.24800091 67.81661422     2     130    134   135   136
H 955.86556638 -63.50495659 68.88043483     6     133    0    0    0
H 954.72110025 -63.76897705 65.88159908     6     133    0    0    0
C 951.94327259 -62.84757060 68.70819216     2     133   137   138   139
H 950.36473819 -63.50048783 67.67154813     6    136    0    0    0
H 951.47152779 -63.72227726 70.39982827     6    136    0    0    0
C 952.22586215 -59.96900452 68.82891911     2    136   140   141   142
H 953.35530540 -59.45324305 70.51105671     6    139    0    0    0
H 953.21385816 -59.37857158 67.06013062     6    139    0    0    0
C 949.62534304 -58.79792513 68.72386621     2    139   143   144   145
H 948.83525559 -59.32310895 66.79617326     6    142    0    0    0
H 948.48514987 -59.64387180 70.20884866     6    142    0    0    0
C 949.66712109 -55.96560528 68.97112802     2    142   146   147   148
H 950.61232516 -55.52851703 70.67276094     6    145    0    0    0
H 950.71642116 -55.28601190 67.28757929     6    145    0    0    0
C 947.13074986 -54.77920364 68.94702175     2    145   149   150   151
H 946.08008390 -55.23670147 67.20384663     6    148    0    0    0
H 945.88818354 -55.34254229 70.53787498     6    148    0    0    0
C 947.12668154 -51.89568756 68.96255910     2    148   152   153   154
H 948.73652286 -51.14538130 70.16202337     6    151    0    0    0
H 947.77871516 -51.33950194 67.09989413     6    151    0    0    0
C 944.55769466 -50.64143789 69.39542230     2    151   155   156   157
H 944.52305207 -48.76900025 68.83418809     6    154    0    0    0
H 943.26012221 -51.80738359 68.17660380     6    154    0    0    0
C 943.50760044 -50.84823990 72.21159578     2    154   158   159   160
H 941.51069351 -50.62830625 72.19082544     6    157    0    0    0
H 943.72897442 -52.80424547 72.88412360     6    157    0    0    0
C 944.74305619 -49.03790387 74.03456781     1    157   161   162   163
H 944.29021534 -49.35281688 75.91536963     6    160    0    0    0
H 944.17037866 -47.23745900 73.74336840     6    160    0    0    0
H 946.89308363 -49.03621190 73.73986529     6    160    0    0    0
H 954.14161773 -79.71093149 51.87148305     6     165    0    0    0 
C 955.11034280 -78.30522142 52.91420500     1     164    166    167    168
H 954.60765931 -78.64872472 54.87693205     6     165    0    0    0
H 957.08929529 -78.66294533 52.61373374     6     165    0    0    0
C 954.65682659 -75.77185961 51.86938415     2     165    169    170    171
H 954.69536854 -75.68835681 49.69934345     6     168    0    0    0
H 952.67337640 -75.33211813 52.34520458     6     168    0    0    0
C 956.56168285 -73.78759011 52.99319401     2     168    172   173   174
H 956.60974011 -73.98041739 54.99285384     6     171    0    0    0
H 958.46771487 -74.15018779 52.49170518     6     171    0    0    0
C 955.72989394 -71.05953282 52.36275836     2     171   175   176   177
H 955.03902180 -70.98707125 50.35195008     6    174    0    0    0
H 954.17414618 -70.50203598 53.68639975     6    174    0    0    0
C 957.81846097 -69.19039936 52.91421573     2    174   178   179   180
H 958.00150955 -69.14899524 54.98037510     6    177    0    0    0
H 959.63279433 -69.93565552 52.08029369     6    177    0    0    0
C 957.31427471 -66.46132972 52.18434463     2    177   181   182   183
H 957.30995813 -66.44506307 50.03602333     6    180    0    0    0
H 955.45160677 -66.15071477 52.90736868     6    180    0    0    0
C 959.14112420 -64.40833097 53.14620959     2    180   184   185   186
H 958.85374721 -64.12104694 55.14985689     6    183    0    0    0
H 961.07964830 -65.27916359 53.15264782     6    183    0    0    0
C 958.85954826 -61.86937935 51.99505808     2    183   187   188   189
H 959.03055100 -62.03449430 49.83475636     6    186    0    0    0
H 956.92422600 -61.64981066 52.28475402     6    186    0    0    0
C 960.47531094 -59.82525275 53.13047053     2    186   190   191   192
H 960.33085139 -59.96611202 55.14276704     6    189    0    0    0
H 962.38974668 -60.24626066 52.74527279     6    189    0    0    0
C 959.60635231 -57.42331822 52.15792166     2    189   193   194   195
H 959.71674092 -57.52937082 50.08732690     6    192    0    0    0
H 957.51930566 -57.23513424 52.58508838     6    192    0    0    0
C 961.32105908 -55.14470168 52.90175126     2    192   196   197   198
H 961.74616959 -55.12308253 54.94568828     6    195    0    0    0
H 963.03028227 -55.29021189 51.63907737     6    195    0    0    0
C 960.19511473 -52.51938715 51.98851459     1    195   199   200   201
H 958.43923994 -51.97923877 52.75879122     6    198    0    0    0
H 960.04997063 -52.51481699 49.88595347     6    198    0    0    0
H 961.65852657 -51.13391148 52.52528112     6    198    0    0    0
H 938.94838893 -75.12061599 55.72673685     6     203    0    0    0 
C 940.56546162 -74.64195212 54.74352631     1     202    204    205    206
H 939.97640901 -73.03180151 53.65225375     6     203    0    0    0
H 942.01519605 -74.01669060 56.13337634     6     203    0    0    0
C 941.39797458 -76.90186754 53.28895603     2     203    207    208    209
H 943.24825076 -76.81906966 52.38793287     6     206    0    0    0
H 941.46618044 -78.62613753 54.55191767     6     206    0    0    0
C 939.20949984 -77.73586714 51.29500223     2     206    210   211   212
H 939.59144889 -79.77697367 50.70734804     6     209    0    0    0
H 937.44624996 -77.68676310 52.23726118     6     209    0    0    0
C 939.49486308 -76.15566764 48.89502966     2     209   213   214   215
H 940.06655900 -74.22454802 49.40924508     6    212    0    0    0
H 940.98194589 -77.14662399 47.94416930     6    212    0    0    0
C 937.09471918 -76.05546716 47.34946477     2    212   216   217   218
H 936.34336182 -78.02253797 47.02716533     6    215    0    0    0
H 935.61915045 -74.89375223 48.09627548     6    215    0    0    0
C 937.98636605 -74.80658548 44.82796576     2    215   219   220   221
H 938.29407287 -72.85828453 45.34637741     6    218    0    0    0
H 939.70452117 -75.47631667 44.00183772     6    218    0    0    0
C 935.96311986 -74.94660645 42.81943065     2    218   222   223   224
H 935.54926919 -77.02539338 42.75405910     6    221    0    0    0
H 934.29193971 -74.09567269 43.56225262     6    221    0    0    0
C 936.36635605 -73.83175315 40.05711605     2    221   225   226   227
H 936.67428804 -71.89170993 40.46243251     6    224    0    0    0
H 938.02333826 -74.49959571 38.89935093     6    224    0    0    0
C 934.21565120 -74.25455136 38.19571725     2    224   228   229   230
H 933.81484670 -76.30355246 38.03346439     6    227    0    0    0
H 932.33774368 -73.49058100 38.84051843     6    227    0    0    0
C 934.83616991 -72.94541436 35.64894563     2    227   231   232   233
H 935.37693889 -70.92252089 35.85784377     6    230    0    0    0
H 936.68122680 -73.66349122 35.14770088     6    230    0    0    0
C 932.77994796 -73.64204880 33.68849881     2    230   234   235   236
H 933.53042234 -73.56800665 31.66395913     6    233    0    0    0
H 932.30159109 -75.59261470 33.79544845     6    233    0    0    0
C 930.55177916 -71.90696381 34.04004723     1    233   237   238   239
H 929.41758850 -71.65340917 32.33148376     6    236    0    0    0
H 930.88611743 -70.09544784 34.97357578     6    236    0    0    0
H 929.39523550 -72.76443707 35.42556426     6    236    0    0    0
H 920.67288754 -80.39890932 71.77907065     6     241    0    0    0 
C 920.83779369 -81.53396519 69.97186671     1     240    242    243    244
H 919.04562737 -81.83829755 69.01763842     6     241    0    0    0
H 922.00052671 -80.47837607 68.73123728     6     241    0    0    0
C 922.11485241 -84.13482946 70.64223437     2     241    245    246    247
H 920.82665249 -85.08792815 71.97918288     6     244    0    0    0
H 922.50954886 -85.51045135 69.16869184     6     244    0    0    0
C 924.60432891 -83.64388151 72.10322286     2     244    248   249   250
H 926.21996569 -84.29767779 70.97676924     6     247    0    0    0
H 924.89400602 -81.54257149 72.27468412     6     247    0    0    0
C 924.67628762 -84.74692821 74.76543538     2     247   251   252   253
H 926.36056280 -84.11094473 75.55422028     6    250    0    0    0
H 923.17411549 -83.69797241 75.84527993     6    250    0    0    0
C 924.60387425 -87.68207605 74.90910035     2    250   254   255   256
H 923.29672246 -88.26628825 73.46544693     6    253    0    0    0
H 926.46196365 -88.50307175 74.39814061     6    253    0    0    0
C 923.64485692 -88.70657285 77.26426023     2    253   257   258   259
H 924.43351559 -87.63355692 78.90236479     6    256    0    0    0
H 921.64782718 -88.27753818 77.33541264     6    256    0    0    0
C 924.25384558 -91.54464820 77.43139691     2    256   260   261   262
H 923.91544097 -92.64598083 75.56225652     6    259    0    0    0
H 926.41419437 -91.67922800 77.62079991     6    259    0    0    0
C 923.01519642 -92.77601766 79.81915905     2    259   263   264   265
H 923.58538759 -91.83934524 81.58235747     6    262    0    0    0
H 921.01472648 -92.71786789 79.72354426     6    262    0    0    0
C 923.91486214 -95.47720046 80.38975645     2    262   266   267   268
H 923.14676224 -95.98730597 82.26603430     6    265    0    0    0
H 923.20938804 -96.78756135 78.93350170     6    265    0    0    0
C 926.71483799 -95.83902260 80.47460394     2    265   269   270   271
H 927.56869417 -94.99047765 78.88137373     6    268    0    0    0
H 927.39786056 -94.74481197 82.04833560     6    268    0    0    0
C 927.63680001 -98.60703201 81.16557011     2    268   272   273   274
H 926.99596976 -99.04945783 83.14791903     6    271    0    0    0
H 926.38358299 -99.90102555 80.11266350     6    271    0    0    0
C 930.43287390 -99.11780339 80.97102402     1    271   275   276   277
H 931.21880873 -98.72559895 78.99476154     6    274    0    0    0
H 931.04997955 -101.04681073 81.47602018     6    274    0    0    0
H 931.45736391 -97.87845957 82.13332753     6    274    0    0    0
H 941.76315584 -82.37259244 57.97511559     6     279    0    0    0 
C 940.39033004 -83.80123536 58.29866792     1     278    280    281    282
H 941.28502566 -85.40844724 57.55085785     6     279    0    0    0
H 940.06295870 -84.08278467 60.34788433     6     279    0    0    0
C 937.95459300 -83.12547115 56.90624290     2     279    283    284    285
H 936.95818152 -81.54876939 57.64975954     6     282    0    0    0
H 938.45100410 -82.50947083 54.97219311     6     282    0    0    0
C 935.95514715 -85.11154686 56.45866914     2     282    286   287   288
H 936.66635238 -87.03018768 55.85652216     6     285    0    0    0
H 935.29196644 -85.66536200 58.28740342     6     285    0    0    0
C 933.77545935 -84.11154560 54.74844877     2     285   289   290   291
H 933.30737029 -82.33105366 55.63305998     6    288    0    0    0
H 934.55670716 -83.45784375 52.98878087     6    288    0    0    0
C 931.51156041 -85.76962846 54.42346977     2    288   292   293   294
H 932.00575218 -87.29028863 53.15810876     6    291    0    0    0
H 931.18918111 -86.74435175 56.34860022     6    291    0    0    0
C 929.10419367 -84.39397174 53.52283209     2    291   295   296   297
H 928.81429578 -82.56378022 54.32211389     6    294    0    0    0
H 929.13291833 -83.90391911 51.50057101     6    294    0    0    0
C 926.64993099 -86.01720369 54.09242047     2    294   298   299   300
H 926.95924579 -88.03921055 53.41846716     6    297    0    0    0
H 926.45866675 -86.36937300 56.14504303     6    297    0    0    0
C 924.15350518 -84.86655545 53.09308873     2    297   301   302   303
H 923.86475092 -82.97948029 53.96426994     6    300    0    0    0
H 924.34802481 -84.35265306 51.14124193     6    300    0    0    0
C 921.83924285 -86.57357233 53.46594524     2    300   304   305   306
H 921.90393053 -88.09784474 52.19187859     6    303    0    0    0
H 922.02082397 -87.12576001 55.35810205     6    303    0    0    0
C 919.49266475 -85.09145452 53.04050922     2    303   307   308   309
H 919.84841222 -83.27073842 53.90323835     6    306    0    0    0
H 919.31434963 -84.58164452 50.98482526     6    306    0    0    0
C 916.92360668 -86.45518344 53.54330303     2    306   310   311   312
H 916.17760607 -87.20668551 51.84340144     6    309    0    0    0
H 917.07701235 -87.82172501 55.08143824     6    309    0    0    0
C 914.82928465 -84.66583639 54.40734864     1    309   313   314   315
H 914.25515464 -82.95004621 53.23591644     6    312    0    0    0
H 915.42665680 -83.67401022 56.21736554     6    312    0    0    0
H 913.14441491 -85.65120039 55.07662416     6    312    0    0    0
H 957.22136599 -75.07269965 75.28749523     6     317    0    0    0 
C 958.57478259 -73.77126107 74.59385258     1     316    318    319    320
H 960.05437561 -73.51845274 76.04207268     6     317    0    0    0
H 959.14820473 -74.67091508 72.74361551     6     317    0    0    0
C 956.76620345 -71.54578614 73.84813564     2     317    321    322    323
H 957.42701229 -70.42135022 72.25340795     6     320    0    0    0
H 955.01243795 -72.36494132 73.20192857     6     320    0    0    0
C 956.11214773 -69.74132577 76.00015038     2     320    324   325   326
H 955.59367895 -70.87274273 77.63923885     6     323    0    0    0
H 957.75203007 -68.50634078 76.47379045     6     323    0    0    0
C 953.77174368 -68.06905406 75.28827199     2     323   327   328   329
H 954.10483089 -66.66183522 73.83601735     6    326    0    0    0
H 952.30603791 -69.29506887 74.73699743     6    326    0    0    0
C 952.59558938 -66.68190355 77.59398902     2    326   330   331   332
H 951.51330155 -68.06144111 78.65804476     6    329    0    0    0
H 954.05711519 -66.21046968 78.78990762     6    329    0    0    0
C 950.89471734 -64.31572548 76.94283737     2    329   333   334   335
H 952.14763517 -62.77728310 76.38063153     6    332    0    0    0
H 949.99778739 -64.66713361 75.26117412     6    332    0    0    0
C 948.97747855 -63.57999766 79.02441119     2    332   336   337   338
H 947.57742097 -65.05276899 79.30205953     6    335    0    0    0
H 950.00693915 -63.38455262 80.86162844     6    335    0    0    0
C 947.65814690 -60.96001072 78.60197288     2    335   339   340   341
H 946.71297938 -60.48285255 80.34741322     6    338    0    0    0
H 948.96767703 -59.43962184 78.69532555     6    338    0    0    0
C 945.68612077 -60.74709880 76.55940814     2    338   342   343   344
H 946.48746153 -60.30963141 74.69090565     6    341    0    0    0
H 944.82115579 -62.57109686 76.39189949     6    341    0    0    0
C 943.37429141 -59.02997452 77.03094450     2    341   345   346   347
H 942.48880767 -58.47824763 75.23627128     6    344    0    0    0
H 942.03513171 -59.84117861 78.38562131     6    344    0    0    0
C 944.09324603 -56.37495547 77.81666412     2    344   348   349   350
H 945.24582977 -56.37757894 79.53661105     6    347    0    0    0
H 945.37573935 -55.82990660 76.41151931     6    347    0    0    0
C 941.71345818 -54.59373368 78.10907342     1    347   351   352   353
H 942.16354912 -52.52157278 78.18122093     6    350    0    0    0
H 940.52499627 -55.04779830 79.73608820     6    350    0    0    0
H 940.39677405 -54.93601698 76.48774646     6    350    0    0    0
H 930.94968114 -87.34920219 67.32007936     6     355    0    0    0 
C 932.40403841 -86.67971674 68.49076059     1     354    356    357    358
H 931.45881251 -86.11227438 70.25084922     6     355    0    0    0
H 933.60571794 -88.16351885 68.99998497     6     355    0    0    0
C 933.88577279 -84.64634021 66.92555713     2     355    359    360    361
H 934.25880142 -85.32619643 64.97717928     6     358    0    0    0
H 932.58205775 -82.96574081 66.59086436     6     358    0    0    0
C 936.38182308 -83.90485204 68.27730043     2     358    362   363   364
H 935.85691763 -82.76560227 69.94176938     6     361    0    0    0
H 937.32472769 -85.58969714 68.94237307     6     361    0    0    0
C 938.16212815 -82.47064395 66.61087120     2     361   365   366   367
H 938.56128547 -83.48153383 64.95496522     6    364    0    0    0
H 937.23668004 -80.76265749 65.91507189     6    364    0    0    0
C 940.73144483 -81.89555146 67.99605197     2    364   368   369   370
H 940.23315009 -80.50105702 69.44875047     6    367    0    0    0
H 941.38460489 -83.61074933 68.98247017     6    367    0    0    0
C 942.68055421 -80.88258824 66.02590425     2    367   371   372   373
H 943.36584576 -82.64856718 65.12748988     6    370    0    0    0
H 941.94937950 -79.32010160 64.87898229     6    370    0    0    0
C 944.86918414 -79.60714617 67.36448518     2    370   374   375   376
H 943.95970088 -78.12969524 68.50089428     6    373    0    0    0
H 945.73389288 -80.91662990 68.73565946     6    373    0    0    0
C 946.79976154 -78.32586791 65.39521961     2    373   377   378   379
H 947.77611218 -79.70802439 64.23435503     6    376    0    0    0
H 945.75491765 -77.18780817 63.92730764     6    376    0    0    0
C 948.68429523 -76.94444540 66.67021000     2    376   380   381   382
H 947.50329743 -75.70471090 67.86250098     6    379    0    0    0
H 949.77347341 -78.22174065 68.07263428     6    379    0    0    0
C 950.62677146 -75.58466245 64.80003693     2    379   383   384   385
H 950.81676076 -76.25769765 62.95056297     6    382    0    0    0
H 949.82898258 -73.72311557 64.39487466     6    382    0    0    0
C 953.24885582 -75.51348607 65.76317211     2    382   386   387   388
H 954.31422592 -74.31476924 64.60746798     6    385    0    0    0
H 953.43854683 -74.66180085 67.63287378     6    385    0    0    0
C 954.45632582 -78.11605279 65.79020874     1    385   389   390   391
H 953.35450261 -79.48006021 64.62735106     6    388    0    0    0
H 954.89228201 -78.97969603 67.61675570     6    388    0    0    0
H 956.37084195 -78.19231451 64.93234550     6    388    0    0    0
H 925.24141669 -35.32827835 81.46339031     6     393    0    0    0 
C 923.33738457 -36.16548731 81.29851027     1     392    394    395    396
H 922.64512693 -36.49292280 83.35789498     6     393    0    0    0
H 922.09614426 -34.73400805 80.38608351     6     393    0    0    0
C 923.21848731 -38.65200360 79.88567829     2     393    397    398    399
H 923.51503339 -38.45221576 77.82373513     6     396    0    0    0
H 924.80818139 -39.80291669 80.66205211     6     396    0    0    0
C 920.83060930 -40.26987971 80.19198313     2     396    400   401   402
H 920.03210387 -40.21777534 82.15729467     6     399    0    0    0
H 919.43221560 -39.47204918 78.96658224     6     399    0    0    0
C 921.19828303 -43.05244981 79.69666799     2     399   403   404   405
H 922.51331506 -43.25064646 78.03261195     6    402    0    0    0
H 922.12443064 -44.02312058 81.23866112     6    402    0    0    0
C 918.87871300 -44.45458992 79.10849851     2    402   406   407   408
H 917.43563823 -44.18623054 80.62041365     6    405    0    0    0
H 917.87227583 -43.92692407 77.34932413     6    405    0    0    0
C 919.45973158 -47.31213378 78.69196945     2    405   409   410   411
H 920.93768213 -47.53635660 77.30999050     6    408    0    0    0
H 920.32327870 -48.01206718 80.36044596     6    408    0    0    0
C 916.93267252 -48.78241659 78.17125351     2    408   412   413   414
H 915.37141753 -48.36774223 79.56994200     6    411    0    0    0
H 916.39629461 -48.35047898 76.30015467     6    411    0    0    0
C 917.17973831 -51.70005256 78.31567092     2    411   415   416   417
H 919.07219058 -52.13539398 77.58666585     6    414    0    0    0
H 917.08369470 -52.16528781 80.28406374     6    414    0    0    0
C 915.18125278 -53.06288761 76.63983833     2    414   418   419   420
H 913.52345173 -52.58402911 77.76898660     6    417    0    0    0
H 915.01755765 -51.90928031 74.92896502     6    417    0    0    0
C 915.37251784 -55.83811822 76.09932137     2    417   421   422   423
H 917.09851921 -56.12592869 75.18810776     6    420    0    0    0
H 915.41184826 -56.50652257 78.09543788     6    420    0    0    0
C 913.20610666 -56.96867762 74.57001950     2    420   424   425   426
H 913.23620229 -58.98628403 75.00143076     6    423    0    0    0
H 911.34543115 -56.26423975 75.24899817     6    423    0    0    0
C 913.42161248 -56.65203236 71.68421849     1    423   427   428   429
H 911.62440324 -57.13417021 70.57183163     6    426    0    0    0
H 914.77791888 -57.84877216 70.96545863     6    426    0    0    0
H 914.01909133 -54.70424633 71.31020780     6    426    0    0    0
H 924.95630534 -72.51092914 87.65699034     6     431    0    0    0 
C 924.09169956 -71.22890564 88.90082292     1     430    432    433    434
H 921.95684279 -71.05312361 88.82150484     6     431    0    0    0
H 924.73286019 -71.71660152 90.86050205     6     431    0    0    0
C 925.00851572 -68.51773858 88.49036968     2     431    435    436    437
H 927.05695637 -68.49444611 88.48221187     6     434    0    0    0
H 924.37804746 -67.67571253 86.73831531     6     434    0    0    0
C 924.16302311 -66.78405710 90.60469773     2     434    438   439   440
H 922.15896765 -66.91570206 91.04191023     6     437    0    0    0
H 924.92780131 -67.47135904 92.35599362     6     437    0    0    0
C 925.04166909 -63.98455374 90.32441657     2     437   441   442   443
H 925.74817477 -63.42559945 92.24515020     6    440    0    0    0
H 926.50560903 -63.84972242 88.88862031     6    440    0    0    0
C 922.91386526 -62.16062163 89.69096506     2    440   444   445   446
H 922.48698907 -62.42924924 87.72216316     6    443    0    0    0
H 921.02045791 -62.54038505 90.55599337     6    443    0    0    0
C 923.61257705 -59.31339514 90.00847059     2    443   447   448   449
H 924.44327602 -59.15866695 91.86359810     6    446    0    0    0
H 925.01190558 -58.90824887 88.66309359     6    446    0    0    0
C 921.01404399 -57.79434199 89.78217181     2    446   450   451   452
H 920.29490871 -58.40359960 87.96837311     6    449    0    0    0
H 919.86806596 -58.53207641 91.27383334     6    449    0    0    0
C 921.29416796 -54.87893890 90.02765232     2    449   453   454   455
H 922.29060884 -54.75515179 91.76799699     6    452    0    0    0
H 922.74554181 -54.30122689 88.54741524     6    452    0    0    0
C 918.94485967 -53.34759721 90.19292604     2    452   456   457   458
H 917.89259900 -53.93691403 88.61731191     6    455    0    0    0
H 917.80069755 -53.65146976 91.83969333     6    455    0    0    0
C 919.31503613 -50.52696835 90.10915758     2    455   459   460   461
H 917.51633732 -49.42383332 90.04119765     6    458    0    0    0
H 920.34932889 -49.76642603 91.82675678     6    458    0    0    0
C 920.75276219 -49.58665911 87.51286665     2    458   462   463   464
H 922.63685451 -50.10442287 87.56081510     6    461    0    0    0
H 920.09382361 -50.73105763 85.98695628     6    461    0    0    0
C 920.60448087 -46.71029656 87.13888943     1    461   465   466   467
H 921.14456432 -45.81597102 88.87500387     6    464    0    0    0
H 918.69684491 -46.18272395 86.63713494     6    464    0    0    0
H 922.09156151 -46.20367507 85.93558049     6    464    0    0    0
H 954.61611893 -85.92180366 68.47921706     6     469    0    0    0 
C 954.12245775 -85.32984560 70.45051348     1     468    470    471    472
H 954.88835248 -86.57230260 71.77231469     6     469    0    0    0
H 955.04631929 -83.50821126 70.62437410     6     469    0    0    0
C 951.37342917 -85.25707703 71.02796236     2     469    473    474    475
H 950.88372420 -84.74607280 73.01351997     6     472    0    0    0
H 950.49749654 -83.79233497 69.80535486     6     472    0    0    0
C 949.86714955 -87.82429205 70.84876352     2     472    476   477   478
H 950.21999950 -88.58598123 68.99048759     6     475    0    0    0
H 950.65859195 -89.21870989 72.23493847     6     475    0    0    0
C 947.01509813 -87.37875468 71.13814538     2     475   479   480   481
H 946.56127213 -86.52683579 73.03660656     6    478    0    0    0
H 946.14259744 -86.04165033 69.90827269     6    478    0    0    0
C 945.42275362 -89.85468002 70.94278071     2    478   482   483   484
H 945.57724173 -90.69803240 69.14259692     6    481    0    0    0
H 946.01961354 -91.23831224 72.46338867     6    481    0    0    0
C 942.57088291 -89.27804424 71.36395987     2    481   485   486   487
H 942.39722571 -88.92137865 73.43282040     6    484    0    0    0
H 941.61031163 -87.79117816 70.37167240     6    484    0    0    0
C 941.11813798 -91.79424530 70.85193893     2    484   488   489   490
H 941.24748290 -92.56805688 68.91447065     6    487    0    0    0
H 942.08161674 -93.30720397 71.95605904     6    487    0    0    0
C 938.38947191 -91.64258268 71.78590136     2    487   491   492   493
H 938.55556591 -91.40416966 73.87435576     6    490    0    0    0
H 937.66686893 -90.09044974 70.83976753     6    490    0    0    0
C 936.77009035 -93.90278721 71.12773265     2    490   494   495   496
H 936.56488613 -94.17480685 69.03137309     6    493    0    0    0
H 937.58227547 -95.73235462 71.97863991     6    493    0    0    0
C 934.35415013 -93.83291962 72.78826454     2    493   497   498   499
H 934.75520703 -93.26602975 74.77556258     6    496    0    0    0
H 933.38914129 -92.16392099 72.20559336     6    496    0    0    0
C 932.78550366 -96.19603924 72.71226651     2    496   500   501   502
H 932.37877869 -96.75875829 70.80683688     6    499    0    0    0
H 933.53682873 -97.82912276 73.73618733     6    499    0    0    0
C 930.18389929 -95.70548783 73.87401878     1    499   503   504   505
H 929.21656131 -97.31747493 74.33233419     6    502    0    0    0
H 928.96117354 -94.45731110 72.87881066     6    502    0    0    0
H 930.52397385 -94.71917015 75.69743415     6    502    0    0    0
H 915.50676536 -84.23515039 94.39233236     6     507    0    0    0 
C 914.57273124 -82.92061154 93.05440510     1     506    508    509    510
H 912.76332885 -83.79249229 92.54305422     6     507    0    0    0
H 914.26117755 -81.18929812 94.23916086     6     507    0    0    0
C 916.34193454 -82.18367051 90.90161124     2     507    511    512    513
H 917.65835554 -80.88314982 91.83838826     6     510    0    0    0
H 917.34131697 -83.76086923 90.03413449     6     510    0    0    0
C 915.02225098 -80.50363452 89.02513506     2     510    514   515   516
H 913.81027697 -81.68968237 87.89054300     6     513    0    0    0
H 913.76879746 -79.27397449 89.96851949     6     513    0    0    0
C 916.80885313 -78.61291439 87.72554710     2     513   517   518   519
H 917.99713646 -77.56388465 89.11968190     6    516    0    0    0
H 918.30348725 -79.65931619 86.71668264     6    516    0    0    0
C 915.28822170 -76.65642039 86.22815742     2    516   520   521   522
H 914.35578390 -77.59334913 84.66689289     6    519    0    0    0
H 913.93180097 -75.77121985 87.31403307     6    519    0    0    0
C 916.97251705 -74.50694906 85.09240694     2    519   523   524   525
H 917.53623560 -73.23271087 86.48465573     6    522    0    0    0
H 918.69482196 -75.40897730 84.77604124     6    522    0    0    0
C 915.70719675 -73.17594552 82.66373539     2    522   526   527   528
H 916.07867539 -74.34393655 81.04650019     6    525    0    0    0
H 913.63640826 -72.71306094 83.00116701     6    525    0    0    0
C 916.89345077 -70.60813123 82.07438641     2    525   529   530   531
H 917.08101757 -69.52319781 83.83434013     6    528    0    0    0
H 918.95323350 -70.98500851 81.75349662     6    528    0    0    0
C 915.72384724 -69.28162477 79.73867174     2    528   532   533   534
H 916.77766626 -69.99787690 78.06554289     6    531    0    0    0
H 913.65847373 -69.48759828 79.55382265     6    531    0    0    0
C 916.39750054 -66.43303661 79.88469823     2    531   535   536   537
H 915.72952758 -65.46833017 81.62569108     6    534    0    0    0
H 918.50865193 -66.08917860 79.99087790     6    534    0    0    0
C 915.35489981 -64.88947451 77.56370166     2    534   538   539   540
H 915.83183681 -66.03382715 75.87414553     6    537    0    0    0
H 913.34416277 -64.74374886 77.54241361     6    537    0    0    0
C 916.54771320 -62.31135427 77.26550667     1    537   541   542   543
H 916.72406148 -61.63613124 75.42359000     6    540    0    0    0
H 918.56202335 -62.46249444 77.71796269     6    540    0    0    0
H 915.55016877 -60.98123858 78.54144330     6    540    0    0    0
H 929.38128903 -42.59914678 77.92621884     6     545    0    0    0 
C 929.40375772 -42.71999042 75.98151014     1     544    546    547    548
H 928.29779496 -44.29068385 75.42247268     6     545    0    0    0
H 928.54070212 -41.05984049 75.44453206     6     545    0    0    0
C 932.20310511 -43.11605497 75.24192985     2     545    549    550    551
H 933.38066017 -41.67891586 76.24244229     6     548    0    0    0
H 933.02123855 -44.87720203 75.99195690     6     548    0    0    0
C 932.67406923 -42.77021467 72.36814991     2     548    552   553   554
H 931.11032253 -43.55524621 71.28574221     6     551    0    0    0
H 932.73646558 -40.79548892 71.93188914     6     551    0    0    0
C 935.04088088 -44.14631456 71.35291211     2     551   555   556   557
H 936.73256987 -43.74922669 72.39554976     6    554    0    0    0
H 934.97465964 -46.15277673 71.51903147     6    554    0    0    0
C 935.52869497 -43.54647462 68.49556769     2    554   558   559   560
H 934.02873090 -44.27048292 67.46888351     6    557    0    0    0
H 935.44925845 -41.50150478 68.18401969     6    557    0    0    0
C 937.92681157 -44.76687060 67.28495190     2    557   561   562   563
H 939.43537928 -44.53856422 68.69497829     6    560    0    0    0
H 937.66350121 -46.75620515 66.74248983     6    560    0    0    0
C 938.69107669 -43.49188326 64.73879846     2    560   564   565   566
H 936.99883275 -43.27645483 63.46679269     6    563    0    0    0
H 939.45442592 -41.44493194 64.95353121     6    563    0    0    0
C 940.98162617 -44.86931548 63.50739865     2    563   567   568   569
H 942.60855712 -44.35187022 64.55416700     6    566    0    0    0
H 940.95545463 -46.97973012 63.58283573     6    566    0    0    0
C 941.46491714 -43.87905989 60.79926197     2    566   570   571   572
H 939.66229765 -43.90949124 59.73992815     6    569    0    0    0
H 941.94014082 -41.84030612 60.68219208     6    569    0    0    0
C 943.49848300 -45.43786320 59.34158524     2    569   573   574   575
H 945.41398725 -45.03181710 59.95759304     6    572    0    0    0
H 943.18245679 -47.39609975 59.83818468     6    572    0    0    0
C 943.41860827 -44.95697249 56.55131055     2    572   576   577   578
H 943.40334603 -43.01501078 56.04633338     6    575    0    0    0
H 945.33655811 -45.56130769 55.96523875     6    575    0    0    0
C 941.49637468 -46.54304079 55.05674145     1    575   579   580   581
H 941.68669906 -48.51884871 55.61453058     6    578    0    0    0
H 941.86034145 -46.63576812 53.09826318     6    578    0    0    0
H 939.63147538 -45.71847637 55.19239188     6    578    0    0    0
H 950.22536829 -71.05398565 60.42393307     6     583    0    0    0 
C 951.33174842 -70.63061971 58.86897541     1     582    584    585    586
H 951.86945532 -72.58881310 58.22308478     6     583    0    0    0
H 950.18102813 -69.63417997 57.46853217     6     583    0    0    0
C 953.60916744 -68.97454524 59.54617039     2     583    587    588    589
H 955.00056913 -69.94861761 60.76812401     6     586    0    0    0
H 954.58109984 -68.68593072 57.70768089     6     586    0    0    0
C 952.65263503 -66.26893843 60.29453161     2     586    590   591   592
H 951.06678605 -65.80929083 59.06509680     6     589    0    0    0
H 952.00077608 -66.35609458 62.23987985     6     589    0    0    0
C 954.68969641 -64.42347284 59.86878828     2     589   593   594   595
H 956.33311476 -64.85699696 61.00650441     6    592    0    0    0
H 955.14894024 -64.38814522 57.92156501     6    592    0    0    0
C 953.90387324 -61.59412783 60.39031897     2    592   596   597   598
H 951.98985612 -61.15480749 59.42797565     6    595    0    0    0
H 953.71513585 -61.37326376 62.47973006     6    595    0    0    0
C 955.80388522 -59.53975238 59.84882559     2    595   599   600   601
H 957.32066600 -59.77398372 61.10320766     6    598    0    0    0
H 956.72176613 -59.93216304 58.00313831     6    598    0    0    0
C 954.59070183 -56.84474701 59.69053719     2    598   602   603   604
H 953.01499103 -56.75330199 58.45374121     6    601    0    0    0
H 953.77078917 -56.24431379 61.43882083     6    601    0    0    0
C 956.41411225 -54.58956446 59.33261332     2    601   605   606   607
H 957.91014312 -54.90884233 60.80031384     6    604    0    0    0
H 957.34397356 -54.90817684 57.57621369     6    604    0    0    0
C 955.29381824 -51.90663350 59.52463614     2    604   608   609   610
H 953.93060434 -51.89613318 58.00393740     6    607    0    0    0
H 954.28079850 -51.60412012 61.29548894     6    607    0    0    0
C 957.37370983 -49.87251189 58.92388310     2    607   611   612   613
H 959.17611318 -50.58104423 59.46924903     6    610    0    0    0
H 957.32482770 -49.60221767 56.87452006     6    610    0    0    0
C 956.74823695 -47.18260540 59.82224562     2    610   614   615   616
H 954.95213113 -46.48329290 58.91308323     6    613    0    0    0
H 956.24213898 -47.19384207 61.81286714     6    613    0    0    0
C 958.69972267 -45.24243597 59.23586207     1    613   617   618   619
H 960.36454420 -45.76398358 60.38639583     6    616    0    0    0
H 958.20138449 -43.25630137 59.78505184     6    616    0    0    0
H 959.06604446 -45.35435367 57.13992445     6    616    0    0    0
H 914.86141200 -57.74467780 59.59447065     6     621    0    0    0 
C 916.84781940 -58.13084522 59.60368224     1     620    622    623    624
H 917.35872680 -56.38665517 58.95167832     6     621    0    0    0
H 917.51279429 -58.41539341 61.46206768     6     621    0    0    0
C 917.53290647 -59.95182624 57.52157435     2     621    625    626    627
H 919.42321650 -59.74819476 56.99722324     6     624    0    0    0
H 917.52423620 -61.82511169 58.22727428     6     624    0    0    0
C 916.03547575 -59.52426571 55.07189119     2     624    628   629   630
H 913.90901461 -59.75849342 55.39492943     6     627    0    0    0
H 916.40248468 -57.56932013 54.62549432     6     627    0    0    0
C 916.80516025 -61.28037353 52.91461105     2     627   631   632   633
H 918.86945793 -61.19215836 52.46202095     6    630    0    0    0
H 916.40619257 -63.16076876 53.40917774     6    630    0    0    0
C 915.32433946 -60.43195431 50.57805223     2    630   634   635   636
H 913.36633527 -60.64882608 50.80820609     6    633    0    0    0
H 915.73289363 -58.58282482 50.00156464     6    633    0    0    0
C 915.77167921 -62.04578103 48.25970336     2    633   637   638   639
H 917.89304736 -62.18073012 48.04383056     6    636    0    0    0
H 914.96044603 -64.01633727 48.49592624     6    636    0    0    0
C 914.71224364 -60.83032442 45.87846839     2    636   640   641   642
H 912.60329317 -60.29552917 46.03417619     6    639    0    0    0
H 915.64109267 -58.98589999 45.65712693     6    639    0    0    0
C 915.13609728 -62.34850338 43.53893408     2    639   643   644   645
H 916.96560900 -63.18809934 43.30250125     6    642    0    0    0
H 913.87901895 -64.02833605 43.42357965     6    642    0    0    0
C 914.14987031 -60.84319731 41.14769876     2    642   646   647   648
H 912.27668455 -60.20390122 41.48229739     6    645    0    0    0
H 915.28499781 -59.11804402 40.82745959     6    645    0    0    0
C 914.07933273 -62.26462522 38.53142013     2    645   649   650   651
H 916.04865364 -62.81327018 38.21071035     6    648    0    0    0
H 912.82699196 -63.81993329 38.26630152     6    648    0    0    0
C 913.43174128 -60.35606783 36.50827470     2    648   652   653   654
H 911.39551000 -59.82062766 36.84729199     6    651    0    0    0
H 914.46695990 -58.58301488 36.64149773     6    651    0    0    0
C 914.11125374 -61.22190154 33.88377818     1    651   655   656   657
H 916.23517369 -61.49390048 33.70104959     6    654    0    0    0
H 913.81902967 -59.64338865 32.63645140     6    654    0    0    0
H 913.16688745 -62.92897897 33.35371724     6    654    0    0    0
H 943.64739262 -70.28357836 55.89201005     6     659    0    0    0 
C 943.12853627 -69.10935966 57.45401169     1     658    660    661    662
H 942.40351242 -70.46264527 58.74726118     6     659    0    0    0
H 944.83027234 -68.12196033 58.18964592     6     659    0    0    0
C 941.02739833 -67.15196177 56.76071643     2     659    663    664    665
H 941.60267913 -65.86490596 55.27535721     6     662    0    0    0
H 939.35835702 -68.14348497 56.13704834     6     662    0    0    0
C 940.35796959 -65.61978727 59.05850854     2     662    666   667   668
H 938.50675984 -64.75232245 59.01692714     6     665    0    0    0
H 940.00480645 -66.96183779 60.60360375     6     665    0    0    0
C 942.49479271 -63.74380020 59.79669962     2     665   669   670   671
H 944.12429753 -64.89910549 60.26750554     6    668    0    0    0
H 942.92243100 -62.62888552 58.14216085     6    668    0    0    0
C 941.73778309 -61.83197660 61.92571078     2    668   672   673   674
H 940.19633283 -60.64477550 61.49798465     6    671    0    0    0
H 940.99134996 -62.91795521 63.41739145     6    671    0    0    0
C 944.01985123 -60.34079624 62.92030905     2    671   675   676   677
H 943.61061028 -59.32165175 64.60952362     6    674    0    0    0
H 945.57321385 -61.60598524 63.44874339     6    674    0    0    0
C 944.74965055 -58.32025432 60.86629275     2    674   678   679   680
H 946.89235553 -57.94844712 60.74798531     6    677    0    0    0
H 944.80688357 -58.93566488 58.87289838     6    677    0    0    0
C 943.15089983 -55.80148820 61.05939082     2    677   681   682   683
H 941.24892784 -56.07278138 60.31014595     6    680    0    0    0
H 943.07873867 -55.11136694 63.00400460     6    680    0    0    0
C 944.37309817 -53.58713180 59.50729559     2    680   684   685   686
H 945.06370397 -54.43581583 57.73434084     6    683    0    0    0
H 942.72960071 -52.32663239 59.18637782     6    683    0    0    0
C 946.51781020 -51.99600341 60.86252051     2    683   687   688   689
H 945.90660494 -51.00483324 62.45785686     6    686    0    0    0
H 947.82433117 -53.20957534 61.82838151     6    686    0    0    0
C 947.70877797 -50.08093353 59.08127598     2    686   690   691   692
H 948.55136364 -51.22092302 57.55155008     6    689    0    0    0
H 946.40585268 -48.72889150 58.30300766     6    689    0    0    0
C 949.84141407 -48.70249779 60.34228611     1    689   693   694   695
H 951.46452224 -48.28059790 59.18551194     6    692    0    0    0
H 950.45155807 -49.84601651 62.05687990     6    692    0    0    0
H 949.09884697 -46.87050759 61.11220131     6    692    0    0    0
H 931.97309051 -38.05064078 60.06976891     6     697    0    0    0 
C 930.67664209 -37.35881388 61.54653922     1     696    698    699    700
H 930.39008162 -35.55587724 60.80023068     6     697    0    0    0
H 929.04456183 -38.50254264 61.38174373     6     697    0    0    0
C 932.00424896 -37.04205457 64.15595483     2     697    701    702    703
H 933.03700638 -38.73572540 64.63768220     6     700    0    0    0
H 933.57538109 -35.75859805 63.69818495     6     700    0    0    0
C 930.36279181 -35.88536868 66.18747480     2     700    704   705   706
H 929.51733453 -34.16637953 65.45393220     6     703    0    0    0
H 928.65549496 -37.05844466 66.53330569     6     703    0    0    0
C 931.96192331 -35.25699897 68.62714415     2     703   707   708   709
H 933.44913316 -36.63373170 68.76163118     6    706    0    0    0
H 932.63559788 -33.38949110 68.30608016     6    706    0    0    0
C 930.24352153 -35.18404924 70.97139872     2    706   710   711   712
H 928.82464084 -33.63384587 70.98892567     6    709    0    0    0
H 929.19505011 -36.93221577 71.09194393     6    709    0    0    0
C 931.89440138 -35.00083394 73.34040790     2    709   713   714   715
H 933.26298372 -36.41664098 73.53557439     6    712    0    0    0
H 932.83896006 -33.16074250 73.22476534     6    712    0    0    0
C 930.17385493 -35.12491706 75.81720391     2    712   716   717   718
H 928.84702353 -33.57136044 75.71606433     6    715    0    0    0
H 929.01666308 -36.85489136 75.72716840     6    715    0    0    0
C 931.51201583 -34.81196581 78.32800859     2    715   719   720   721
H 932.87271095 -33.36920145 78.17044373     6    718    0    0    0
H 930.04940721 -34.17193525 79.58775558     6    718    0    0    0
C 932.70508557 -37.31704178 79.25508324     2    718   722   723   724
H 931.18719335 -38.72428077 79.55613752     6    721    0    0    0
H 933.96844896 -38.16429878 77.77973454     6    721    0    0    0
C 934.38717569 -36.82602916 81.51984954     2    721   725   726   727
H 935.76397291 -35.48677345 81.02611390     6    724    0    0    0
H 933.49977401 -35.65887162 82.91391632     6    724    0    0    0
C 935.57178716 -39.33712547 82.65550117     2    724   728   729   730
H 936.97257883 -40.07346967 81.44649776     6    727    0    0    0
H 936.53968470 -38.90281348 84.24950862     6    727    0    0    0
C 933.62845708 -41.27195254 83.69857305     1    727   731   732   733
H 934.44103531 -42.95704070 84.57336297     6    730    0    0    0
H 932.46415710 -41.89900068 82.07959974     6    730    0    0    0
H 932.03722993 -40.65391796 84.81751377     6    730    0    0    0
H 950.99239273 -73.19131202 77.90983222     6     735    0    0    0 
C 951.20332563 -75.05826824 77.14570985     1     734    736    737    738
H 953.09940707 -75.42645090 76.38353811     6     735    0    0    0
H 950.85877221 -76.29506277 78.73099480     6     735    0    0    0
C 949.21444016 -75.39422759 75.22987028     2     735    739    740    741
H 949.26637741 -73.81493626 73.89020367     6     738    0    0    0
H 949.64176172 -77.00510297 73.93735761     6     738    0    0    0
C 946.56956240 -75.84302289 76.29621683     2     738    742   743   744
H 945.84658344 -74.15445525 77.24119763     6     741    0    0    0
H 945.56322895 -75.93449633 74.51796329     6     741    0    0    0
C 946.20930821 -78.17463322 77.88787344     2     741   745   746   747
H 947.32642643 -79.68120475 77.06773704     6    744    0    0    0
H 947.04724213 -78.19111701 79.79701423     6    744    0    0    0
C 943.48810507 -78.94335283 78.11423170     2    744   748   749   750
H 942.17413480 -77.71359264 79.01803163     6    747    0    0    0
H 942.79222509 -79.07814119 76.17805139     6    747    0    0    0
C 942.90138493 -81.42767126 79.26379329     2    747   751   752   753
H 944.35454543 -82.71459239 78.44367515     6    750    0    0    0
H 942.98068898 -81.54927587 81.36655604     6    750    0    0    0
C 940.35870786 -82.52528550 78.60543952     2    750   754   755   756
H 939.80549939 -84.01559651 79.86791801     6    753    0    0    0
H 938.82833365 -81.11056907 78.64567398     6    753    0    0    0
C 940.41651412 -84.00577521 76.02066845     2    753   757   758   759
H 941.06584909 -83.03086007 74.36401378     6    756    0    0    0
H 941.68369627 -85.58739964 76.28894953     6    756    0    0    0
C 937.72855280 -84.78418209 75.06695199     2    756   760   761   762
H 937.06606870 -83.13958967 74.03053898     6    759    0    0    0
H 937.63170138 -86.40103120 73.88569020     6    759    0    0    0
C 935.82585794 -85.28661053 77.28618094     2    759   763   764   765
H 936.56730456 -86.69000160 78.50830006     6    762    0    0    0
H 935.50223748 -83.42107352 78.35726367     6    762    0    0    0
C 933.23144121 -86.48752137 76.36270949     2    762   766   767   768
H 932.42122179 -84.93622582 75.26068939     6    765    0    0    0
H 933.46489091 -88.05054450 75.12013100     6    765    0    0    0
C 931.16287560 -87.26995189 78.34618702     1    765   769   770   771
H 932.15329406 -87.92958058 80.03000469     6    768    0    0    0
H 929.72861678 -88.53751361 77.65020779     6    768    0    0    0
H 930.43234235 -85.40445363 79.04980636     6    768    0    0    0
H 904.99725658 -55.25644304 48.73123413     6     773    0    0    0 
C 904.48289815 -57.25800323 49.08798878     1     772    774    775    776
H 902.47837418 -57.28041261 49.72576174     6     773    0    0    0
H 904.85630060 -58.65860941 47.62162922     6     773    0    0    0
C 905.92474479 -57.77280983 51.47148545     2     773    777    778    779
H 905.39880327 -59.71499753 51.93891724     6     776    0    0    0
H 907.98728228 -57.83305686 50.99598536     6     776    0    0    0
C 905.26675645 -56.05662713 53.83769044     2     776    780   781   782
H 905.89299606 -54.06798353 53.49897622     6     779    0    0    0
H 903.25847962 -56.26432875 54.23474353     6     779    0    0    0
C 906.56453524 -56.94137537 56.29016415     2     779   783   784   785
H 905.84463561 -58.74883079 56.76630101     6    782    0    0    0
H 908.64618798 -57.24758085 56.10628517     6    782    0    0    0
C 905.87818430 -55.35773673 58.56885922     2    782   786   787   788
H 906.69365761 -53.51453935 58.13549640     6    785    0    0    0
H 903.81820978 -55.36454486 58.53665413     6    785    0    0    0
C 906.73544362 -56.27329263 61.18091594     2    785   789   790   791
H 905.86793513 -58.13794063 61.61681637     6    788    0    0    0
H 908.82265769 -56.71887731 61.28458820     6    788    0    0    0
C 906.09563574 -54.19039170 63.07135925     2    788   792   793   794
H 906.95967977 -52.40818950 62.33801368     6    791    0    0    0
H 903.99689936 -54.04988035 63.03098364     6    791    0    0    0
C 907.02178515 -54.61248264 65.60913946     2    791   795   796   797
H 905.96804392 -56.04801740 66.61488668     6    794    0    0    0
H 909.00842484 -55.04902439 65.51985575     6    794    0    0    0
C 906.82959169 -52.04866583 66.91417496     2    794   798   799   800
H 907.47946648 -50.47888798 65.64602459     6    797    0    0    0
H 904.83947797 -51.36604423 67.39879893     6    797    0    0    0
C 908.29083562 -52.13970563 69.47434296     2    797   801   802   803
H 907.57989373 -53.39625915 70.79236766     6    800    0    0    0
H 910.15642793 -52.76204538 68.77442140     6    800    0    0    0
C 908.74634696 -49.61856102 70.81072619     2    800   804   805   806
H 909.66746047 -48.10432389 69.67602121     6    803    0    0    0
H 906.80345075 -48.92319409 71.33825392     6    803    0    0    0
C 910.16241982 -49.83951221 73.29557472     1    803   807   808   809
H 912.11188805 -49.26620010 73.02027181     6    806    0    0    0
H 910.20211162 -51.82033668 74.00505810     6    806    0    0    0
H 909.45155385 -48.62362015 74.83258372     6    806    0    0    0
H 943.78907403 -72.63030763 62.68996365     6     811    0    0    0 
C 941.80799532 -72.76519841 63.43498291     1     810    812    813    814
H 941.97356339 -73.63850370 65.32286165     6     811    0    0    0
H 941.24741400 -70.82254832 63.60636874     6     811    0    0    0
C 940.01378006 -74.30412123 61.82246507     2     811    815    816    817
H 939.77320306 -73.51041908 59.86784729     6     814    0    0    0
H 940.72692346 -76.09770503 61.32255866     6     814    0    0    0
C 937.54070815 -74.72379358 63.00233535     2     814    818   819   820
H 937.64399666 -75.14747355 64.99366740     6     817    0    0    0
H 936.44198495 -73.08404055 62.90748800     6     817    0    0    0
C 936.15364884 -77.02886050 61.94365706     2     817   821   822   823
H 936.14857258 -76.88050889 59.97376109     6    820    0    0    0
H 937.29302663 -78.68145968 62.60527864     6    820    0    0    0
C 933.38931545 -77.28585695 62.81025871     2    820   824   825   826
H 933.36787964 -77.39738953 64.81199827     6    823    0    0    0
H 932.52478581 -75.44023589 62.37534691     6    823    0    0    0
C 931.95112613 -79.56393716 61.70328090     2    823   827   828   829
H 931.85458461 -79.37363175 59.58211344     6    826    0    0    0
H 933.32209729 -81.12706030 62.04866465     6    826    0    0    0
C 929.23365631 -80.15792897 62.78168146     2    826   830   831   832
H 929.18368854 -80.50075964 64.90215157     6    829    0    0    0
H 927.98483088 -78.58648778 62.31210280     6    829    0    0    0
C 928.00704270 -82.36648782 61.34128854     2    829   833   834   835
H 928.14835509 -82.09583924 59.30809882     6    832    0    0    0
H 929.06609377 -84.14030237 61.78618442     6    832    0    0    0
C 925.14927498 -82.67731697 61.97871693     2    832   836   837   838
H 924.65967844 -84.53104170 61.40122310     6    835    0    0    0
H 924.79586258 -82.71940410 64.01107964     6    835    0    0    0
C 923.29924631 -80.92766847 60.58070514     2    835   839   840   841
H 923.11301453 -78.92768096 61.28103758     6    838    0    0    0
H 923.91818514 -80.62142196 58.64145589     6    838    0    0    0
C 920.66714806 -82.03985434 60.59107331     2    838   842   843   844
H 920.69344808 -83.87862604 59.64018128     6    841    0    0    0
H 920.19738923 -82.20014116 62.52081374     6    841    0    0    0
C 918.82679986 -80.16326438 59.21830386     1    841   845   846   847
H 918.94810339 -78.09840782 59.58540284     6    844    0    0    0
H 916.85718118 -80.56224306 59.79791234     6    844    0    0    0
H 918.89199487 -80.46747040 57.28680505     6    844    0    0    0
H 956.70449104 -39.90571536 52.66775253     6     849    0    0    0 
C 956.09624474 -41.31488819 54.14728107     1     848    850    851    852
H 957.49192324 -41.16945042 55.63800977     6     849    0    0    0
H 954.24665285 -40.69697757 54.91864554     6     849    0    0    0
C 956.09742076 -43.92135875 52.97946046     2     849    853    854    855
H 957.89816677 -44.07897394 51.92212414     6     852    0    0    0
H 956.05032738 -45.25748288 54.36571073     6     852    0    0    0
C 954.06848499 -44.28403401 50.96665949     2     852    856   857   858
H 952.25209517 -43.74958871 51.72606549     6     855    0    0    0
H 954.53119923 -42.91611767 49.42242622     6     855    0    0    0
C 953.97006792 -47.04657090 50.13714287     2     855   859   860   861
H 953.86638500 -47.29828881 47.98071287     6    858    0    0    0
H 955.66049101 -48.06568157 50.92474276     6    858    0    0    0
C 951.93453612 -48.54241995 51.39241577     2    858   862   863   864
H 951.99860654 -48.35272305 53.42357821     6    861    0    0    0
H 949.93211543 -48.36834338 50.59053309     6    861    0    0    0
C 952.13195238 -51.40986882 50.90236532     2    861   865   866   867
H 951.87939954 -51.88162029 48.99586215     6    864    0    0    0
H 954.04342050 -51.88966598 51.46081243     6    864    0    0    0
C 950.39754731 -53.16650782 52.37061095     2    864   868   869   870
H 950.96135807 -53.27475924 54.35045898     6    867    0    0    0
H 948.55968016 -52.37548627 52.29993210     6    867    0    0    0
C 950.31835716 -55.79342542 51.10544092     2    867   871   872   873
H 949.14760279 -55.68665839 49.38948192     6    870    0    0    0
H 952.22321478 -56.36077463 50.43353987     6    870    0    0    0
C 949.03961525 -57.66686118 52.82547208     2    870   874   875   876
H 949.85410247 -57.55768679 54.67998569     6    873    0    0    0
H 947.11210775 -56.98861125 53.10858453     6    873    0    0    0
C 949.05567824 -60.54265654 52.01832815     2    873   877   878   879
H 948.17475876 -60.62272074 50.04426177     6    876    0    0    0
H 951.02772534 -61.08364018 51.65737277     6    876    0    0    0
C 947.81205716 -62.20657917 53.95171024     2    876   880   881   882
H 948.59645720 -61.77530918 55.76992420     6    879    0    0    0
H 945.86163649 -61.86243697 54.15223354     6    879    0    0    0
C 948.54886454 -65.00586889 53.49174817     1    879   883   884   885
H 947.48090040 -66.17085198 54.74900035     6    882    0    0    0
H 950.45556961 -65.48607323 53.69503298     6    882    0    0    0
H 947.74570275 -65.70280967 51.72490196     6    882    0    0    0
H 922.51070976 -76.58961072 56.35046820     6     887    0    0    0 
C 923.61017593 -76.13180913 54.68002174     1     886    888    889    890
H 924.09538871 -77.81138228 53.64146227     6     887    0    0    0
H 922.40392128 -74.89925896 53.66538306     6     887    0    0    0
C 925.99723227 -75.00661270 55.53972272     2     887    891    892    893
H 927.22841167 -76.61424321 55.94710544     6     890    0    0    0
H 926.98184090 -74.19494580 53.98719082     6     890    0    0    0
C 926.06549342 -73.22197293 57.84505217     2     890    894   895   896
H 924.64032522 -71.82873485 57.99934521     6     893    0    0    0
H 925.36640666 -74.33085923 59.30276423     6     893    0    0    0
C 928.79602318 -72.39268416 58.57628093     2     893   897   898   899
H 930.07630219 -74.04961301 58.31296153     6    896    0    0    0
H 929.28376165 -71.00325157 57.16237078     6    896    0    0    0
C 929.22563476 -71.19245303 61.12879527     2    896   900   901   902
H 928.03796609 -69.56783467 61.48546107     6    899    0    0    0
H 928.64991536 -72.66224224 62.56659366     6    899    0    0    0
C 931.81305850 -70.19948995 61.75128264     2    899   903   904   905
H 932.55105458 -71.12049127 63.34571413     6    902    0    0    0
H 933.02093183 -70.28302065 60.02859468     6    902    0    0    0
C 931.89486887 -67.36063853 62.63796430     2    902   906   907   908
H 931.15781232 -66.18298486 61.10406657     6    905    0    0    0
H 930.47287032 -67.03083010 64.15362289     6    905    0    0    0
C 934.40619137 -66.38458464 63.44307224     2    905   909   910   911
H 935.72318475 -66.77550351 61.72609419     6    908    0    0    0
H 934.36159632 -64.33279734 63.84016086     6    908    0    0    0
C 935.71267121 -67.76096377 65.67995968     2    908   912   913   914
H 934.47928214 -68.40591309 67.11822060     6    911    0    0    0
H 937.00293949 -69.22192377 64.98051920     6    911    0    0    0
C 937.49844155 -65.87829489 67.11186252     2    911   915   916   917
H 939.02485579 -65.22653366 65.79445400     6    914    0    0    0
H 936.51423146 -64.20111749 67.82397961     6    914    0    0    0
C 938.56451209 -67.31224236 69.31597436     2    914   918   919   920
H 937.06835773 -67.64441858 70.83172993     6    917    0    0    0
H 939.04224468 -69.21380081 68.55242010     6    917    0    0    0
C 940.89263043 -66.13486232 70.43440456     1    917   921   922   923
H 940.85080281 -64.12568163 70.15582515     6    920    0    0    0
H 942.46165148 -66.93609646 69.35844731     6    920    0    0    0
H 941.28746721 -66.75314620 72.39594891     6    920    0    0    0
H 936.48332546 -54.41017573 43.72910194     6     925    0    0    0 
C 936.02824711 -56.19301672 44.71375304     1     924    926    927    928
H 937.70260528 -57.05251509 45.08635021     6     925    0    0    0
H 934.89963951 -55.77057633 46.38891594     6     925    0    0    0
C 934.86120191 -58.13988115 43.02990138     2     925    929    930    931
H 933.25100618 -57.49467501 41.87364941     6     928    0    0    0
H 936.06173995 -58.49724992 41.48479392     6     928    0    0    0
C 934.34242072 -60.76763978 44.17494340     2     928    932   933   934
H 932.88662079 -60.53275095 45.56747853     6     931    0    0    0
H 933.57977810 -61.69139674 42.47948263     6     931    0    0    0
C 936.65591358 -61.96082490 45.35121488     2     931   935   936   937
H 938.42467191 -61.54674188 44.20144686     6    934    0    0    0
H 937.11244215 -60.93735667 47.08100779     6    934    0    0    0
C 935.96097271 -64.68717258 45.99858898     2    934   938   939   940
H 933.90496129 -65.40579715 45.98897801     6    937    0    0    0
H 936.76379573 -66.00851654 44.70162825     6    937    0    0    0
C 937.05079931 -65.64243023 48.46263389     2    937   941   942   943
H 936.60351928 -64.60527203 50.16185379     6    940    0    0    0
H 936.19665982 -67.42905075 48.69494218     6    940    0    0    0
C 939.94811157 -65.66241810 48.82592765     2    940   944   945   946
H 940.86311258 -63.85731887 49.03094733     6    943    0    0    0
H 940.06772763 -66.47321402 50.59547174     6    943    0    0    0
C 941.30371890 -67.24268830 46.78115658     2    943   947   948   949
H 940.34613907 -69.12247518 46.73786711     6    946    0    0    0
H 940.80820100 -66.09847572 45.06734798     6    946    0    0    0
C 944.11813935 -67.43754077 47.17824396     2    946   950   951   952
H 945.13059177 -65.67044010 46.78573068     6    949    0    0    0
H 944.49427265 -67.85977790 49.16303451     6    949    0    0    0
C 945.12229671 -69.67393560 45.64111897     2    949   953   954   955
H 944.30453667 -71.35656659 46.47841072     6    952    0    0    0
H 944.50370249 -69.81064739 43.67705380     6    952    0    0    0
C 947.96429518 -69.71422208 45.84908965     2    952   956   957   958
H 948.74675357 -70.62964170 44.18176881     6    955    0    0    0
H 948.70202138 -67.74274927 45.67850688     6    955    0    0    0
C 948.58067939 -71.25093137 48.21234568     1    955   959   960   961
H 947.43361729 -70.64811186 49.92039214     6    958    0    0    0
H 950.54079777 -71.07660593 48.86788481     6    958    0    0    0
H 948.06881405 -73.22437089 47.89726832     6    958    0    0    0
H 929.43879293 -72.16703870 81.59252207     6     963    0    0    0 
C 928.32081064 -71.85481321 79.83013155     1     962    964    965    966
H 929.62753487 -71.36736942 78.27685122     6     963    0    0    0
H 927.53583962 -73.62459146 79.06638014     6     963    0    0    0
C 926.29996601 -69.79980699 80.09501740     2     963    967    968    969
H 924.90124541 -70.19228923 78.59482926     6     966    0    0    0
H 925.49784856 -70.23627868 81.98909607     6     966    0    0    0
C 927.30024825 -67.10367964 80.31008227     2     966    970   971   972
H 928.35245562 -67.05834984 82.08749120     6     969    0    0    0
H 928.46546792 -66.46857035 78.71916532     6     969    0    0    0
C 925.08838062 -65.26070743 80.81579557     2     969   973   974   975
H 924.00612402 -65.03094396 79.01763760     6    972    0    0    0
H 923.71329536 -66.02924972 82.02853291     6    972    0    0    0
C 925.93498747 -62.68273690 81.70251410     2    972   976   977   978
H 926.99637353 -62.93580870 83.43913905     6    975    0    0    0
H 927.46026525 -61.98522805 80.48623403     6    975    0    0    0
C 923.72098566 -60.88559111 82.00425790     2    975   979   980   981
H 922.59196533 -60.87545380 80.23640329     6    978    0    0    0
H 922.33019870 -61.44945786 83.56805269     6    978    0    0    0
C 924.58201470 -58.05801725 82.27741202     2    978   982   983   984
H 925.21301557 -57.73323183 84.25858118     6    981    0    0    0
H 926.10852909 -57.92823879 80.91140296     6    981    0    0    0
C 922.47118886 -56.11867585 81.61237131     2    981   985   986   987
H 922.42504288 -56.04521228 79.56377617     6    984    0    0    0
H 920.61151613 -56.67203996 82.46366781     6    984    0    0    0
C 923.14949113 -53.42044466 82.39498642     2    984   988   989   990
H 921.37323064 -52.34232395 82.37164611     6    987    0    0    0
H 923.92321463 -53.18377248 84.29846376     6    987    0    0    0
C 925.07982384 -52.10183587 80.72241732     2    987   991   992   993
H 926.72056717 -53.35204714 80.58650084     6    990    0    0    0
H 924.23664800 -51.90725670 78.82593701     6    990    0    0    0
C 925.86449812 -49.50094100 81.66815070     2    990   994   995   996
H 924.13051855 -48.80726011 82.60168562     6    993    0    0    0
H 927.33839194 -50.00652631 83.06569965     6    993    0    0    0
C 926.86530626 -47.82811026 79.67742200     1    993   997   998   999
H 928.51784179 -48.52588214 78.57517061     6    996    0    0    0
H 927.18948924 -45.97442654 80.26102430     6    996    0    0    0
H 925.54527219 -47.58716081 78.07989843     6    996    0    0    0
H 923.75157767 -82.65564116 80.32585524     6     1001    0    0    0 
C 924.93418580 -82.81285256 82.03026277     1     1000    1002    1003    1004
H 924.07220399 -83.88909795 83.59077393     6     1001    0    0    0
H 926.59713597 -83.84788080 81.46239101     6     1001    0    0    0
C 925.44891262 -80.01503461 82.88945018     2     1001    1005    1006    1007
H 926.21080847 -79.21022215 81.10821729     6     1004    0    0    0
H 923.70548375 -79.33019371 83.33088476     6     1004    0    0    0
C 927.39192889 -79.74290065 85.09192056     2     1004    1008   1009   1010
H 926.68667049 -80.90600800 86.64519388     6     1007    0    0    0
H 929.06333956 -80.70282402 84.49060869     6     1007    0    0    0
C 927.89010879 -76.97153485 85.87874799     2     1007   1011   1012   1013
H 928.24046810 -76.18338358 84.01038318     6    1010    0    0    0
H 926.23209141 -76.12921729 86.76638101     6    1010    0    0    0
C 930.14429071 -76.67659835 87.42810566     2    1010   1014   1015   1016
H 930.00485781 -77.87496305 89.25301156     6    1013    0    0    0
H 931.64064584 -77.72182959 86.57825821     6    1013    0    0    0
C 930.74367055 -73.90626314 88.14896909     2    1013   1017   1018   1019
H 930.68974266 -72.59490746 86.54506589     6    1016    0    0    0
H 929.08666001 -73.04486376 89.17057065     6    1016    0    0    0
C 932.98829843 -73.64726969 89.88352436     2    1016   1020   1021   1022
H 932.64883141 -75.08129116 91.36688259     6    1019    0    0    0
H 934.78335030 -74.02047106 88.90850947     6    1019    0    0    0
C 933.13750896 -71.21928584 91.55593931     2    1019   1023   1024   1025
H 931.24151509 -70.95399134 92.45311102     6    1022    0    0    0
H 934.66297495 -71.07544257 93.01910180     6    1022    0    0    0
C 933.76491925 -68.76362395 89.95384706     2    1022   1026   1027   1028
H 935.79241815 -68.70213763 89.48063565     6    1025    0    0    0
H 932.69939566 -68.59379678 88.23710365     6    1025    0    0    0
C 933.21877201 -66.42693583 91.60096298     2    1025   1029   1030   1031
H 931.14949743 -66.52186316 92.41859116     6    1028    0    0    0
H 934.62155222 -66.21932391 93.04349953     6    1028    0    0    0
C 933.20390638 -63.91348861 90.08872107     2    1028   1032   1033   1034
H 935.02432692 -63.52665486 89.31038342     6    1031    0    0    0
H 932.08866784 -63.97729998 88.45876188     6    1031    0    0    0
C 932.42623858 -61.55573185 91.52768955     1    1031   1035   1036   1037
H 932.30917948 -59.83928126 90.18494122     6    1034    0    0    0
H 933.97791793 -61.12916692 92.89649059     6    1034    0    0    0
H 930.68131753 -61.92776882 92.34941882     6    1034    0    0    0
H 902.52350683 -64.56541769 61.15295380     6     1039    0    0    0 
C 903.67958088 -63.33852048 59.89551382     1     1038    1040    1041    1042
H 902.31876528 -62.64727375 58.57043263     6     1039    0    0    0
H 904.10339180 -61.93590282 61.13736596     6     1039    0    0    0
C 905.97103401 -64.84705562 58.88744427     2     1039    1043    1044    1045
H 907.46983000 -64.90687000 60.22573529     6     1042    0    0    0
H 905.27702358 -66.78559750 58.83877457     6     1042    0    0    0
C 906.89958740 -63.91196135 56.35498176     2     1042    1046   1047   1048
H 905.23940179 -63.13746110 55.43235095     6     1045    0    0    0
H 908.50825522 -62.58708490 56.62896500     6     1045    0    0    0
C 907.80257036 -66.19818689 54.78655280     2     1045   1049   1050   1051
H 909.14886935 -67.45614104 55.99868002     6    1048    0    0    0
H 906.11016683 -67.31236259 54.44138861     6    1048    0    0    0
C 909.01434659 -65.48359874 52.11279102     2    1048   1052   1053   1054
H 908.31998767 -63.69257864 51.44625822     6    1051    0    0    0
H 911.10072564 -65.50735986 52.44520196     6    1051    0    0    0
C 908.56313738 -67.57370717 50.21143152     2    1051   1055   1056   1057
H 909.24395489 -69.39890279 50.83704651     6    1054    0    0    0
H 906.50897270 -67.38341306 49.99418028     6    1054    0    0    0
C 909.71211554 -67.23779845 47.54251466     2    1054   1058   1059   1060
H 909.24588371 -65.39223342 46.68856282     6    1057    0    0    0
H 911.70670504 -67.04631000 47.34663634     6    1057    0    0    0
C 908.74196448 -69.32991916 45.61987069     2    1057   1061   1062   1063
H 909.56491483 -71.16282547 45.92344942     6    1060    0    0    0
H 906.73442544 -69.58353325 45.68803887     6    1060    0    0    0
C 909.21948959 -68.69113301 42.71066802     2    1060   1064   1065   1066
H 908.67886813 -66.78346218 42.30442680     6    1063    0    0    0
H 911.21619837 -68.82875614 42.26247734     6    1063    0    0    0
C 907.74700581 -70.43085709 40.92952374     2    1063   1067   1068   1069
H 905.84671237 -70.75008397 41.58093688     6    1066    0    0    0
H 907.75756745 -69.28266690 39.13338347     6    1066    0    0    0
C 908.89665359 -73.12677502 40.37850367     2    1066   1070   1071   1072
H 910.59169573 -72.81877607 39.32448429     6    1069    0    0    0
[...]
 1761      C     952.4530404600   -56.8636725500    85.5179351800
 1762      H     954.4819735600   -57.1080459100    85.1464467400
 1763      H     951.6026318300   -57.9505330300    84.0770394600
 1764      C     951.6268388900   -54.1408220100    85.6152671800
 1765      H     952.7011188100   -53.1622874900    87.0999331200
 1766      H     952.3463484800   -53.3298127500    83.8938398700
 1767      C     948.7147167100   -53.5511573400    85.6133118700
 1768      H     947.9751473800   -54.0266828100    83.8659357800
 1769      H     948.0305094700   -54.8590702000    86.9523130700
 1770      C     948.2039970400   -50.6879088400    86.1953194400
 1771      H     949.0610162200   -50.2566879400    88.0012608800
 1772      H     949.0007898900   -49.5818599300    84.6472401100
 1773      C     945.2107747100   -50.1956185500    86.3316281200
 1774      H     944.5830064600   -50.7587830100    84.4991726300
 1775      H     944.3316788400   -51.3176992500    87.9091413300
 1776      C     944.9959528100   -47.2400124500    87.0853026200
 1777      H     945.6632007200   -47.0701114300    89.0468591800
 1778      H     946.1259674500   -46.2098819200    85.8083524500
 1779      C     942.1728251900   -46.3160427400    87.1539151700
 1780      H     941.6794078500   -46.1991035800    85.2657380500
 1781      H     940.9930308000   -47.7499902700    88.2216998700
 1782      C     941.9263724400   -43.5049680400    88.2547186500
 1783      H     943.1647101100   -42.1839802700    87.0724361100
 1784      H     940.0213956000   -42.5443646300    87.8527564500
 1785      C     942.5968640900   -43.4290529400    91.1500828200
 1786      H     941.9747161400   -45.1356494600    92.1955027000
 1787      H     944.7000210900   -43.3618819600    91.3413759000
 1788      C     941.6757404200   -41.0954801400    92.4917955500
 1789      H     942.6805733600   -39.5347129800    91.7384454800
 1790      H     939.6885941200   -40.7615570800    91.8156053600
 1791      C     941.6341492000   -41.1998558700    95.4166203100
 1792      H     941.2026546500   -42.9918420600    96.1311406100
 1793      H     943.5827006700   -40.8877541900    96.0472758500
 1794      C     939.8605449600   -39.3932498700    96.8474002700
 1795      H     937.9698847100   -39.2864526700    95.9571079300
 1796      H     940.4745072100   -37.3857846500    96.8982762800
 1797      H     939.5917889700   -39.9252433900    98.9790940600
 1798      H     915.7749437400   -53.0756541600    43.4432422200
 1799      C     915.8866505700   -52.3663650900    45.3411616100
 1800      H     915.2674367700   -50.4272536400    45.3375127100
 1801      H     914.6681641300   -53.4265542200    46.6681527900
 1802      C     918.8213212500   -52.2748201500    45.9205119700
 1803      H     919.8304451600   -51.0873910000    44.4888620900
 1804      H     918.9331637700   -51.3408056400    47.7810724100
 1805      C     919.7037223900   -54.9407285400    45.9929038900
 1806      H     918.3253782000   -55.9769884000    47.0578720500
 1807      H     919.8953914600   -55.8618918400    44.1802974000
 1808      C     922.2390437300   -55.2412241400    47.4578364900
 1809      H     924.1166214000   -54.4456276500    46.7861589200
 1810      H     921.9408387700   -54.3336223500    49.2736990300
 1811      C     922.6385783500   -57.9987538500    48.0481347300
 1812      H     920.8894211100   -58.9174881400    48.9405347000
 1813      H     923.0918805200   -58.9134969500    46.3176539900
 1814      C     924.9211720800   -58.4633695400    49.8530251100
 1815      H     926.5667051400   -57.4447443800    49.0763149700
 1816      H     924.8412240400   -57.4468848800    51.6002170600
 1817      C     925.4794406600   -61.2891573500    50.3838913500
 1818      H     923.7162690200   -62.3537437200    51.1240630400
 1819      H     925.8182289800   -62.0085244500    48.4585905800
 1820      C     927.7290504800   -62.1450595400    52.0190844600
 1821      H     929.2982035100   -60.8402822900    51.6758811100
 1822      H     927.3278338700   -61.8468628100    53.9852204300
 1823      C     928.5647379000   -65.0069259200    51.5511943900
 1824      H     926.9141910700   -66.3445558200    51.7195057500
 1825      H     928.8766514100   -65.1063449300    49.5340668000
 1826      C     930.7097075200   -66.0603270100    53.0393684200
 1827      H     932.3024698600   -64.7781888700    53.0055870000
 1828      H     930.2676691000   -66.0863371700    54.9737752700
 1829      C     931.9078272400   -68.4692636400    52.2230452100
 1830      H     930.4920488600   -70.0290821500    52.6141016700
 1831      H     932.2505032400   -68.4678285400    50.1388039100
 1832      C     934.4958505500   -69.3229707400    53.5464300700
 1833      H     934.9225022300   -71.2288032600    52.7040276500
 1834      H     934.1800792000   -69.7535268000    55.5315499900
 1835      H     935.9556977000   -67.8661619700    53.3764235900
 1836      H     930.8897782200   -60.6038275600    61.4606772300
 1837      C     932.5590475900   -59.5020529900    61.8312346300
 1838      H     932.1310081000   -57.7114309800    60.8881694600
 1839      H     932.9885852500   -59.5807364500    63.8540035100
 1840      C     934.8420131200   -60.1833261700    60.2392549200
 1841      H     936.4073460200   -59.0775823000    60.4626647500
 1842      H     935.7714743700   -62.1101967600    60.5939168400
 1843      C     934.1328893200   -60.2076120700    57.3801314700
 1844      H     932.7243648600   -61.8508141400    57.1179369600
 1845      H     933.4895851000   -58.2072452900    57.0878671900
 1846      C     936.3824305000   -60.7313431400    55.7160341800
 1847      H     938.0294782900   -60.2941961600    56.8518704700
 1848      H     936.5421245600   -62.6551316000    54.9863404000
 1849      C     936.7841215700   -58.9279691500    53.6418439400
 1850      H     935.4715656800   -59.4307353300    52.1956701700
 1851      H     936.3914283600   -57.0475828100    54.2781860700
 1852      C     939.6350472100   -58.8809267500    52.9092166000
 1853      H     940.3483371700   -60.8304755200    53.0895771900
 1854      H     939.7685963700   -58.4457163600    50.8658679400
 1855      C     941.2996034400   -56.8656567500    54.2101887600
 1856      H     940.5126014100   -56.1316983100    56.0146285500
 1857      H     943.0056569400   -57.7331145900    54.7401856000
 1858      C     942.0432716000   -54.5711164500    52.5454803500
 1859      H     943.3962368900   -53.4150144500    53.6298581100
 1860      H     943.5550507300   -55.1845755900    51.2198330600
 1861      C     939.8575278200   -53.1426198100    51.2614511500
 1862      H     938.3981504700   -54.4485240900    50.6163489600
 1863      H     938.7489798300   -51.9885178500    52.7150141100
 1864      C     940.9554166900   -51.4735463000    49.0951672200
 1865      H     942.5277267700   -50.3274853200    49.6743092100
 1866      H     941.7698823100   -52.7036852300    47.6689806000
 1867      C     939.0830441600   -49.7707141200    47.7288161300
 1868      H     937.4442073700   -50.9311159500    47.2315644000
 1869      H     938.6014866500   -48.1817552400    48.8853376900
 1870      C     940.0377361900   -48.5714307200    45.3455125600
 1871      H     938.7394769900   -47.5863389300    44.2590561500
 1872      H     940.6668383200   -49.9334371300    43.9200961200
 1873      H     941.7369715500   -47.4248119900    45.6987813500
 1874      H     919.9224538200   -36.1386589100    71.5754777100
 1875      C     920.4474233100   -37.6965180300    70.3019505800
 1876      H     919.1521199800   -38.0969703300    68.6300049000
 1877      H     922.2954572400   -37.3772979900    69.3394058100
 1878      C     920.6729350300   -40.1449132800    71.7792880800
 1879      H     921.4230560500   -40.0174133800    73.6348434000
 1880      H     918.7897003700   -40.9468309800    72.0787691800
 1881      C     922.1245162800   -42.2791603200    70.4321944300
 1882      H     921.4998896400   -42.5421352800    68.4414914600
 1883      H     924.0883647700   -41.6754715700    70.3530311500
 1884      C     922.0061923500   -44.7067061100    71.9750980600
 1885      H     923.3003413700   -44.7011638400    73.6499295200
 1886      H     920.2076197400   -44.8774470200    72.7371692500
 1887      C     922.5556229000   -46.9263708600    70.2343501800
 1888      H     921.1066204800   -46.8086515200    68.6803673300
 1889      H     924.3963498200   -46.8716951000    69.2896840400
 1890      C     921.9395354500   -49.2725727300    71.8035543500
 1891      H     923.0267633900   -49.1076458200    73.5887236300
 1892      H     919.9886403800   -49.4631906200    72.2996012200
 1893      C     922.7835176700   -51.5847426800    70.3844590500
 1894      H     921.2112960500   -52.0031086200    69.1002371200
 1895      H     924.5051852100   -51.3749815600    69.2777659800
 1896      C     922.8450989400   -53.7515345000    72.2298955500
 1897      H     924.2194338800   -53.3088684700    73.6318853800
 1898      H     920.9827744600   -53.8957337400    73.0013086300
 1899      C     923.3929291300   -56.1156095000    70.7870376300
 1900      H     921.8376812900   -56.3183301600    69.4363430600
 1901      H     925.2709310100   -56.1960564600    69.8857020200
 1902      C     923.0460006200   -58.4027790700    72.6354988100
 1903      H     923.9646641800   -57.8809408300    74.4837467000
 1904      H     920.9226786400   -58.4268771500    72.9578678000
 1905      C     924.0680725000   -60.9430562500    71.6719008800
 1906      H     923.0828218400   -61.6650938200    69.9919837800
 1907      H     925.9536190000   -60.6313212500    70.9867296200
 1908      C     924.0592005400   -62.8579204400    73.8171816900
 1909      H     925.8658721700   -62.3783918800    74.9897457300
 1910      H     924.0793954700   -64.8026584700    73.1268866300
 1911      H     922.5099030500   -62.4151959400    75.0814734500
 ----------------------------------------------------------------
 Nuclear Repulsion Energy =           0.00000000 hartrees
 There are     2498 alpha and     2498 beta electrons

 Total QAlloc Memory Limit   2000 MB
 Mega-Array Size       204 MB
 MEM_STATIC part       192 MB
   **** Step 1: MM calculation on the entire system **** 
 OPLSAA force field loaded.
Reading user-defined FF parameters...
 Reading user defined atom types.
 Found 3 user defined AtomTypes
finished.
Determining angles, torsions, etc. from user defined input
Determining VDW/Coulomb pairs... (useList = 0)

 Time req'd to get MM system information: 0.1 s (CPU) 0.3 s (wall)

 ------ MM Energies ------
   Ebond:           583.829335803651
   Eangle:          851.059673889982
   EUreyBrad:         0.000000000000
   Eimptors:          0.000000000000
   Etorsion:        254.168745955948
   Evdw:        1469226.465344531927
   Ecoulomb:        181.164769056757
   Etot:        1471096.687869238202 Kcal/mol (   2344.341808140196 hartree)
 -------------------------
 Time req'd to calc MM energy: 0.1 s (CPU) 0.1 s (wall)
 OPLSAA force field loaded.
Reading user-defined FF parameters...
 Reading user defined atom types.
 Found 3 user defined AtomTypes
finished.
 Time req'd to get MM system information: 0.0 s (CPU) 0.0 s (wall)
 Time req'd to calc MM gradient: 0.2 s (CPU) 0.2 s (wall)
   **** Step 2: MM calculation on the model system **** 
 Reading user defined atom types.
 Found 3 user defined AtomTypes
 ----------------------------------------------------------------
             Standard Nuclear Orientation (Bohr)
    I     Atom           X                Y                Z
 ----------------------------------------------------------------
    1      Fe    931.1289286400   -53.2569292900    71.3969942300
    2      C     929.4724696000   -54.3710544300    74.0382298900
    3      C     929.9731999500   -53.5269735000    68.2687228000
    4      C     934.5375494900   -52.1837541500    72.1603954100
    5      C     931.9219619500   -56.8084949300    71.2090528700
    6      C     929.8884135200   -50.0565983000    71.7935509000
    7      O     928.5302175200   -55.1506741700    75.9250680200
    8      O     929.4183520600   -54.1153230500    66.2407305600
    9      O     936.4847712600   -51.8271786900    72.8013531100
   10      O     932.2673983800   -58.9314925700    71.3217934600
   11      O     929.1048997000   -48.0820562800    71.9716920300
 ----------------------------------------------------------------
 Nuclear Repulsion Energy =         795.91192906 hartrees
 There are       48 alpha and       48 beta electrons
 OPLSAA force field loaded.
Reading user-defined FF parameters...
 Reading user defined atom types.
 Found 3 user defined AtomTypes
finished.
Determining VDW/Coulomb pairs... (useList = 0)

 No MM bonds in system. Return all possible pairs.
 Time req'd to get MM system information: 0.0 s (CPU) 0.0 s (wall)

 ------ MM Energies ------
   Ebond:             0.000000000000
   Eangle:            0.000000000000
   EUreyBrad:         0.000000000000
   Eimptors:          0.000000000000
   Etorsion:          0.000000000000
   Evdw:        1469654.131051249802
   Ecoulomb:         -6.715480780238
   Etot:        1469647.415570469573 Kcal/mol (   2342.032245710072 hartree)
 -------------------------
 Eold: 2344.3418081 mm_energy: 2342.0322457 Enew:    2.3095624
 Time req'd to calc MM energy: 0.0 s (CPU) 0.0 s (wall)
 OPLSAA force field loaded.
Reading user-defined FF parameters...
 Reading user defined atom types.
 Found 3 user defined AtomTypes
finished.
Determining VDW/Coulomb pairs... (useList = 0)

 No MM bonds in system. Return all possible pairs.
 Time req'd to get MM system information: 0.0 s (CPU) 0.0 s (wall)
 Number of fixed atoms: 0
 Time req'd to calc MM gradient: 0.0 s (CPU) 0.0 s (wall)
   **** Step 3: QM calculation on the model system **** 
 Requested basis set is def2-mSVP
 There are 80 shells and 174 basis functions

                       Distance Matrix (Bohrs)
             Fe(  1)   C (  2)   C (  3)   C (  4)   C (  5)   C (  6)
   C (  2)  3.310779
   C (  3)  3.345850  5.852385
   C (  4)  3.654201  5.828000  6.146759
   C (  5)  3.643877  4.466024  4.817842  5.397646
   C (  6)  3.455178  4.881201  4.947232  5.125801  7.075667
   O (  7)  5.553649  2.248512  7.958532  7.685272  6.040952  6.698040
   O (  8)  5.499997  7.801879  2.183292  8.060991  6.181057  6.894057
   O (  9)  5.718519  7.561319  8.113852  2.080780  6.940329  6.903807
   O ( 10)  5.788129  5.999021  6.617659  7.168599  2.153870  9.200319
   O ( 11)  5.586258  6.630021  6.641766  6.809788  9.201532  2.131770
             O (  7)   O (  8)   O (  9)   O ( 10)
   O (  8)  9.779935
   O (  9)  9.169413  9.910179
   O ( 10)  7.032158  7.558423  8.393248
   O ( 11)  8.119409  8.327213  8.317258 11.319630

 A cutoff of  1.0D-11 yielded   2487 shell pairs
 There are     12807 function pairs (     14650 Cartesian)
 Smallest overlap matrix eigenvalue = 2.63E-03
 Guess MOs from SCF MO coefficient file
 Reading MOs from coefficient file
 Reading MOs from coefficient file
 A restricted Kohn-Sham SCF calculation will be
 performed using Pulay DIIS extrapolation
 Exchange:  B88      Correlation:  P86
 Using SG-1 standard quadrature grid
 SCF converges when DIIS error is below 1.0E-08
 Using Q-Chem read-in guess as SCF_GUESS READ specified.

 using 2 threads for integral computing
 -------------------------------------------------------
 OpenMP Integral computing Module                
 Release: version 1.0, May 2013, Q-Chem Inc. Pittsburgh 
 -------------------------------------------------------
 ---------------------------------------
  Cycle       Energy         DIIS Error
 ---------------------------------------
    1   -1830.5018848684      7.46E-10
    2   -1830.5018848694      4.49E-09 Convergence criterion met
 ---------------------------------------
 SCF time:  CPU 2.72 s  wall 1.42 s
 E(QM + QM/MM):    -1830.5018848694 E(MM):    2.3095624 E(Tot): -1828.192322439318 
 SCF   energy in the final basis set = -1828.19232244
 Total energy in the final basis set = -1828.19232244

 --------------------------------------------------------------

                    Orbital Energies (a.u.)
 --------------------------------------------------------------

 Alpha MOs
 -- Occupied --
******** -29.6240 -25.5845 -25.5710 -25.5673 -18.8983 -18.8883 -18.8862
-18.8627 -18.8580 -10.0613 -10.0466 -10.0372 -10.0310 -10.0261  -3.3080
 -2.1427  -2.1208  -2.1099  -1.0941  -1.0825  -1.0787  -1.0417  -1.0192
 -0.5642  -0.5271  -0.5175  -0.5088  -0.5081  -0.4544  -0.4515  -0.4491
 -0.4448  -0.4427  -0.4385  -0.4375  -0.4229  -0.4114  -0.4079  -0.4017
 -0.3968  -0.3932  -0.3898  -0.3708  -0.2656  -0.2566  -0.2234  -0.2106
 -- Virtual --
 -0.1023  -0.0867  -0.0843  -0.0669  -0.0610  -0.0599  -0.0536  -0.0515
 -0.0369  -0.0274  -0.0150   0.0159   0.1897   0.2245   0.2284   0.2609
  0.2963   0.3264   0.3556   0.3808   0.4110   0.4234   0.4310   0.4377
  0.4582   0.4755   0.4874   0.5015   0.5252   0.5556   0.5889   0.5950
  0.6302   0.6467   0.6620   0.6828   0.7303   0.7345   0.7560   0.7677
  0.7921   0.8325   0.8399   0.8609   0.8888   0.9168   0.9426   0.9535
  0.9706   0.9745   0.9981   1.0112   1.0195   1.0311   1.0448   1.0514
  1.2111   1.2539   1.3019   1.3187   1.3834   1.3976   1.4009   1.4074
  1.4143   1.4226   1.4251   1.4415   1.4437   1.4540   1.4656   1.4766
  1.5206   1.5389   1.5529   1.5782   1.6015   1.6541   1.6664   1.6729
  1.6938   1.8225   1.8315   1.8371   1.8504   1.8545   1.8565   1.8638
  1.8734   1.8804   1.8838   1.8907   1.9045   1.9299   1.9394   1.9549
  2.4124   2.4235   2.4327   2.4823   2.4902   2.4938   2.5017   2.5134
  2.5375   2.5530   2.6471   2.6547   2.6647   2.6927   2.7017   2.8325
  2.8349   2.8878   2.9405   2.9868  13.2384  13.2726  13.3294  13.3424
 13.4421  24.9309  24.9528  24.9714  25.0155  25.0320
 --------------------------------------------------------------

          Ground-State Mulliken Net Atomic Charges

     Atom                 Charge (a.u.)
  ----------------------------------------
      1 Fe                   -0.446363
      2 C                     0.182887
      3 C                     0.177937
      4 C                     0.185257
      5 C                     0.195113
      6 C                     0.176872
      7 O                    -0.153344
      8 O                    -0.121311
      9 O                    -0.044346
     10 O                    -0.072277
     11 O                    -0.080425
  ----------------------------------------
  Sum of atomic charges =     0.000000

 -----------------------------------------------------------------
                    Cartesian Multipole Moments
 -----------------------------------------------------------------
    Charge (ESU x 10^10)
                -0.0000
    Dipole Moment (Debye)
         X       0.8223456893      Y       0.2780406954      Z      -0.1080626040
       Tot       0.8747780218
    Quadrupole Moments (Debye-Ang)
        XX     742.6973     XY     113.1958     YY     -82.8182
        XZ     -21.6508     YZ      14.2647     ZZ     -80.0066
    Octopole Moments (Debye-Ang^2)
       XXX  498888.3159    XXY   45960.3526    XYY  -40116.3592
       YYY    6360.2649    XXZ    2333.8650    XYZ    6113.1535
       YYZ   -3261.9737    XZZ  -38200.5078    YZZ    2718.6329
       ZZZ   -8617.3345
    Hexadecapole Moments (Debye-Ang^3)
      XXXX ************   XXXY ************   XXYY ************
      XYYY 3113843.5606   YYYY -348091.5570   XXXZ 6291850.7871
      XXYZ 2633600.4997   XYYZ ************   YYYZ  244995.2922
      XXZZ ************   XYZZ 1304134.9534   YYZZ -186301.9004
      XZZZ ************   YZZZ  262380.6274   ZZZZ -641080.9906
 -----------------------------------------------------------------
 Calculating MO derivatives via CPSCF
 Full subspace dimension requested for CIS/TDDFT
 MAX_CIS_SUBSPACE fits in available memory
