                  Welcome to Q-Chem
     A Quantum Leap Into The Future Of Chemistry


 Q-Chem 5.4 (devel), Q-Chem, Inc., Pleasanton, CA (2021)

 E. Epifanovsky,  A. T. B. Gilbert,  Xintian Feng,  Joonho Lee,  Yuezhi Mao,  
 N. Mardirossian,  P. Pokhilko,  A. White,  M. Wormit,  M. P. Coons,  
 A. L. Dempwolff,  Zhengting Gan,  D. Hait,  P. R. Horn,  L. D. Jacobson,  
 I. Kaliman,  J. Kussmann,  A. W. Lange,  Ka Un Lao,  D. S. Levine,  Jie Liu,  
 S. C. McKenzie,  A. F. Morrison,  K. Nanda,  F. Plasser,  D. R. Rehn,  
 M. L. Vidal,  Zhi-Qiang You,  Ying Zhu,  B. Alam,  B. Albrecht,  
 A. Aldossary,  E. Alguire,  J. H. Andersen,  D. Barton,  K. Begam,  A. Behn,  
 Y. A. Bernard,  E. J. Berquist,  H. Burton,  A. Carreras,  K. Carter-Fenk,  
 R. Chakraborty,  A. D. Chien,  K. D. Closser,  V. Cofer-Shabica,  
 S. Dasgupta,  Jia Deng,  M. de Wergifosse,  M. Diedenhofen,  Hainam Do,  
 S. Ehlert,  Po-Tung Fang,  S. Fatehi,  Qingguo Feng,  T. Friedhoff,  
 J. Gayvert,  Qinghui Ge,  G. Gidofalvi,  M. Goldey,  J. Gomes,  
 C. Gonzalez-Espinoza,  S. Gulania,  A. Gunina,  M. W. D. Hanson-Heine,  
 P. H. P. Harbach,  A. W. Hauser,  M. F. Herbst,  M. Hernandez Vera,  
 M. Hodecker,  Z. C. Holden,  S. Houck,  Xunkun Huang,  Kerwin Hui,  
 B. C. Huynh,  M. Ivanov,  Hyunjun Ji,  Hanjie Jiang,  B. Kaduk,  S. Kaehler,  
 K. Khistyaev,  Jaehoon Kim,  P. Klunzinger,  Z. Koczor-Benda,  
 Joong Hoon Koh,  D. Kosenkov,  L. Koulias,  T. Kowalczyk,  C. M. Krauter,  
 K. Kue,  A. Kunitsa,  T. Kus,  A. Landau,  K. V. Lawler,  D. Lefrancois,  
 S. Lehtola,  Rain Li,  Yi-Pei Li,  Jiashu Liang,  M. Liebenthal,  
 Hung-Hsuan Lin,  You-Sheng Lin,  Fenglai Liu,  Kuan-Yu Liu,  
 M. Loipersberger,  A. Luenser,  A. Manjanath,  P. Manohar,  E. Mansoor,  
 S. F. Manzer,  Shan-Ping Mao,  A. V. Marenich,  T. Markovich,  S. Mason,  
 S. A. Maurer,  P. F. McLaughlin,  M. F. S. J. Menger,  J.-M. Mewes,  
 S. A. Mewes,  P. Morgante,  J. W. Mullinax,  K. J. Oosterbaan,  G. Paran,  
 Alexander C. Paul,  Suranjan K. Paul,  F. Pavosevic,  Zheng Pei,  S. Prager,  
 E. I. Proynov,  E. Ramos,  B. Rana,  A. E. Rask,  A. Rettig,  R. M. Richard,  
 F. Rob,  E. Rossomme,  T. Scheele,  M. Scheurer,  M. Schneider,  
 N. Sergueev,  S. M. Sharada,  W. Skomorowski,  D. W. Small,  C. J. Stein,  
 Yu-Chuan Su,  E. J. Sundstrom,  Zhen Tao,  J. Thirman,  T. Tsuchimochi,  
 N. M. Tubman,  S. P. Veccham,  O. Vydrov,  J. Wenzel,  J. Witte,  A. Yamada,  
 Kun Yao,  S. Yeganeh,  S. R. Yost,  A. Zech,  Igor Ying Zhang,  Xing Zhang,  
 Yu Zhang,  D. Zuev,  A. Aspuru-Guzik,  A. T. Bell,  N. A. Besley,  
 K. B. Bravaya,  B. R. Brooks,  D. Casanova,  Jeng-Da Chai,  S. Coriani,  
 C. J. Cramer,  A. E. DePrince, III,  R. A. DiStasio Jr.,  A. Dreuw,  
 B. D. Dunietz,  T. R. Furlani,  W. A. Goddard III,  S. Grimme,  
 S. Hammes-Schiffer,  T. Head-Gordon,  W. J. Hehre,  Chao-Ping Hsu,  
 T.-C. Jagau,  Yousung Jung,  A. Klamt,  Jing Kong,  D. S. Lambrecht,  
 WanZhen Liang,  N. J. Mayhall,  C. W. McCurdy,  J. B. Neaton,  
 C. Ochsenfeld,  J. A. Parkhill,  R. Peverati,  V. A. Rassolov,  Yihan Shao,  
 L. V. Slipchenko,  T. Stauch,  R. P. Steele,  J. E. Subotnik,  
 A. J. W. Thom,  A. Tkatchenko,  D. G. Truhlar,  T. Van Voorhis,  
 T. A. Wesolowski,  K. B. Whaley,  H. L. Woodcock III,  P. M. Zimmerman,  
 S. Faraji,  P. M. W. Gill,  M. Head-Gordon,  J. M. Herbert,  A. I. Krylov

 Additional authors for Version 5.4.1: 
 S. Kotaru,  Shaozhi Li,  Xiangyuan Li,  F. Matz,  A. Molle,  Haisheng Ren,  
 Yingli Su,  Hung-Yi Tsai,  C. Utku,  Fang Wang

 Contributors to earlier versions of Q-Chem not listed above: 
 R. D. Adamson,  B. Austin,  R. Baer,  J. Baker,  G. J. O. Beran,  
 K. Brandhorst,  S. T. Brown,  E. F. C. Byrd,  A. K. Chakraborty,  
 G. K. L. Chan,  Chun-Min Chang,  Yunqing Chen,  C.-L. Cheng,  
 Siu Hung Chien,  D. M. Chipman,  D. L. Crittenden,  H. Dachsel,  
 R. J. Doerksen,  A. D. Dutoi,  R. G. Edgar,  J. Fosso-Tande,  
 L. Fusti-Molnar,  D. Ghosh,  A. Ghysels,  A. Golubeva-Zadorozhnaya,  
 J. Gonthier,  M. S. Gordon,  S. R. Gwaltney,  G. Hawkins,  J. E. Herr,  
 A. Heyden,  S. Hirata,  E. G. Hohenstein,  G. Kedziora,  F. J. Keil,  
 C. Kelley,  Jihan Kim,  R. A. King,  R. Z. Khaliullin,  P. P. Korambath,  
 W. Kurlancheek,  A. Laurent,  A. M. Lee,  M. S. Lee,  S. V. Levchenko,  
 Ching Yeh Lin,  D. Liotard,  E. Livshits,  R. C. Lochan,  I. Lotan,  
 L. A. Martinez-Martinez,  P. E. Maslen,  N. Nair,  D. P. O'Neill,  
 D. Neuhauser,  E. Neuscamman,  C. M. Oana,  R. Olivares-Amaya,  R. Olson,  
 T. M. Perrine,  B. Peters,  P. A. Pieniazek,  A. Prociuk,  Y. M. Rhee,  
 J. Ritchie,  M. A. Rohrdanz,  E. Rosta,  N. J. Russ,  H. F. Schaefer III,  
 M. W. Schmidt,  N. E. Schultz,  S. Sharma,  N. Shenvi,  C. D. Sherrill,  
 A. C. Simmonett,  A. Sodt,  T. Stein,  D. Stuck,  K. S. Thanthiriwatte,  
 V. Vanovschi,  L. Vogt,  Tao Wang,  A. Warshel,  M. A. Watson,  
 C. F. Williams,  Q. Wu,  X. Xu,  Jun Yang,  W. Zhang,  Yan Zhao

 Please cite Q-Chem as follows:
 Y. Shao et al., Mol. Phys. 113, 184-215 (2015)
 DOI: 10.1080/00268976.2014.952696

 Q-Chem 5.4.1 for Intel X86 EM64T Linux

 Parts of Q-Chem use Armadillo 9.900.5 (Nocturnal Misbehaviour).
 http://arma.sourceforge.net/

 Q-Chem begins on Wed Jun 22 08:05:25 2022  

 Host: p09r16n04.grace.hpc.yale.internal
0

     Scratch files written to /home/tl686/scratch60/qchem_dev/scratch/qchem69233//
 Processing $rem in /home/tl686/qchem_dev/qchem/config/preferences:
 Processing $rem in /home/tl686/.qchemrc:
Applying user defined connections for MM calculations

 Checking the input file for inconsistencies... 	...done.

--------------------------------------------------------------
User input:
--------------------------------------------------------------
$molecule
0   1
 Fe -94.23806361 -57.47361826 -55.08924736    -1  0   0   0   0
C -90.95490003 -56.59430944 -54.37083292    -2  0   0   0   0 
C -97.62228568 -58.19379144 -55.77134452    -2  0   0   0   0
C -94.77549309 -54.16876140 -55.16577111    -2  0   0   0   0
C -93.09228725 -59.05675069 -57.90066394    -2  0   0   0   0
C -94.26072782 -59.11684068 -51.93466481    -2  0   0   0   0
O -88.90331529 -55.97949836 -53.99025602    -3  0   0   0   0
O -99.81108486 -58.53106841 -56.12921946    -3  0   0   0   0 
O -95.18775678 -51.98242586 -55.61782866    -3  0   0   0   0
O -92.48498345 -60.39285859 -59.57257814    -3  0   0   0   0 
O -94.44004316 -60.00651819 -50.01226245    -3  0   0   0   0
H -75.31480583 -44.13700799 -57.75557795      6     13    0    0    0 
C -73.90884629 -44.37361662 -59.25229152     1     12    14    15    16
H -72.37606968 -43.03382347 -58.95308275     6     13    0    0    0
H -73.17903598 -46.31696624 -59.09109649     6     13    0    0    0
C -75.09962540 -44.06875638 -61.94771614     2     13    17    18    19
H -76.33613540 -42.32759778 -61.75483443     6     16    0    0    0
H -73.73952823 -43.68682925 -63.44796343     6     16    0    0    0
C -76.79304405 -46.30480534 -62.52464870     2     16    20   21   22
H -75.75615167 -48.03200036 -62.08088857     6     19    0    0    0
H -78.35758845 -46.31121192 -61.06266757     6     19    0    0    0
C -77.96754384 -46.13794662 -65.16734698     2     19   23   24   25
H -79.19189366 -44.61603939 -65.36342785     6    22    0    0    0
H -76.51095913 -45.59674114 -66.49016420     6    22    0    0    0
C -79.52164286 -48.49780389 -65.93653770     2    22   26   27   28
H -78.32246378 -50.10704036 -65.64919294     6    25    0    0    0
H -81.15033383 -48.80422796 -64.72558977     6    25    0    0    0
C -80.15851059 -48.63150967 -68.63246967     2    25   29   30   31
H -81.46529520 -47.06116416 -69.11203277     6    28    0    0    0
H -78.48777745 -48.01263348 -69.68281738     6    28    0    0    0
C -80.87843419 -51.38801040 -69.34542625     2    28   32   33   34
H -79.42889752 -52.60315412 -68.84581456     6    31    0    0    0
H -82.47085325 -51.78246587 -68.24798650     6    31    0    0    0
C -81.47952671 -51.66473830 -72.22624255     2    31   35   36   37
H -82.50674345 -49.95742597 -72.64713971     6    34    0    0    0
H -80.05359517 -51.66240890 -73.61300989     6    34    0    0    0
C -83.24264398 -53.99581911 -72.79626206     2    34   38   39   40
H -82.58287235 -55.74513592 -71.79443931     6    37    0    0    0
H -85.05685896 -53.52048720 -72.06722355     6    37    0    0    0
C -83.67049887 -54.59164965 -75.63176534     2    37   41   42   43
H -84.36978182 -52.91051140 -76.55093498     6    40    0    0    0
H -81.82981817 -54.73619108 -76.54613922     6    40    0    0    0
C -85.14095417 -57.12042934 -76.12874653     2    40   44   45   46
H -84.04451500 -58.69882220 -75.51406751     6    43    0    0    0
H -86.90228331 -57.10530456 -74.98869630     6    43    0    0    0
C -86.06819650 -57.58172269 -78.83982598     1    43   47   48   49
H -86.96184898 -55.84016296 -79.66043188     6    46    0    0    0
H -87.48184702 -59.04019194 -79.05738930     6    46    0    0    0
H -84.64970130 -57.88468426 -80.25976334     6    46    0    0    0
H -84.43545419 -57.32693489 -60.09282696     6     51    0    0    0 
C -85.40841638 -58.30956614 -61.72138111     1     50    52    53    54
H -84.38552315 -60.05123123 -62.07244254     6     51    0    0    0
H -87.44226458 -58.67940439 -61.74317571     6     51    0    0    0
C -85.00055155 -56.33259293 -63.71487820     2     51    55    56    57
H -86.31239137 -54.81017203 -63.00941122     6     54    0    0    0
H -83.05948318 -55.56304513 -63.75964429     6     54    0    0    0
C -85.93712892 -57.21304553 -66.28160695     2     54    58   59   60
H -88.03039132 -57.52783671 -66.53584992     6     57    0    0    0
H -85.61012560 -55.59945884 -67.57572151     6     57    0    0    0
C -84.57993247 -59.49622464 -67.35054731     2     57   61   62   63
H -82.63609374 -59.16929684 -67.11190652     6    60    0    0    0
H -84.88073758 -60.98967834 -66.05571437     6    60    0    0    0
C -85.48666875 -60.22039370 -69.94686819     2    60   64   65   66
H -87.43926910 -61.08165667 -69.72587583     6    63    0    0    0
H -85.66610772 -58.57466764 -71.00898823     6    63    0    0    0
C -83.78711465 -62.26526130 -71.42244411     2    63   67   68   69
H -84.23682898 -62.53846101 -73.39185418     6    66    0    0    0
H -82.04490071 -61.05188611 -71.90270648     6    66    0    0    0
C -83.66543146 -64.74622861 -70.04335337     2    66   70   71   72
H -83.02771315 -64.48879336 -68.08597382     6    69    0    0    0
H -85.52398018 -65.56446846 -69.99763762     6    69    0    0    0
C -81.77064209 -66.54456760 -71.27863282     2    69   73   74   75
H -82.19023555 -66.67364882 -73.37093147     6    72    0    0    0
H -79.81696894 -65.78866062 -71.12193508     6    72    0    0    0
C -82.21036868 -69.14513873 -70.10542174     2    72   76   77   78
H -81.58358391 -69.01009765 -68.13727141     6    75    0    0    0
H -84.22801409 -69.56351543 -70.05320421     6    75    0    0    0
C -80.68822511 -71.20487340 -71.43090238     2    75   79   80   81
H -81.74675945 -71.89583767 -73.01207250     6    78    0    0    0
H -79.06456857 -70.43253681 -72.41731141     6    78    0    0    0
C -79.60093737 -73.17838495 -69.65923086     2    78   82   83   84
H -78.66433938 -72.26808248 -67.97804669     6    81    0    0    0
H -81.09111396 -74.41969450 -68.73252280     6    81    0    0    0
C -77.71510773 -74.90773899 -71.02358868     1    81   85   86   87
H -77.00743670 -76.41780040 -69.77941111     6    84    0    0    0
H -76.15668524 -73.94420758 -71.91903100     6    84    0    0    0
H -78.67535301 -75.84801399 -72.34764408     6    84    0    0    0
H -82.68334448 -33.94175920 -78.45706382     6     89    0    0    0 
C -82.01450809 -35.16706443 -80.04053657     1     88    90    91    92
H -80.13712074 -34.52847342 -80.67263373     6     89    0    0    0
H -81.80902935 -36.98545181 -79.22512670     6     89    0    0    0
C -83.93562865 -35.34333541 -82.16478616     2     89    93    94    95
H -85.38793569 -36.62555946 -81.35739394     6     92    0    0    0
H -84.66361080 -33.53417494 -82.78271627     6     92    0    0    0
C -82.50602770 -36.47097252 -84.59842356     2     92    96   97   98
H -83.66165169 -36.50389050 -86.29970409     6     95    0    0    0
H -80.62203926 -35.57044644 -85.06220494     6     95    0    0    0
C -81.52991890 -39.31850518 -84.22620926     2     95   99   100   101
H -80.22163782 -39.26138570 -82.73935338     6    98    0    0    0
H -82.87262200 -40.45293329 -83.37283370     6    98    0    0    0
C -80.59703753 -40.85745239 -86.64557234     2    98   102   103   104
H -81.79489875 -40.45145019 -88.22911550     6    101    0    0    0
H -78.74923020 -40.16109909 -87.02018160     6    101    0    0    0
C -80.45235097 -43.65497190 -86.06438175     2    101   105   106   107
H -79.49383226 -43.93105884 -84.21860355     6    104    0    0    0
H -82.34755132 -44.53793759 -85.81471233     6    104    0    0    0
C -79.07775509 -45.28270886 -88.00954042     2    104   108   109   110
H -80.02786986 -45.26957107 -89.80684184     6    107    0    0    0
H -77.32738608 -44.41036027 -88.53295013     6    107    0    0    0
C -78.03221760 -47.97866188 -87.10289247     2    107   111   112   113
H -77.03833509 -47.73399083 -85.33086197     6    110    0    0    0
H -79.84586967 -49.05501677 -86.76765380     6    110    0    0    0
C -76.55472847 -49.38579427 -89.05145622     2    110   114   115   116
H -77.81575386 -50.36322487 -90.49007715     6    113    0    0    0
H -75.67338060 -47.98672546 -90.24202434     6    113    0    0    0
C -74.59947944 -51.23896108 -88.18791009     2    113   117   118   119
H -73.17411169 -49.94579367 -87.61368571     6    116    0    0    0
H -75.39216916 -52.29961344 -86.59086460     6    116    0    0    0
C -73.47266229 -52.87456319 -90.28524141     2    116   120   121   122
H -74.78251434 -54.07135980 -91.22617428     6    119    0    0    0
H -72.71773902 -51.66645019 -91.69322438     6    119    0    0    0
C -71.43982228 -54.60501880 -89.36407790     1    119   123   124   125
H -70.51423264 -55.51815335 -90.98746739     6    122    0    0    0
H -72.12377310 -56.04496963 -88.04260115     6    122    0    0    0
H -69.92560134 -53.28876886 -88.81003575     6    122    0    0    0
H -105.80184216 -42.70401240 -81.71693503     6     127    0    0    0 
C -106.13036735 -43.15808252 -79.78190962     1     126    128    129    130
H -108.25734710 -43.45024951 -79.78451627     6     127    0    0    0
H -105.33857727 -45.02140140 -79.50216067     6     127    0    0    0
C -104.98616477 -41.24863728 -77.92861014     2     127    131    132    133
H -102.95108192 -41.60693822 -77.89827961     6     130    0    0    0
H -105.12295298 -39.29954335 -78.50235389     6     130    0    0    0
C -106.32291778 -41.69750477 -75.43210383     2     130    134   135   136
H -108.06757683 -40.86590654 -75.45964820     6     133    0    0    0
H -106.63092502 -43.77630597 -75.38033690     6     133    0    0    0
C -104.82208891 -40.68248713 -73.14350073     2     133   137   138   139
H -102.95245196 -41.45607210 -73.29048351     6    136    0    0    0
H -104.53225618 -38.59582906 -73.29099244     6    136    0    0    0
C -106.13181957 -41.63864507 -70.62639577     2    136   140   141   142
H -107.97281343 -40.66074258 -70.41819961     6    139    0    0    0
H -106.48347940 -43.61067264 -71.02942879     6    139    0    0    0
C -104.40412787 -41.14646123 -68.43446358     2    139   143   144   145
H -102.67813526 -42.13981104 -68.67289811     6    142    0    0    0
H -104.09476861 -39.10732193 -68.13353797     6    142    0    0    0
C -105.69411161 -42.12374168 -66.10966510     2    142   146   147   148
H -107.51688656 -41.29041072 -65.59310908     6    145    0    0    0
H -106.09397806 -44.14898834 -66.37318879     6    145    0    0    0
C -104.04815963 -41.68280739 -63.73591873     2    145   149   150   151
H -102.25836830 -42.58973682 -63.93856972     6    148    0    0    0
H -103.55948667 -39.69356154 -63.41635907     6    148    0    0    0
C -105.79392911 -42.45306799 -61.45626313     2    148   152   153   154
H -107.37825050 -41.15543807 -61.28106536     6    151    0    0    0
H -106.60770079 -44.32102124 -61.93154410     6    151    0    0    0
C -104.50941530 -43.04419478 -58.86273219     2    151   155   156   157
H -105.94667694 -44.16286165 -57.69236601     6    154    0    0    0
H -102.93024231 -44.40104581 -58.87433897     6    154    0    0    0
C -103.76381973 -40.69474167 -57.14405967     2    154   158   159   160
H -102.95508810 -39.14785680 -58.28490789     6    157    0    0    0
H -105.58630011 -39.75842873 -56.55960614     6    157    0    0    0
C -102.07055368 -41.34376276 -54.76419073     1    157   161   162   163
H -102.93308128 -42.75183096 -53.50188568     6    160    0    0    0
H -102.10109924 -39.74789860 -53.46309346     6    160    0    0    0
H -100.15270192 -41.84587489 -55.10074450     6    160    0    0    0
H -107.99976763 -63.97554452 -87.88556261     6     165    0    0    0 
C -109.53804574 -63.07688161 -86.87186512     1     164    166    167    168
H -111.11997140 -63.71770339 -87.96895463     6     165    0    0    0
H -109.22233616 -63.98066496 -85.01739458     6     165    0    0    0
C -109.46189484 -60.21764243 -86.79967476     2     165    169    170    171
H -107.68717350 -59.57340413 -86.08200918     6     168    0    0    0
H -109.39083978 -59.70787752 -88.84187926     6     168    0    0    0
C -111.84381943 -58.79093638 -85.73079137     2     168    172   173   174
H -113.22606985 -59.41323461 -87.19375048     6     171    0    0    0
H -112.45581955 -59.36234283 -83.85481756     6     171    0    0    0
C -111.39169803 -55.96988954 -85.85582841     2     171   175   176   177
H -109.60874921 -55.49266521 -84.87430647     6    174    0    0    0
H -111.41322133 -55.39502132 -87.85800345     6    174    0    0    0
C -113.48239427 -54.32438392 -84.68200547     2    174   178   179   180
H -115.34453007 -54.88689466 -85.46472169     6    177    0    0    0
H -113.53730734 -54.82353213 -82.67607936     6    177    0    0    0
C -113.18229976 -51.53447064 -85.03348885     2    177   181   182   183
H -111.52953442 -50.92310945 -83.97261813     6    180    0    0    0
H -112.97055398 -50.95689573 -87.06201784     6    180    0    0    0
C -115.21390144 -49.97294148 -84.07821742     2    180   184   185   186
H -116.85573223 -49.82842310 -85.23529234     6    183    0    0    0
H -115.48288231 -50.37344595 -82.08085689     6    183    0    0    0
C -114.24853402 -47.19589239 -83.79346767     2    183   187   188   189
H -112.36893970 -47.01424486 -82.71668347     6    186    0    0    0
H -113.63681142 -46.46991244 -85.70542135     6    186    0    0    0
C -116.28712381 -45.46212394 -82.53865652     2    186   190   191   192
H -117.88285928 -45.21804417 -83.78780131     6    189    0    0    0
H -116.86216827 -46.16166256 -80.63140720     6    189    0    0    0
C -115.54158676 -42.64743730 -82.37978357     2    189   193   194   195
H -113.85186115 -42.47778941 -81.35449719     6    192    0    0    0
H -115.08221469 -42.12072385 -84.18262197     6    192    0    0    0
C -117.81430217 -41.14544938 -81.25008067     2    192   196   197   198
H -119.30327097 -40.68092694 -82.60666751     6    195    0    0    0
H -118.78045968 -42.21069766 -79.78390133     6    195    0    0    0
C -116.66698403 -38.88609307 -80.22901011     1    195   199   200   201
H -117.64776419 -38.06050535 -78.67242097     6    198    0    0    0
H -116.41632286 -37.47283259 -81.61974952     6    198    0    0    0
H -114.66973651 -39.07492955 -79.65806583     6    198    0    0    0
H -101.10322253 -66.85647236 -83.11398275     6     203    0    0    0 
C -102.57178640 -67.70190431 -81.92760551     1     202    204    205    206
H -103.28133708 -69.26197266 -82.98287019     6     203    0    0    0
H -101.36592808 -68.40641010 -80.46521628     6     203    0    0    0
C -104.83410668 -66.12161460 -81.11775207     2     203    207    208    209
H -104.67906660 -65.26337011 -79.34048982     6     206    0    0    0
H -105.00472337 -64.51702303 -82.41023516     6     206    0    0    0
C -107.47087028 -67.41970692 -81.17809558     2     206    210   211   212
H -109.12037504 -65.98792389 -81.13091955     6     209    0    0    0
H -107.74037314 -68.40169924 -83.00541365     6     209    0    0    0
C -107.66511880 -69.10238257 -78.68193289     2     209   213   214   215
H -105.92898666 -70.07569000 -78.19380862     6    212    0    0    0
H -108.25934248 -67.98819865 -77.09700308     6    212    0    0    0
C -109.55822585 -71.16050005 -78.84911715     2    212   216   217   218
H -111.40803358 -70.25046685 -79.03522472     6    215    0    0    0
H -109.39778144 -72.01766928 -80.64546741     6    215    0    0    0
C -109.31932114 -72.96109676 -76.64870710     2    215   219   220   221
H -107.40306170 -73.56294960 -76.50567394     6    218    0    0    0
H -109.88264090 -71.69202782 -75.16254478     6    218    0    0    0
C -111.24351906 -75.13402526 -76.91393851     2    218   222   223   224
H -113.10965649 -74.22601117 -76.86833097     6    221    0    0    0
H -111.19340823 -76.06234843 -78.73876909     6    221    0    0    0
C -110.68342689 -76.95405632 -74.76581616     2    221   225   226   227
H -108.76090440 -77.79856953 -74.91226614     6    224    0    0    0
H -110.41589462 -75.83316597 -73.05083305     6    224    0    0    0
C -112.52039363 -79.21719436 -74.52438835     2    224   228   229   230
H -114.29558120 -78.71220231 -73.63018927     6    227    0    0    0
H -112.94109793 -79.95744228 -76.30653237     6    227    0    0    0
C -111.25685965 -81.47436708 -73.16576166     2    227   231   232   233
H -109.64344271 -82.07704650 -74.21622406     6    230    0    0    0
H -110.26630919 -80.90034153 -71.45025772     6    230    0    0    0
C -113.04944543 -83.79102476 -72.62312388     2    230   234   235   236
H -114.83260132 -83.05110238 -71.91584205     6    233    0    0    0
H -113.61118479 -84.68347136 -74.31186109     6    233    0    0    0
C -111.74334277 -85.75383725 -70.96132851     1    233   237   238   239
H -112.98864828 -87.42609700 -70.69822171     6    236    0    0    0
H -111.55070948 -85.05785346 -69.04788602     6    236    0    0    0
H -109.97344022 -86.12966119 -71.92740452     6    236    0    0    0
H -81.34555047 -68.97892619 -79.65748289     6     241    0    0    0 
C -79.58463908 -68.57989717 -78.68487694     1     240    242    243    244
H -78.38444902 -67.29725695 -79.76841638     6     241    0    0    0
H -80.28228018 -67.26862337 -77.15717588     6     241    0    0    0
C -78.05610708 -70.96497132 -77.74900324     2     241    245    246    247
H -76.72390077 -70.18514942 -76.37172529     6     244    0    0    0
H -79.27998382 -72.22519401 -76.61057783     6     244    0    0    0
C -76.66213168 -72.30687345 -79.89722562     2     244    248   249   250
H -77.96480256 -72.74981437 -81.33746266     6     247    0    0    0
H -75.19908748 -71.13121342 -80.58380314     6     247    0    0    0
C -75.48635530 -74.81071490 -79.07642087     2     247   251   252   253
H -76.85757288 -75.96213150 -78.00523379     6    250    0    0    0
H -75.34105755 -75.85436751 -80.74370444     6    250    0    0    0
C -72.89584975 -74.54166329 -77.84779502     2    250   254   255   256
H -71.72984598 -73.52231676 -79.36828816     6    253    0    0    0
H -72.97133830 -73.40845455 -76.22268693     6    253    0    0    0
C -71.25925582 -77.08334508 -77.47069536     2    253   257   258   259
H -72.42561312 -78.31139465 -76.50181427     6    256    0    0    0
H -71.28715691 -78.01604878 -79.33674777     6    256    0    0    0
C -68.67257772 -76.92910570 -76.34014320     2    256   260   261   262
H -67.38731149 -75.94064585 -77.56103380     6    259    0    0    0
H -68.80868152 -75.64621168 -74.77076701     6    259    0    0    0
C -67.58175033 -79.43898969 -75.73115531     2    259   263   264   265
H -68.45790882 -80.17050082 -74.04783742     6    262    0    0    0
H -68.05720366 -81.01216077 -77.16024122     6    262    0    0    0
C -64.69336556 -79.48094453 -75.24862091     2    262   266   267   268
H -63.65205341 -78.20275037 -76.24584360     6    265    0    0    0
H -64.41127165 -78.89338452 -73.30039246     6    265    0    0    0
C -63.46407193 -82.08711395 -75.48390880     2    265   269   270   271
H -64.79408092 -83.53059147 -74.80373146     6    268    0    0    0
H -63.26356367 -82.38446383 -77.60799757     6    268    0    0    0
C -60.99526370 -82.15735260 -74.07803135     2    268   272   273   274
H -59.60827894 -80.77260955 -74.71876730     6    271    0    0    0
H -61.34619475 -81.91732647 -72.06281268     6    271    0    0    0
C -59.92548444 -84.83064891 -74.26335411     1    271   275   276   277
H -61.15838096 -86.22330367 -73.55375733     6    274    0    0    0
H -58.08021684 -84.87014060 -73.31165921     6    274    0    0    0
H -59.69165473 -85.36624008 -76.26099768     6    274    0    0    0
H -97.54716691 -58.66918397 -87.05188336     6     279    0    0    0 
C -97.59116130 -60.67077547 -87.19216016     1     278    280    281    282
H -99.57012300 -61.25039448 -87.52699015     6     279    0    0    0
H -96.48979308 -61.26502346 -88.83417604     6     279    0    0    0
C -96.15698476 -61.73135110 -84.99451717     2     279    283    284    285
H -94.26400945 -60.93675598 -84.78687815     6     282    0    0    0
H -97.28609847 -61.15350070 -83.35341263     6     282    0    0    0
C -95.77083215 -64.62043802 -85.15237036     2     282    286   287   288
H -97.43195784 -65.73811577 -85.07830627     6     285    0    0    0
H -94.85984491 -65.11237954 -87.01405605     6     285    0    0    0
C -93.89015328 -65.53839350 -82.99776450     2     285   289   290   291
H -92.07525393 -64.53917540 -82.82473117     6    288    0    0    0
H -94.74752740 -65.35536015 -81.12306408     6    288    0    0    0
C -93.10725756 -68.28256952 -83.23441057     2    288   292   293   294
H -93.65171310 -68.75547591 -85.14430083     6    291    0    0    0
H -91.03373295 -68.42447811 -82.96014253     6    291    0    0    0
C -94.28291840 -70.11382897 -81.36553298     2    291   295   296   297
H -94.05854781 -69.29271734 -79.52996966     6    294    0    0    0
H -96.29140000 -70.04289724 -81.80326967     6    294    0    0    0
C -93.23674760 -72.78920372 -81.73449405     2    294   298   299   300
H -93.50024661 -73.53307178 -83.52579004     6    297    0    0    0
H -91.18040864 -72.81252313 -81.53551769     6    297    0    0    0
C -94.04643035 -74.67474074 -79.74382956     2    297   301   302   303
H -93.79767492 -73.85482694 -77.88010419     6    300    0    0    0
H -95.99028077 -74.88092410 -79.98765002     6    300    0    0    0
C -92.66088631 -77.30743845 -79.60601123     2    300   304   305   306
H -93.06982010 -78.13963634 -81.46756755     6    303    0    0    0
H -90.64526563 -76.92127917 -79.52605916     6    303    0    0    0
C -93.71776883 -78.84173518 -77.50414704     2    303   307   308   309
H -93.77579433 -77.88786505 -75.70716653     6    306    0    0    0
H -95.68953098 -79.43821969 -77.98773437     6    306    0    0    0
C -92.25023954 -81.28039745 -77.15327921     2    306   310   311   312
H -92.05191727 -82.32477922 -78.86238460     6    309    0    0    0
H -90.38963518 -80.92162686 -76.62185023     6    309    0    0    0
C -93.54211479 -83.15165654 -75.10612980     1    309   313   314   315
H -93.26062165 -82.26325145 -73.23627616     6    312    0    0    0
H -93.09438779 -85.14287955 -75.32466619     6    312    0    0    0
H -95.55953894 -83.31041453 -75.37457865     6    312    0    0    0
H -98.64834457 -42.33390130 -81.52588066     6     317    0    0    0 
C -96.65716916 -42.59219086 -81.21137102     1     316    318    319    320
H -96.46290599 -44.55815299 -81.35986774     6     317    0    0    0
H -95.57444860 -41.76013945 -82.85999846     6     317    0    0    0
C -95.83536011 -41.51202389 -78.58046764     2     317    321    322    323
H -93.70670931 -41.75135301 -78.27929030     6     320    0    0    0
H -96.08758419 -39.57185652 -78.76716274     6     320    0    0    0
C -97.14613568 -42.64185647 -76.22503566     2     320    324   325   326
H -99.13892226 -42.38928978 -76.75229439     6     323    0    0    0
H -96.87258221 -44.58994768 -76.01509731     6     323    0    0    0
C -96.21295441 -41.30837857 -73.86254052     2     323   327   328   329
H -94.10385303 -41.20557790 -73.94695518     6    326    0    0    0
H -96.61599419 -39.30581977 -73.94055839     6    326    0    0    0
C -97.41834392 -42.51586206 -71.56069072     2    326   330   331   332
H -99.23137452 -41.52167388 -71.19384198     6    329    0    0    0
H -97.65922655 -44.56041198 -71.73214425     6    329    0    0    0
C -95.77547822 -42.10398753 -69.08972855     2    329   333   334   335
H -93.89031287 -42.99675033 -69.33360745     6    332    0    0    0
H -95.42895473 -40.09875760 -68.67569871     6    332    0    0    0
C -97.16892219 -43.05387628 -66.73684022     2    332   336   337   338
H -98.26978190 -41.53713156 -66.24131788     6    335    0    0    0
H -98.03781570 -44.72364367 -67.35285221     6    335    0    0    0
C -95.32664905 -43.71719545 -64.48810991     2    335   339   340   341
H -94.04552148 -45.16235465 -65.21590210     6    338    0    0    0
H -94.30463143 -41.98471049 -64.09534785     6    338    0    0    0
C -96.60100745 -44.58756215 -62.11017360     2    338   342   343   344
H -97.36359161 -42.89799809 -61.06895526     6    341    0    0    0
H -98.13052835 -45.89460596 -62.34350882     6    341    0    0    0
C -94.90438195 -45.72501944 -60.09947123     2    341   345   346   347
H -96.10767727 -46.14894503 -58.56087200     6    344    0    0    0
H -93.93744765 -47.49186978 -60.51064050     6    344    0    0    0
C -92.96636986 -43.77598732 -59.21987494     2    344   348   349   350
H -91.28803100 -44.01534911 -60.49590597     6    347    0    0    0
H -93.51316588 -41.73399774 -59.60536949     6    347    0    0    0
C -92.00101716 -44.45362735 -56.63562161     1    347   351   352   353
H -93.42827833 -44.44041738 -55.15219826     6    350    0    0    0
H -90.39442618 -43.26869674 -56.08090644     6    350    0    0    0
H -90.97233601 -46.24856158 -56.70726340     6    350    0    0    0
H -84.18052775 -66.91616047 -92.83242812     6     355    0    0    0 
C -83.82579358 -66.95311506 -90.83727581     1     354    356    357    358
H -83.58603802 -68.92346822 -90.49800433     6     355    0    0    0
H -82.04273374 -66.10614964 -90.36905967     6     355    0    0    0
C -86.05331308 -65.80991506 -89.37811233     2     355    359    360    361
H -87.85402805 -66.47166960 -89.98262457     6     358    0    0    0
H -86.12212248 -66.35208066 -87.40193941     6     358    0    0    0
C -85.94198534 -62.85956628 -89.62739437     2     358    362   363   364
H -84.32232318 -62.09139650 -88.60486502     6     361    0    0    0
H -85.74018597 -62.29501171 -91.47575340     6     361    0    0    0
C -88.55020187 -61.88371530 -88.58864986     2     361   365   366   367
H -89.96525622 -62.48258423 -90.09665982     6    364    0    0    0
H -89.21422040 -62.74362987 -86.71412052     6    364    0    0    0
C -88.55123872 -58.90935912 -88.29676047     2    364   368   369   370
H -87.02971288 -58.27397588 -87.08471594     6    367    0    0    0
H -88.23215384 -58.15382544 -90.08148219     6    367    0    0    0
C -91.03107594 -57.91810419 -87.25109428     2    367   371   372   373
H -92.54299111 -58.94192975 -87.96756941     6    370    0    0    0
H -90.95816391 -58.33586709 -85.19321777     6    370    0    0    0
C -91.38079371 -55.12689717 -87.86710627     2    370   374   375   376
H -89.87889147 -54.03359234 -86.96341132     6    373    0    0    0
H -91.37540184 -54.86159002 -89.91309446     6    373    0    0    0
C -93.96392065 -54.20178344 -86.95676527     2    373   377   378   379
H -95.34621620 -54.81764748 -88.31888278     6    376    0    0    0
H -94.19701471 -55.03174492 -85.00351468     6    376    0    0    0
C -94.27949382 -51.26153652 -86.91744833     2    376   380   381   382
H -93.14400850 -50.47906552 -85.41899818     6    379    0    0    0
H -93.51987525 -50.33253288 -88.63308473     6    379    0    0    0
C -97.01637680 -50.61096805 -86.71350154     2    379   383   384   385
H -98.15092138 -51.12290583 -88.41527910     6    382    0    0    0
H -97.87838590 -51.91184238 -85.25636926     6    382    0    0    0
C -97.35621356 -47.76071740 -85.83418672     2    382   386   387   388
H -99.35243861 -47.35846992 -85.74525419     6    385    0    0    0
H -96.57327898 -47.46956681 -84.06883011     6    385    0    0    0
C -96.14534240 -45.61817895 -87.54449431     1    385   389   390   391
H -96.75599557 -46.11293697 -89.51269754     6    388    0    0    0
H -94.08064130 -45.66221498 -87.33423915     6    388    0    0    0
H -96.86754840 -43.85565123 -87.02645550     6    388    0    0    0
H -89.87759865 -45.91008665 -34.28063169     6     393    0    0    0 
C -89.58075739 -47.92273651 -33.99927199     1     392    394    395    396
H -88.20744680 -47.99708010 -32.50872991     6     393    0    0    0
H -91.32657537 -48.90380900 -33.51089486     6     393    0    0    0
C -88.47933343 -48.72575711 -36.63932290     2     393    397    398    399
H -89.86008592 -48.19875626 -38.24916492     6     396    0    0    0
H -86.71357563 -47.73994381 -37.03496084     6     396    0    0    0
C -87.46281684 -51.54914611 -36.41817585     2     396    400   401   402
H -86.66422930 -51.87336735 -34.66861552     6     399    0    0    0
H -89.19097582 -52.70780962 -36.43174424     6     399    0    0    0
C -85.74885099 -52.47054974 -38.51907338     2     399   403   404   405
H -86.88093108 -52.15448238 -40.20541611     6    402    0    0    0
H -83.94087834 -51.36582632 -38.39238345     6    402    0    0    0
C -84.93621927 -55.16125298 -38.56749875     2    402   406   407   408
H -84.29769418 -55.70428161 -36.71633738     6    405    0    0    0
H -86.56879969 -56.34643394 -38.95499697     6    405    0    0    0
C -83.03960096 -55.45801699 -40.81336148     2    405   409   410   411
H -83.93865056 -55.10008867 -42.73263368     6    408    0    0    0
H -81.56373659 -54.11428633 -40.76069569     6    408    0    0    0
C -82.20797720 -58.27136725 -40.69841809     2    408   412   413   414
H -81.22521782 -58.80943758 -38.90576135     6    411    0    0    0
H -83.92737221 -59.46644510 -40.56195383     6    411    0    0    0
C -80.59610801 -59.14687869 -42.93875137     2    411   415   416   417
H -81.51183465 -58.57527581 -44.63482766     6    414    0    0    0
H -78.69604664 -58.19964032 -42.85818670     6    414    0    0    0
C -80.43860864 -62.14674810 -42.76307484     2    414   418   419   420
H -79.71615344 -62.63653256 -40.94407584     6    417    0    0    0
H -82.41444895 -62.89022374 -43.17849325     6    417    0    0    0
C -78.45447746 -63.21469822 -44.70273020     2    417   421   422   423
H -78.86962094 -62.60341906 -46.55888533     6    420    0    0    0
H -76.54919627 -62.57449468 -44.44219696     6    420    0    0    0
C -78.50967025 -66.10062335 -44.72993938     2    420   424   425   426
H -78.10786234 -66.64173375 -42.71487401     6    423    0    0    0
H -80.39802176 -66.47210742 -45.16216419     6    423    0    0    0
C -76.73368724 -67.37037425 -46.60487746     1    423   427   428   429
H -76.64519941 -69.24554212 -45.83615929     6    426    0    0    0
H -74.81915310 -66.65154869 -46.95000570     6    426    0    0    0
H -77.90503430 -67.46930165 -48.35622419     6    426    0    0    0
H -63.67313594 -53.97819176 -56.53522824     6     431    0    0    0 
C -65.24271882 -52.68623260 -57.22038060     1     430    432    433    434
H -64.34293522 -51.05890172 -57.93099241     6     431    0    0    0
H -66.30036645 -53.49145339 -58.94330525     6     431    0    0    0
C -67.32770023 -52.17353963 -55.30833616     2     431    435    436    437
H -67.83759893 -53.96071281 -54.39035564     6     434    0    0    0
H -66.50474985 -50.99695458 -53.83007133     6     434    0    0    0
C -69.53201115 -50.65563980 -56.30468265     2     434    438   439   440
H -68.84519537 -48.65077977 -56.37350571     6     437    0    0    0
H -69.89826367 -51.11243256 -58.33910078     6     437    0    0    0
C -71.86217613 -51.05751262 -54.69147743     2     437   441   442   443
H -73.58320924 -50.09851143 -55.63142778     6    440    0    0    0
H -72.52250679 -52.96065222 -54.60892382     6    440    0    0    0
C -71.41408890 -50.17231044 -51.90766973     2    440   444   445   446
H -70.04645815 -51.36654003 -50.91339927     6    443    0    0    0
H -70.63315741 -48.18577783 -51.85293350     6    443    0    0    0
C -73.76945375 -50.42748851 -50.26638205     2    443   447   448   449
H -75.10824285 -49.36702522 -51.42181191     6    446    0    0    0
H -74.20965709 -52.45496462 -50.27455812     6    446    0    0    0
C -73.00899289 -49.55506977 -47.56814582     2    446   450   451   452
H -71.34313351 -50.57532270 -46.93885055     6    449    0    0    0
H -72.74703873 -47.47929241 -47.63746005     6    449    0    0    0
C -75.09298919 -50.11830053 -45.60148267     2    449   453   454   455
H -76.92667200 -49.49465199 -46.20864636     6    452    0    0    0
H -75.31435982 -52.18940149 -45.47693644     6    452    0    0    0
C -74.32437056 -48.65936206 -43.07529703     2    452   456   457   458
H -72.57918200 -49.32472073 -42.35255957     6    455    0    0    0
H -73.99892604 -46.69106668 -43.30872472     6    455    0    0    0
C -76.07173668 -49.09171784 -40.71398292     2    455   459   460   461
H -75.49312551 -47.98232201 -39.07178429     6    458    0    0    0
H -77.78354771 -48.31492660 -41.41087456     6    458    0    0    0
C -76.18894554 -51.77224538 -39.74014993     2    458   462   463   464
H -76.76394293 -53.00047293 -41.25917093     6    461    0    0    0
H -74.27284823 -52.39913829 -38.94778721     6    461    0    0    0
C -78.10814250 -52.22834551 -37.54769744     1    461   465   466   467
H -80.05768622 -51.49323176 -37.88765581     6    464    0    0    0
H -77.42692178 -51.50496342 -35.73144464     6    464    0    0    0
H -78.46465757 -54.18041086 -37.18246747     6    464    0    0    0
H -93.52515389 -35.76649104 -85.59161885     6     469    0    0    0 
C -91.89070108 -35.47830913 -84.48817331     1     468    470    471    472
H -90.39110439 -34.74603414 -85.68623264     6     469    0    0    0
H -92.31865615 -34.26676933 -82.89286361     6     469    0    0    0
C -91.03395800 -37.95739984 -83.26143087     2     469    473    474    475
H -89.68445182 -37.63482288 -81.80794409     6     472    0    0    0
H -92.56356297 -38.59628159 -82.00025978     6     472    0    0    0
C -90.17505457 -40.14040406 -85.05963932     2     472    476   477   478
H -91.85059341 -40.67900456 -86.10076928     6     475    0    0    0
H -88.85556176 -39.35921228 -86.48671357     6     475    0    0    0
C -89.39095578 -42.60749340 -83.58832237     2     475   479   480   481
H -87.99414604 -41.96283064 -82.19681181     6    478    0    0    0
H -90.99067643 -43.35178469 -82.60683570     6    478    0    0    0
C -88.27326224 -44.53625723 -85.49153881     2    478   482   483   484
H -89.53635917 -44.79675691 -87.05912895     6    481    0    0    0
H -86.28751829 -43.92163397 -86.14632427     6    481    0    0    0
C -87.81668789 -47.04294330 -84.30747067     2    481   485   486   487
H -86.37005538 -46.93365707 -82.78575654     6    484    0    0    0
H -89.45142288 -47.48658910 -83.29448658     6    484    0    0    0
C -86.61781641 -49.10967482 -86.06920090     2    484   488   489   490
H -87.99678335 -49.89210292 -87.37505286     6    487    0    0    0
H -85.48179877 -48.10963447 -87.49567791     6    487    0    0    0
C -85.00759619 -51.22210671 -84.78330379     2    487   491   492   493
H -83.53663895 -50.31931113 -83.58600677     6    490    0    0    0
H -86.44599969 -52.25404032 -83.73391064     6    490    0    0    0
C -83.60441637 -52.83744914 -86.77395921     2    490   494   495   496
H -85.14553486 -53.66346064 -87.88121619     6    493    0    0    0
H -82.55516581 -51.75296884 -88.24213002     6    493    0    0    0
C -81.72850396 -54.75963598 -85.57247033     2    493   497   498   499
H -79.97918751 -53.83580087 -84.76201160     6    496    0    0    0
H -82.76461151 -55.44332153 -83.85077422     6    496    0    0    0
C -81.09695732 -56.82725450 -87.40399680     2    496   500   501   502
H -82.72722230 -57.46762145 -88.21849595     6    499    0    0    0
H -80.09067572 -56.14103644 -88.96009726     6    499    0    0    0
C -79.56039794 -58.97246201 -86.31241108     1    499   503   504   505
H -78.89647417 -60.25001663 -87.73472885     6    502    0    0    0
H -80.85857738 -59.81136922 -85.04412259     6    502    0    0    0
H -77.88279555 -58.10086719 -85.48811059     6    502    0    0    0
H -66.38648393 -60.82175775 -70.57186726     6     507    0    0    0 
C -67.59386453 -60.09352602 -69.09559259     1     506    508    509    510
H -67.65956023 -58.06739109 -69.23979356     6     507    0    0    0
H -69.32970011 -60.84211826 -69.74506291     6     507    0    0    0
C -66.76536557 -60.73736694 -66.38695167     2     507    511    512    513
H -66.80831938 -62.88680981 -66.23833996     6     510    0    0    0
H -64.76609104 -60.29179346 -66.07699096     6     510    0    0    0
C -68.40037110 -59.51764628 -64.29538028     2     510    514   515   516
H -68.23803769 -57.41219789 -64.68801062     6     513    0    0    0
H -70.32911580 -60.12418882 -64.62251782     6     513    0    0    0
C -67.69729231 -60.23072322 -61.50828109     2     513   517   518   519
H -67.69705981 -62.29667735 -61.42613809     6    516    0    0    0
H -65.76432243 -59.61820805 -60.87031812     6    516    0    0    0
C -69.53032822 -59.19691358 -59.43499486     2    516   520   521   522
H -69.92734985 -57.19921714 -59.88143746     6    519    0    0    0
H -71.47787885 -59.76685035 -59.56339294     6    519    0    0    0
C -68.69701700 -59.44188342 -56.70630698     2    519   523   524   525
H -68.01772109 -61.39982019 -56.38205013     6    522    0    0    0
H -67.09404014 -58.14387193 -56.40142052     6    522    0    0    0
C -70.75721494 -58.90190020 -54.78753738     2    522   526   527   528
H -71.54800776 -56.95814458 -54.96858853     6    525    0    0    0
H -72.30115310 -60.27983185 -54.77328895     6    525    0    0    0
C -69.82768303 -59.17942222 -52.02249622     2    525   529   530   531
H -69.19751162 -61.12967186 -51.81541773     6    528    0    0    0
H -68.19084528 -57.87517506 -51.89061251     6    528    0    0    0
C -71.78636233 -58.46288087 -49.96032482     2    528   532   533   534
H -72.37159762 -56.53385029 -50.45059026     6    531    0    0    0
H -73.46677666 -59.57862188 -50.28977600     6    531    0    0    0
C -70.55594579 -58.72507304 -47.29914742     2    531   535   536   537
H -70.03740046 -60.71269638 -47.12283842     6    534    0    0    0
H -68.64946333 -57.79970969 -47.18792202     6    534    0    0    0
C -72.26883378 -57.81022886 -44.94279935     2    534   538   539   540
H -72.55020525 -55.78059469 -44.95465797     6    537    0    0    0
H -74.13914754 -58.47806418 -45.44483887     6    537    0    0    0
C -71.61142977 -58.76135863 -42.17570881     1    537   541   542   543
H -72.59917319 -58.04354946 -40.64331841     6    540    0    0    0
H -69.58479287 -58.25157107 -41.72620023     6    540    0    0    0
H -71.82163079 -60.72454678 -42.14792616     6    540    0    0    0
H -91.11227783 -50.09253691 -48.99528995     6     545    0    0    0 
C -92.83104074 -50.48930858 -50.08416599     1     544    546    547    548
H -92.44749390 -49.73898488 -51.83319586     6     545    0    0    0
H -92.87320175 -52.49620083 -50.51074983     6     545    0    0    0
C -95.14181060 -49.16223820 -48.60267231     2     545    549    550    551
H -95.20964765 -50.05436994 -46.81416914     6     548    0    0    0
H -94.71535686 -47.27774546 -48.34181041     6     548    0    0    0
C -97.41454217 -49.62628343 -50.09729834     2     548    552   553   554
H -97.31896822 -48.45795434 -51.78508871     6     551    0    0    0
H -97.34460623 -51.43379707 -50.75287950     6     551    0    0    0
C -100.00992549 -49.16733265 -48.79611598     2     551   555   556   557
H -100.29550174 -50.33351042 -47.16379019     6    554    0    0    0
H -99.92390260 -47.28852147 -47.81956882     6    554    0    0    0
C -102.20182891 -49.39434156 -50.58065386     2    554   558   559   560
H -101.73587145 -48.26711380 -52.26357090     6    557    0    0    0
H -102.38256096 -51.32598647 -51.15167935     6    557    0    0    0
C -104.51751830 -48.25218498 -49.08689005     2    557   561   562   563
H -105.02064295 -49.49858967 -47.52800333     6    560    0    0    0
H -103.87045186 -46.49405709 -48.10358929     6    560    0    0    0
C -107.09547201 -47.80156016 -50.37403998     2    560   564   565   566
H -107.07539228 -48.62937999 -52.23971178     6    563    0    0    0
H -108.49695702 -48.84854648 -49.18268367     6    563    0    0    0
C -107.81826566 -44.91028169 -50.56917718     2    563   567   568   569
H -108.42417679 -44.61486199 -48.63329325     6    566    0    0    0
H -106.00001530 -43.79158211 -50.91905451     6    566    0    0    0
C -110.00105511 -44.33884127 -52.61183758     2    566   570   571   572
H -109.46945916 -44.93982704 -54.42618228     6    569    0    0    0
H -111.64221643 -45.45368081 -51.94455540     6    569    0    0    0
C -110.92745535 -41.61867020 -52.68950278     2    569   573   574   575
H -112.75734655 -41.24953724 -51.84422169     6    572    0    0    0
H -109.76606766 -40.30188932 -51.58634837     6    572    0    0    0
C -111.51761117 -40.78985300 -55.33722598     2    572   576   577   578
H -109.80112045 -40.94879171 -56.47856059     6    575    0    0    0
H -112.93030106 -41.86388514 -56.33370751     6    575    0    0    0
C -112.38630778 -38.03596390 -55.68421989     1    575   579   580   581
H -114.31677547 -37.66526072 -54.99245094     6    578    0    0    0
H -112.41430455 -37.41720079 -57.65770619     6    578    0    0    0
H -111.13740925 -36.82247739 -54.72224187     6    578    0    0    0
H -101.68608965 -55.29711975 -81.44047105     6     583    0    0    0 
C -102.70963351 -54.15956415 -80.07798332     1     582    584    585    586
H -102.08222772 -54.88430235 -78.15890453     6     583    0    0    0
H -102.01054251 -52.34393762 -80.28321294     6     583    0    0    0
C -105.54360720 -54.35567476 -80.65939522     2     583    587    588    589
H -106.03103659 -53.16701756 -82.29245046     6     586    0    0    0
H -105.88885230 -56.38994278 -81.07668177     6     586    0    0    0
C -106.94500676 -53.47261486 -78.20807527     2     586    590   591   592
H -107.94426014 -55.17464750 -77.43894998     6     589    0    0    0
H -105.98286366 -52.69395855 -76.56834067     6     589    0    0    0
C -108.96621804 -51.45747106 -78.84401379     2     589   593   594   595
H -108.22568591 -49.69316172 -79.70343971     6    592    0    0    0
H -110.32995185 -51.94710139 -80.20709194     6    592    0    0    0
C -110.28304477 -50.28810290 -76.51294050     2    592   596   597   598
H -111.37020658 -51.77179756 -75.63354249     6    595    0    0    0
H -108.66741384 -49.64904873 -75.35956114     6    595    0    0    0
C -111.78110073 -47.92217563 -77.34962685     2    595   599   600   601
H -110.68538036 -46.64229133 -78.53781600     6    598    0    0    0
H -113.77970253 -48.43233984 -77.96773318     6    598    0    0    0
C -112.03663386 -46.19775897 -74.98303374     2    598   602   603   604
H -113.02542790 -47.45523967 -73.70679746     6    601    0    0    0
H -110.22376626 -45.91020957 -74.09269769     6    601    0    0    0
C -113.51855540 -43.77718574 -75.35852540     2    601   605   606   607
H -112.13464249 -42.46183060 -76.47432988     6    604    0    0    0
H -115.09431658 -44.27126294 -76.45659344     6    604    0    0    0
C -114.26908087 -42.51893992 -72.78109634     2    604   608   609   610
H -114.75642925 -43.90491117 -71.34662732     6    607    0    0    0
H -112.71601020 -41.32463520 -72.02738948     6    607    0    0    0
C -116.53643243 -40.77973255 -72.99294982     2    607   611   612   613
H -116.07072755 -39.27816339 -74.23526196     6    610    0    0    0
H -117.81575626 -41.80337941 -74.16681561     6    610    0    0    0
C -117.61136417 -39.99675378 -70.48927231     2    610   614   615   616
H -118.09681857 -41.62479239 -69.39360467     6    613    0    0    0
H -116.18504545 -38.84334553 -69.42923431     6    613    0    0    0
C -119.94677430 -38.08911607 -70.82105813     1    613   617   618   619
H -120.83986813 -37.40089083 -69.14602155     6    616    0    0    0
H -121.56932622 -38.88633121 -71.92922089     6    616    0    0    0
H -119.36013136 -36.39707369 -71.76157758     6    616    0    0    0
H -96.75300582 -78.75593001 -48.59028054     6     621    0    0    0 
C -95.59275431 -78.82427214 -50.37742507     1     620    622    623    624
H -94.73782328 -76.89114345 -50.49691653     6     621    0    0    0
H -94.02352312 -80.05441706 -50.02659552     6     621    0    0    0
C -97.38332694 -79.68688028 -52.40321010     2     621    625    626    627
H -98.16180842 -77.98395353 -53.08900165     6     624    0    0    0
H -96.38241649 -80.50515978 -54.01279570     6     624    0    0    0
C -99.57253643 -81.45744820 -51.55763239     2     624    628   629   630
H -99.01197923 -83.21302860 -50.62831216     6     627    0    0    0
H -100.58112449 -80.22488317 -50.33530840     6     627    0    0    0
C -101.22805616 -82.09150024 -53.88871720     2     627   631   632   633
H -102.11991428 -80.38761012 -54.63558977     6    630    0    0    0
H -100.00975418 -82.96259664 -55.26071108     6    630    0    0    0
C -103.34174446 -84.13389105 -53.41447205     2    630   634   635   636
H -102.57497456 -85.56878564 -52.23039910     6    633    0    0    0
H -104.87782746 -83.21834862 -52.19238864     6    633    0    0    0
C -104.52862959 -85.04478471 -56.00475143     2    633   637   638   639
H -104.88263819 -83.25768920 -57.09722038     6    636    0    0    0
H -103.14970233 -86.12874715 -57.25466183     6    636    0    0    0
C -106.91735772 -86.53609708 -55.42041416     2    636   640   641   642
H -106.18170114 -88.36620216 -54.68538713     6    639    0    0    0
H -108.03143931 -85.51647621 -53.97507023     6    639    0    0    0
C -108.40932309 -87.03421746 -57.80291345     2    639   643   644   645
H -109.13213879 -85.18211222 -58.51634860     6    642    0    0    0
H -107.06248375 -87.86187922 -59.14731135     6    642    0    0    0
C -110.68076438 -88.76244655 -57.56483820     2    642   646   647   648
H -110.10212445 -90.55853912 -56.71364892     6    645    0    0    0
H -111.88644372 -87.65354262 -56.25308417     6    645    0    0    0
C -112.06370285 -89.07586821 -60.14829834     2    645   649   650   651
H -112.10426564 -87.30120735 -60.96035544     6    648    0    0    0
H -111.04798508 -90.06551402 -61.61759789     6    648    0    0    0
C -114.67615295 -90.36489767 -59.90432561     2    648   652   653   654
H -114.73393374 -92.43547470 -59.26377705     6    651    0    0    0
H -115.52960337 -89.39987364 -58.29773357     6    651    0    0    0
C -116.16744703 -89.98122201 -62.35323511     1    651   655   656   657
H -115.16491825 -90.91255732 -63.90714734     6    654    0    0    0
H -116.42867857 -88.03583645 -62.95277903     6    654    0    0    0
H -117.95265097 -91.10956160 -62.26828851     6    654    0    0    0
H -103.47085037 -63.98600569 -73.10911360     6     659    0    0    0 
C -102.39604653 -62.60922235 -74.16286973     1     658    660    661    662
H -100.75121925 -62.23425287 -73.04083436     6     659    0    0    0
H -101.88094362 -63.24920581 -76.07973515     6     659    0    0    0
C -104.06105419 -60.23102670 -74.56065931     2     659    663    664    665
H -102.69245306 -58.79148196 -75.37597127     6     662    0    0    0
H -105.29252241 -60.76794989 -76.16593471     6     662    0    0    0
C -105.35137083 -59.25672036 -72.14249311     2     662    666   667   668
H -106.48096498 -60.73468794 -71.48521472     6     665    0    0    0
H -103.95268949 -58.86570179 -70.61106204     6     665    0    0    0
C -106.80273372 -56.83307564 -72.40542420     2     665   669   670   671
H -105.68787824 -55.26726897 -73.33726088     6    668    0    0    0
H -108.27431920 -57.07575048 -73.75289901     6    668    0    0    0
C -107.85915155 -55.82276045 -69.86510455     2    668   672   673   674
H -109.65995915 -56.94692394 -69.70001935     6    671    0    0    0
H -106.46555458 -56.38708703 -68.48952045     6    671    0    0    0
C -108.39307780 -52.92401956 -69.85397669     2    671   675   676   677
H -106.59724272 -52.02813273 -70.26016700     6    674    0    0    0
H -109.82794645 -52.41691300 -71.20449997     6    674    0    0    0
C -109.19864890 -52.08200687 -67.24279873     2    674   678   679   680
H -110.85282786 -53.16819509 -66.58660852     6    677    0    0    0
H -107.64180567 -52.46779089 -65.95609486     6    677    0    0    0
C -109.78250861 -49.26072339 -67.26025472     2    677   681   682   683
H -108.26183571 -48.45125858 -68.37110938     6    680    0    0    0
H -111.54085962 -49.10033754 -67.94402156     6    680    0    0    0
C -109.62024535 -48.22735692 -64.60417563     2    680   684   685   686
H -107.59190941 -48.13884635 -63.99113677     6    683    0    0    0
H -110.17528261 -46.26166917 -64.86412932     6    683    0    0    0
C -111.38574709 -49.44177804 -62.46247194     2    683   687   688   689
H -113.30957710 -49.45135739 -63.16433842     6    686    0    0    0
H -110.85957096 -51.35748273 -62.12290997     6    686    0    0    0
C -111.39751188 -48.09901030 -59.89358981     2    686   690   691   692
H -109.56551872 -48.33657842 -58.94525380     6    689    0    0    0
H -111.41858982 -46.04621120 -60.09983131     6    689    0    0    0
C -113.58692327 -48.90768546 -58.30865351     1    689   693   694   695
H -115.46206526 -48.78206173 -59.21583646     6    692    0    0    0
H -113.48085065 -47.92656072 -56.42733171     6    692    0    0    0
H -113.34370147 -50.91409088 -58.08092807     6    692    0    0    0
H -103.67488003 -49.08110657 -41.38463582     6     697    0    0    0 
C -105.15415224 -47.91002476 -40.79354956     1     696    698    699    700
H -105.57427412 -46.83342279 -42.44008562     6     697    0    0    0
H -106.76390613 -49.11046451 -40.21850549     6     697    0    0    0
C -104.57713864 -46.21175563 -38.46286682     2     697    701    702    703
H -106.45616358 -45.50292236 -37.88809278     6     700    0    0    0
H -103.73328533 -47.38946711 -37.01793374     6     700    0    0    0
C -102.49718664 -44.21808846 -39.09772484     2     700    704   705   706
H -103.23720951 -43.26009370 -40.88768721     6     703    0    0    0
H -101.99161393 -42.87726506 -37.58365073     6     703    0    0    0
C -99.95902266 -45.28345253 -39.92159004     2     703   707   708   709
H -99.24454887 -46.52949746 -38.44391085     6    706    0    0    0
H -100.27621546 -46.49308379 -41.57391130     6    706    0    0    0
C -97.96806670 -43.33216522 -40.48817079     2    706   710   711   712
H -98.46492190 -42.05814472 -42.20791881     6    709    0    0    0
H -98.03552456 -42.13006075 -38.83184260     6    709    0    0    0
C -95.47979575 -44.49560140 -40.66824036     2    709   713   714   715
H -95.05402178 -45.46296489 -38.92009915     6    712    0    0    0
H -95.36880705 -45.85450155 -42.26219682     6    712    0    0    0
C -93.27514410 -42.68866146 -41.15951113     2    712   716   717   718
H -93.99302399 -41.25626444 -42.62362935     6    715    0    0    0
H -92.79645138 -41.79245704 -39.36582576     6    715    0    0    0
C -90.87862059 -43.92589420 -42.30792604     2    715   719   720   721
H -90.83794535 -45.91772922 -41.88077424     6    718    0    0    0
H -91.11029482 -44.01143917 -44.39162715     6    718    0    0    0
C -88.66136513 -42.45026645 -41.47521947     2    718   722   723   724
H -89.07205591 -40.58011796 -42.27721948     6    721    0    0    0
H -88.74241412 -42.08837069 -39.50411753     6    721    0    0    0
C -86.05796152 -43.47462378 -42.38915267     2    721   725   726   727
H -85.89148815 -45.58986999 -41.95913093     6    724    0    0    0
H -86.13794006 -43.30293049 -44.53703037     6    724    0    0    0
C -83.95819509 -41.97812889 -41.27230609     2    724   728   729   730
H -84.04663153 -41.81665298 -39.21903413     6    727    0    0    0
H -82.38332847 -43.30101080 -41.43834265     6    727    0    0    0
C -83.62175569 -39.33535180 -42.54281780     1    727   731   732   733
H -82.03221855 -38.45191055 -41.75351744     6    730    0    0    0
H -85.14959709 -38.17679412 -41.94140009     6    730    0    0    0
H -83.27607328 -39.43498260 -44.55777716     6    730    0    0    0
H -89.27481892 -37.59203370 -67.59788271     6     735    0    0    0 
C -89.43599042 -35.80462133 -68.45771513     1     734    736    737    738
H -90.78253846 -34.61867731 -67.42383962     6     735    0    0    0
H -87.54114796 -34.83487547 -68.02740573     6     735    0    0    0
C -90.01066796 -35.94339873 -71.27237158     2     735    739    740    741
H -91.87369291 -35.63307993 -71.54441897     6     738    0    0    0
H -88.95154479 -34.48434481 -72.15571814     6     738    0    0    0
C -89.09509960 -38.49736759 -72.54000990     2     738    742   743   744
H -87.41536053 -39.37051537 -71.60686113     6     741    0    0    0
H -90.37441680 -40.06364197 -72.08288592     6     741    0    0    0
C -89.06842239 -38.50508249 -75.40528989     2     741   745   746   747
H -90.99488280 -38.12901992 -76.21794491     6    744    0    0    0
H -87.96204258 -36.88307363 -76.18086698     6    744    0    0    0
C -88.16933669 -40.83208695 -76.73248803     2    744   748   749   750
H -89.49322623 -42.37682969 -76.60675506     6    747    0    0    0
H -88.23146164 -40.25198412 -78.77044490     6    747    0    0    0
C -85.45637860 -41.66339230 -76.15233611     2    747   751   752   753
H -84.39157004 -39.97476699 -76.41415075     6    750    0    0    0
H -85.27864772 -42.40144537 -74.27649392     6    750    0    0    0
C -84.51566931 -43.27493543 -78.21072859     2    750   754   755   756
H -85.51552788 -45.06444736 -77.96270545     6    753    0    0    0
H -84.88292103 -42.50061374 -79.98640634     6    753    0    0    0
C -81.57443156 -43.97481268 -78.14332154     2    753   757   758   759
H -80.24308630 -42.42192674 -79.02377592     6    756    0    0    0
H -81.00052182 -44.20126331 -76.22635547     6    756    0    0    0
C -81.13135069 -46.74191389 -79.22141121     2    756   760   761   762
H -82.27725265 -48.31459674 -78.10491690     6    759    0    0    0
H -81.95305192 -46.78160468 -81.07066127     6    759    0    0    0
C -78.31318859 -47.37973661 -79.42420524     2    759   763   764   765
H -77.55183647 -46.64836526 -81.16351273     6    762    0    0    0
H -77.36795676 -46.67270772 -77.79908717     6    762    0    0    0
C -77.55670071 -50.17359153 -79.49440061     2    762   766   767   768
H -78.18454313 -50.96167413 -77.75493009     6    765    0    0    0
H -78.39980338 -50.93521238 -81.11047214     6    765    0    0    0
C -74.69302292 -50.49435124 -79.93472428     1    765   769   770   771
H -73.98216022 -49.55412896 -81.67372272     6    768    0    0    0
H -74.33083387 -52.61128190 -80.27487868     6    768    0    0    0
H -73.71662095 -49.78431014 -78.36271885     6    768    0    0    0
H -91.56324543 -84.89698637 -56.60598534     6     773    0    0    0 
C -91.09351522 -86.57175359 -55.60991991     1     772    774    775    776
H -92.68729414 -87.20549657 -54.42569305     6     773    0    0    0
H -90.53861875 -88.08221239 -56.96350586     6     773    0    0    0
C -88.91262676 -85.59303380 -54.06319005     2     773    777    778    779
H -87.91568526 -87.20194989 -53.06319407     6     776    0    0    0
H -87.51276386 -85.05775548 -55.38596959     6     776    0    0    0
C -89.43875342 -83.30816562 -52.19847206     2     776    780   781   782
H -89.99553382 -81.76610220 -53.56288356     6     779    0    0    0
H -91.10290363 -83.76043724 -51.03086924     6     779    0    0    0
C -86.96357051 -82.41631705 -50.69573547     2     779   783   784   785
H -86.54190708 -83.86281987 -49.58499524     6    782    0    0    0
H -85.18117168 -82.00038796 -51.72792077     6    782    0    0    0
C -87.41855114 -79.96778026 -48.96421804     2    782   786   787   788
H -88.49412043 -78.56218674 -49.98473389     6    785    0    0    0
H -88.70424689 -80.77627866 -47.55117430     6    785    0    0    0
C -84.98103043 -79.07218815 -47.61540280     2    785   789   790   791
H -84.09095819 -80.54315486 -46.46227416     6    788    0    0    0
H -83.53047235 -78.54856970 -48.77902382     6    788    0    0    0
C -85.45896676 -76.66743343 -46.03194716     2    788   792   793   794
H -85.79907705 -75.07257212 -47.36402671     6    791    0    0    0
H -87.21114205 -77.08662771 -44.86691108     6    791    0    0    0
C -83.32736017 -75.80960459 -44.35281753     2    791   795   796   797
H -82.83791517 -77.37751933 -43.19204040     6    794    0    0    0
H -81.76664560 -75.48892468 -45.71186174     6    794    0    0    0
C -83.84524335 -73.58527669 -42.58797908     2    794   798   799   800
H -84.54375134 -71.88138408 -43.76813288     6    797    0    0    0
H -85.55012469 -74.24347589 -41.50446217     6    797    0    0    0
C -81.48636717 -73.42032301 -40.93589888     2    797   801   802   803
H -81.47795242 -75.10038156 -39.84409223     6    800    0    0    0
H -79.77334997 -73.52976693 -42.14124585     6    800    0    0    0
C -81.14699057 -71.02892602 -39.34546842     2    800   804   805   806
H -81.17116702 -69.32485327 -40.59402752     6    803    0    0    0
H -82.83369874 -70.86172542 -38.22589902     6    803    0    0    0
C -78.84252386 -71.08109465 -37.76100653     1    803   807   808   809
H -77.28585384 -70.63645296 -39.13181673     6    806    0    0    0
H -78.47984969 -72.91384047 -37.04070273     6    806    0    0    0
H -78.60962332 -69.65877880 -36.23918370     6    806    0    0    0
H -94.10590674 -56.26942269 -76.32486040     6     811    0    0    0 
C -93.45573322 -56.92400978 -78.14260399     1     810    812    813    814
H -94.53092792 -56.12230352 -79.71271492     6     811    0    0    0
H -91.48640753 -56.09903141 -78.19825827     6     811    0    0    0
C -93.33007383 -59.78613966 -77.90735148     2     811    815    816    817
H -95.23461340 -60.54958757 -78.00699375     6     814    0    0    0
H -92.19150541 -60.53667726 -79.37335314     6     814    0    0    0
C -91.83009744 -60.63343765 -75.57263027     2     814    818   819   820
H -90.03641434 -59.59695660 -75.37398006     6     817    0    0    0
H -92.83988857 -59.85576860 -73.83523343     6     817    0    0    0
C -91.55485457 -63.42459335 -75.53247766     2     817   821   822   823
H -93.44922499 -64.12610912 -75.56757110     6    820    0    0    0
H -90.52911392 -63.97650514 -77.10127304     6    820    0    0    0
C -90.26814029 -64.32681494 -73.03792075     2    820   824   825   826
H -88.23051876 -63.83541404 -72.89355348     6    823    0    0    0
H -91.29394131 -63.54600413 -71.28868910     6    823    0    0    0
C -90.20523137 -67.16836596 -72.91095722     2    823   827   828   829
H -89.19083086 -67.65855639 -71.15100219     6    826    0    0    0
H -92.10354235 -67.99132032 -72.51915341     6    826    0    0    0
C -88.97034045 -68.49736350 -75.05228275     2    826   830   831   832
H -90.01059226 -68.47347675 -76.81569809     6    829    0    0    0
H -87.17193864 -67.56146077 -75.44040035     6    829    0    0    0
C -88.55934033 -71.28087420 -74.36675896     2    829   833   834   835
H -87.67719666 -71.38523598 -72.49956870     6    832    0    0    0
H -90.40313803 -72.24536301 -74.16112949     6    832    0    0    0
C -87.00093692 -72.83331724 -76.26722334     2    832   836   837   838
H -87.61075171 -72.78941959 -78.20236202     6    835    0    0    0
H -85.12678624 -71.89468918 -76.44782828     6    835    0    0    0
C -86.67013923 -75.51652128 -75.20325521     2    835   839   840   841
H -86.78359564 -75.42879688 -73.09628981     6    838    0    0    0
H -88.12786022 -76.76851177 -75.62247309     6    838    0    0    0
C -84.20058863 -76.66106282 -76.01543206     2    838   842   843   844
H -83.89914566 -76.65129778 -78.02200430     6    841    0    0    0
H -82.59811364 -75.61062037 -75.12381267     6    841    0    0    0
C -83.71983586 -79.23482863 -74.91716382     1    841   845   846   847
H -84.07602583 -79.21588010 -72.91235037     6    844    0    0    0
H -81.90630742 -80.19611854 -75.35395413     6    844    0    0    0
H -84.88245026 -80.66414848 -75.73501788     6    844    0    0    0
H -124.24961000 -43.18312811 -59.18835688     6     849    0    0    0 
C -122.26111112 -42.91877749 -59.00022716     1     848    850    851    852
H -121.90850181 -41.03365205 -58.12553176     6     849    0    0    0
H -121.67225974 -44.32419484 -57.65377908     6     849    0    0    0
C -121.08286867 -42.79625706 -61.59976634     2     849    853    854    855
H -122.15919119 -41.47188806 -62.65734038     6     852    0    0    0
H -119.23229236 -42.01447101 -61.39363144     6     852    0    0    0
C -120.73345427 -45.25130172 -62.82629859     2     852    856   857   858
H -119.55902339 -46.35811208 -61.74955395     6     855    0    0    0
H -122.50600904 -46.23739689 -63.02093779     6     855    0    0    0
C -119.54183686 -45.32015188 -65.43563143     2     855   859   860   861
H -120.70389463 -44.60510787 -67.00381572     6    858    0    0    0
H -117.82297298 -44.26311205 -65.84160236     6    858    0    0    0
C -119.13340802 -48.12534335 -66.35869035     2    858   862   863   864
H -117.75906472 -49.12917930 -65.01930465     6    861    0    0    0
H -120.91986895 -49.01233291 -66.20805238     6    861    0    0    0
C -118.31190864 -48.67812133 -68.99787234     2    861   865   866   867
H -119.51149653 -47.61413377 -70.19532553     6    864    0    0    0
H -116.46970670 -47.85191414 -69.16121720     6    864    0    0    0
C -118.19181423 -51.51904508 -69.74502140     2    864   868   869   870
H -117.29470862 -52.54169773 -68.16713188     6    867    0    0    0
H -120.12633228 -52.32661514 -70.23469554     6    867    0    0    0
C -116.58198010 -51.94505363 -72.05877610     2    867   871   872   873
H -114.80790227 -50.89082279 -72.18167157     6    870    0    0    0
H -115.90929149 -53.93800925 -71.73714028     6    870    0    0    0
C -118.12516500 -52.28581940 -74.49368863     2    870   874   875   876
H -116.80120140 -52.92303720 -75.99452581     6    873    0    0    0
H -119.43022912 -53.83474599 -74.25252989     6    873    0    0    0
C -119.37438843 -49.69267115 -75.27163491     2    873   877   878   879
H -120.66436424 -49.00797822 -73.79639505     6    876    0    0    0
H -118.10052482 -48.18418425 -75.70708022     6    876    0    0    0
C -120.87224723 -49.91843139 -77.70045136     2    876   880   881   882
H -119.46124290 -50.56565366 -79.11036586     6    879    0    0    0
H -122.13741315 -51.56935470 -77.53098925     6    879    0    0    0
C -122.46279891 -47.63809979 -78.51956576     1    879   883   884   885
H -122.91971162 -47.81555722 -80.43351622     6    882    0    0    0
H -121.44885173 -45.90711629 -78.05364982     6    882    0    0    0
H -124.19121747 -47.41752524 -77.38354707     6    882    0    0    0
H -87.17953107 -66.15682428 -63.64536294     6     887    0    0    0 
C -88.58883854 -66.01472626 -62.16627373     1     886    888    889    890
H -88.23952022 -67.70039435 -61.03369293     6     887    0    0    0
H -87.94237894 -64.29878907 -61.04732535     6     887    0    0    0
C -91.23189644 -65.63488486 -63.36645167     2     887    891    892    893
H -91.90329210 -67.38841320 -64.36251184     6     890    0    0    0
H -92.51431730 -65.44394564 -61.82989143     6     890    0    0    0
C -91.14558310 -63.32446990 -65.10405810     2     890    894   895   896
H -90.24571501 -61.77555690 -64.01989932     6     893    0    0    0
H -89.93057593 -63.64197126 -66.70976639     6     893    0    0    0
C -93.71405010 -62.48458775 -65.98358264     2     893   897   898   899
H -94.40947248 -63.93495333 -67.25807671     6    896    0    0    0
H -94.93627073 -62.33098715 -64.36201190     6    896    0    0    0
C -93.54274454 -60.00133554 -67.48546582     2    896   900   901   902
H -93.32372201 -58.72108321 -65.93498934     6    899    0    0    0
H -92.04504151 -59.61351578 -68.65858578     6    899    0    0    0
C -96.09852204 -59.02793846 -68.71742923     2    899   903   904   905
H -96.86701506 -60.62598416 -69.99157568     6    902    0    0    0
H -97.43637775 -58.54178621 -67.36471639     6    902    0    0    0
C -95.76867051 -56.52961348 -70.24372154     2    902   906   907   908
H -94.82454423 -55.06639703 -69.19372973     6    905    0    0    0
H -94.56352148 -57.16734807 -71.73739433     6    905    0    0    0
C -98.37833204 -55.64117270 -71.23961202     2    905   909   910   911
H -99.12470082 -56.77464361 -72.69435979     6    908    0    0    0
H -99.59394869 -55.66106868 -69.63107374     6    908    0    0    0
C -98.26599030 -52.90344715 -72.08662085     2    908   912   913   914
H -97.06712677 -51.75380907 -70.80340137     6    911    0    0    0
H -97.14171426 -52.75676099 -73.80992456     6    911    0    0    0
C -100.84523791 -51.69287500 -72.26276065     2    911   915   916   917
H -101.66647698 -52.97897036 -73.85308487     6    914    0    0    0
H -101.99912279 -51.80258191 -70.67070956     6    914    0    0    0
C -100.66098814 -49.06467531 -73.27487116     2    914   918   919   920
H -99.57201941 -48.20085189 -71.79303790     6    917    0    0    0
H -99.66566444 -49.03734207 -75.16117782     6    917    0    0    0
C -103.05483304 -47.45577043 -73.40494363     1    917   921   922   923
H -102.96321644 -45.60785575 -74.42738422     6    920    0    0    0
H -103.94926857 -47.04982850 -71.57938735     6    920    0    0    0
H -104.38124112 -48.57947469 -74.47953684     6    920    0    0    0
H -108.73176681 -68.34288907 -64.01881878     6     925    0    0    0 
C -110.73767837 -68.04998867 -63.67946706     1     924    926    927    928
H -111.31775394 -69.72971960 -62.42894736     6     925    0    0    0
H -111.03493463 -66.22054247 -62.68336326     6     925    0    0    0
C -112.43853710 -68.07620074 -66.04907225     2     925    929    930    931
H -112.30958204 -69.81699826 -67.01776026     6     928    0    0    0
H -114.48554807 -68.10390928 -65.65995394     6     928    0    0    0
C -111.84299143 -65.71212763 -67.41176985     2     928    932   933   934
H -112.17274636 -64.03573332 -66.31048091     6     931    0    0    0
H -109.89030704 -66.14843233 -68.08059143     6     931    0    0    0
C -113.60870774 -65.62177873 -69.90046861     2     931   935   936   937
H -112.88777435 -67.11155503 -71.31439694     6    934    0    0    0
H -115.67974537 -65.75952576 -69.64223483     6    934    0    0    0
C -113.11612621 -63.11800103 -71.14546638     2    934   938   939   940
H -113.54153929 -61.55172845 -69.86836569     6    937    0    0    0
H -111.08628395 -62.97691603 -71.49484959     6    937    0    0    0
C -114.04402385 -62.79206278 -73.81781753     2    937   941   942   943
H -113.94094098 -64.48527986 -75.00889476     6    940    0    0    0
H -116.03712008 -62.55431701 -73.60992236     6    940    0    0    0
C -112.86001958 -60.49728048 -75.25803509     2    940   944   945   946
H -113.23571955 -58.71921532 -74.29925267     6    943    0    0    0
H -110.91984749 -61.11819100 -75.49074510     6    943    0    0    0
C -114.04516651 -60.65340023 -77.83674984     2    943   947   948   949
H -112.82618940 -59.86250873 -79.28258116     6    946    0    0    0
H -114.04313327 -62.52089456 -78.64778398     6    946    0    0    0
C -116.67007375 -59.46311991 -77.81085535     2    946   950   951   952
H -117.93778342 -60.52194968 -76.56142219     6    949    0    0    0
H -116.59990839 -57.51333187 -76.98134041     6    949    0    0    0
C -117.65289742 -59.70284996 -80.46564213     2    949   953   954   955
H -116.09012857 -59.16809142 -81.78830276     6    952    0    0    0
H -117.91556983 -61.63149146 -80.93561537     6    952    0    0    0
C -120.11023163 -58.36728024 -80.76623955     2    952   956   957   958
H -121.62241887 -59.07098154 -79.47815697     6    955    0    0    0
H -119.85556699 -56.33828682 -80.30440443     6    955    0    0    0
C -121.21853408 -58.62919850 -83.50750797     1    955   959   960   961
H -123.12805210 -57.63577541 -83.53566299     6    958    0    0    0
H -121.49494284 -60.67676692 -84.05848086     6    958    0    0    0
H -120.23233123 -57.72445862 -84.99596329     6    958    0    0    0
H -71.41965830 -52.70223187 -66.27369585     6     963    0    0    0 
C -73.24861000 -52.61027251 -65.43547896     1     962    964    965    966
H -73.34476424 -50.66058645 -64.76590631     6     963    0    0    0
H -74.88290501 -53.07737139 -66.73089744     6     963    0    0    0
C -73.53609625 -54.37211790 -63.27322279     2     963    967    968    969
H -72.84018913 -56.33090152 -63.61719459     6     966    0    0    0
H -72.19119678 -53.65406999 -61.88098492     6     966    0    0    0
C -76.17942224 -54.28931622 -62.01593993     2     966    970   971   972
H -77.19189339 -52.36133388 -62.04595046     6     969    0    0    0
H -77.34390418 -55.57389013 -63.21105491     6     969    0    0    0
C -75.91264051 -55.10824695 -59.29146996     2     969   973   974   975
H -75.04033556 -57.06831895 -59.08459303     6    972    0    0    0
H -74.60602994 -53.74207179 -58.43176209     6    972    0    0    0
C -78.27066211 -55.57393670 -57.71436226     2    972   976   977   978
H -79.40268622 -53.79682927 -57.86585809     6    975    0    0    0
H -79.32220537 -57.01404992 -58.58894140     6    975    0    0    0
C -77.71769418 -56.27356876 -54.82552719     2    975   979   980   981
H -76.44365369 -57.96035368 -54.57439256     6    978    0    0    0
H -76.78920703 -54.66442133 -53.88580027     6    978    0    0    0
C -80.15748358 -56.85005906 -53.26483857     2    978   982   983   984
H -81.32854461 -55.19001348 -53.32477274     6    981    0    0    0
H -80.93337388 -58.48051038 -53.95863072     6    981    0    0    0
C -79.31864284 -57.17927905 -50.49392625     2    981   985   986   987
H -80.42277922 -58.69399362 -49.77255998     6    984    0    0    0
H -77.34252563 -57.91537422 -50.13356121     6    984    0    0    0
C -79.55919202 -54.69108880 -48.94835690     2    984   988   989   990
H -78.73882042 -54.95617209 -47.01086807     6    987    0    0    0
H -78.43340982 -53.39127677 -49.89344303     6    987    0    0    0
C -82.37666448 -53.72335580 -48.72927920     2    987   991   992   993
H -82.95203891 -52.84667558 -50.57123022     6    990    0    0    0
H -83.75184760 -55.20200528 -48.30058903     6    990    0    0    0
C -82.44043043 -51.64021572 -46.68443807     2    990   994   995   996
H -81.68757593 -52.46492424 -44.96367244     6    993    0    0    0
H -81.31848296 -49.91701304 -47.23236252     6    993    0    0    0
C -85.12805039 -50.84490347 -45.94147849     1    993   997   998   999
H -86.01566251 -49.96084691 -47.71081463     6    996    0    0    0
H -84.92008576 -49.56549213 -44.41696366     6    996    0    0    0
H -86.26539335 -52.53067894 -45.63816535     6    996    0    0    0
H -75.41169673 -62.13895325 -76.66210978     6     1001    0    0    0 
C -76.33448392 -60.34531346 -76.13707780     1     1000    1002    1003    1004
H -77.77186222 -59.82092344 -77.68215039     6     1001    0    0    0
H -77.44305231 -60.77706260 -74.34722537     6     1001    0    0    0
C -74.48690354 -58.17464289 -75.80775970     2     1001    1005    1006    1007
H -72.83706607 -58.93202649 -74.70721933     6     1004    0    0    0
H -74.03829302 -57.63055923 -77.63127909     6     1004    0    0    0
C -75.47665430 -55.74386751 -74.70597888     2     1004    1008   1009   1010
H -76.80758710 -54.73339006 -75.95773127     6     1007    0    0    0
H -76.44424119 -56.14748085 -72.90815225     6     1007    0    0    0
C -73.16209325 -54.06432761 -73.93445308     2     1007   1011   1012   1013
H -71.89631930 -55.08870947 -72.65789832     6    1010    0    0    0
H -72.00339147 -53.72896377 -75.61064322     6    1010    0    0    0
C -74.02049254 -51.47645267 -72.89043152     2    1010   1014   1015   1016
H -75.50123906 -50.60529873 -74.21713384     6    1013    0    0    0
H -74.95740082 -52.10490637 -71.16710911     6    1013    0    0    0
C -71.71860500 -49.96533616 -71.94782996     2    1013   1017   1018   1019
H -70.63941136 -51.25490938 -70.74858382     6    1016    0    0    0
H -70.53635044 -49.37420422 -73.62063512     6    1016    0    0    0
C -72.54711793 -47.62989120 -70.49823603     2    1016   1020   1021   1022
H -73.58192576 -46.37483939 -71.65792304     6    1019    0    0    0
H -73.72564473 -48.18196386 -68.93002141     6    1019    0    0    0
C -70.41727876 -46.14812698 -69.15364925     2    1019   1023   1024   1025
H -68.69801284 -45.89948749 -70.16811275     6    1022    0    0    0
H -71.17232521 -44.32360577 -68.68608168     6    1022    0    0    0
C -69.77287653 -47.32471772 -66.60466948     2    1022   1026   1027   1028
H -71.30355802 -47.26841452 -65.26842512     6    1025    0    0    0
H -69.33452579 -49.28167226 -67.06129884     6    1025    0    0    0
C -67.46274942 -46.20556744 -65.59730405     2    1025   1029   1030   1031
H -66.13178441 -45.86400507 -67.15034729     6    1028    0    0    0
H -67.93153958 -44.21605968 -64.86198839     6    1028    0    0    0
C -66.29988226 -47.69871060 -63.37073825     2    1028   1032   1033   1034
H -67.63288528 -47.44713209 -61.79882891     6    1031    0    0    0
H -66.05444587 -49.61379501 -63.95280049     6    1031    0    0    0
C -63.87480697 -46.30855917 -62.51901410     1    1031   1035   1036   1037
H -62.31411408 -46.87548626 -63.76560479     6    1034    0    0    0
H -63.62686348 -47.15546778 -60.68987134     6    1034    0    0    0
H -63.72997798 -44.24822055 -62.24071010     6    1034    0    0    0
H -83.24435902 -78.16216469 -55.18839024     6     1039    0    0    0 
C -83.27408496 -78.87643335 -57.05393937     1     1038    1040    1041    1042
H -82.03214980 -77.67722431 -58.23524413     6     1039    0    0    0
H -82.33230867 -80.65235539 -57.06111217     6     1039    0    0    0
C -86.05776768 -78.82198418 -58.13386549     2     1039    1043    1044    1045
H -86.91881690 -79.37473913 -56.45664238     6     1042    0    0    0
H -86.88840032 -76.90141269 -58.28840434     6     1042    0    0    0
C -86.23872971 -80.62329089 -60.35979284     2     1042    1046   1047   1048
H -85.68691044 -79.75363329 -62.07198408     6     1045    0    0    0
H -84.85742004 -82.24905415 -60.18826286     6     1045    0    0    0
C -88.97110374 -81.42519109 -60.82424791     2     1045   1049   1050   1051
H -89.68919770 -82.57331120 -59.24128819     6    1048    0    0    0
H -90.05418575 -79.65181501 -60.84019123     6    1048    0    0    0
C -89.54020077 -82.58881593 -63.38126439     2    1048   1052   1053   1054
[...]
 1619      H     -95.6350409600   -76.2327137700   -37.3067554600
 1620      H     -94.6364012200   -75.2690073700   -40.3284772300
 1621      C     -92.9104299600   -73.3073263000   -37.1173219100
 1622      H     -92.1799240000   -71.7943775100   -38.4740265000
 1623      H     -93.3173855500   -72.3008623700   -35.2854416200
 1624      C     -90.8761182200   -75.3280722200   -36.5990546300
 1625      H     -91.7083617300   -76.6724710900   -35.1987202000
 1626      H     -90.4535584100   -76.4552048600   -38.2488675300
 1627      C     -88.3758014600   -73.9831063400   -35.7446201200
 1628      H     -87.3637031200   -73.2984350900   -37.5247403200
 1629      H     -88.8235148200   -72.4019295800   -34.5862228300
 1630      C     -86.4485188300   -75.7169382000   -34.5245750900
 1631      H     -87.4794222600   -76.4558177900   -32.8750560800
 1632      H     -85.9707406200   -77.2127843300   -35.9246736200
 1633      C     -84.2168735600   -74.4407171300   -33.3142747500
 1634      H     -83.0977813700   -73.6787833000   -34.9514216200
 1635      H     -84.8163798600   -72.9003869100   -32.0773611100
 1636      C     -82.9291184800   -75.7865615000   -31.1572253000
 1637      H     -81.6721542600   -74.6436280300   -29.9483320300
 1638      H     -84.4159067900   -76.2123369900   -29.7505539700
 1639      C     -81.5125863400   -78.1271960900   -32.0587855800
 1640      H     -82.8200773600   -79.6676130300   -32.2811394200
 1641      H     -80.6329752200   -77.8873058600   -33.8519367900
 1642      C     -79.7235684200   -79.0814439100   -29.8714774200
 1643      H     -78.2340233500   -77.7393038800   -29.2973296700
 1644      H     -78.8216336200   -80.6373876100   -30.6914106200
 1645      H     -80.6746251200   -79.6153489300   -28.2236000200
 1646      H     -61.9441337000   -63.7426689100   -59.6053489600
 1647      C     -61.0008559900   -65.4689893800   -59.1470200500
 1648      H     -61.4126777300   -66.9192742200   -60.4674701400
 1649      H     -58.8920732100   -65.2500160700   -58.9876185200
 1650      C     -61.4170467100   -66.3427045300   -56.4526054200
 1651      H     -60.2265759700   -68.1338221400   -56.1119125700
 1652      H     -60.4373250400   -64.9058141300   -55.2827967600
 1653      C     -64.1178014800   -66.5700080300   -55.7281145000
 1654      H     -64.6683123000   -64.6617776900   -55.5928793700
 1655      H     -65.2510049600   -67.6287499100   -57.2565368700
 1656      C     -64.3481838400   -67.6080324800   -52.9538301300
 1657      H     -63.9720678300   -69.6815839500   -52.9545573600
 1658      H     -62.8132982900   -66.5681049900   -51.9224702900
 1659      C     -66.8850235400   -67.1470273700   -51.7317866400
 1660      H     -67.8732606700   -65.3074559700   -52.3094633200
 1661      H     -68.3102243100   -68.5335963800   -52.3045075600
 1662      C     -66.4436603700   -67.2847409500   -48.8231650300
 1663      H     -65.9976572900   -69.1976903700   -48.2794513600
 1664      H     -64.7887872800   -66.1996105400   -48.2541209100
 1665      C     -68.7589415000   -66.5129339400   -47.2407668700
 1666      H     -69.2059614300   -64.5592065800   -47.6756585800
 1667      H     -70.3241843900   -67.6983492800   -47.8687955500
 1668      C     -68.1332779600   -66.9290660700   -44.4474485200
 1669      H     -67.1175615100   -68.6974782900   -44.2571347500
 1670      H     -66.8816434400   -65.4900082000   -43.6664129700
 1671      C     -70.4746510500   -66.6419051500   -42.7887106200
 1672      H     -71.7046948000   -65.1248392600   -43.4752618200
 1673      H     -71.6062601300   -68.4335931900   -42.9044993300
 1674      C     -69.7304262600   -66.0583697300   -39.8706961000
 1675      H     -68.7199088500   -67.6021334000   -39.0546022500
 1676      H     -68.3931351200   -64.4682298400   -39.9107714200
 1677      C     -72.0641237400   -65.0819311700   -38.5165661700
 1678      H     -73.1467719400   -63.7760018700   -39.7798029700
 1679      H     -73.5186250600   -66.5072305400   -38.1254515800
 1680      C     -71.6328166800   -63.6505298500   -36.0112625700
 1681      H     -73.3342719300   -63.1071818500   -34.9402861900
 1682      H     -70.6717526600   -61.7632107600   -36.5009327100
 1683      H     -70.4944520800   -64.7298740900   -34.7121914500
 1684      H     -74.4609971000   -59.0022553100   -70.3465341400
 1685      C     -75.2935793500   -58.5035128500   -68.5406606400
 1686      H     -73.9867857800   -57.5641794800   -67.4204679400
 1687      H     -76.8029844200   -57.2365849400   -68.9806859700
 1688      C     -76.5280119600   -60.8190106300   -67.4409836700
 1689      H     -78.0468624000   -61.4204273400   -68.8041449400
 1690      H     -75.0311106200   -62.2033304100   -67.6162712000
 1691      C     -77.5600251400   -60.1716375300   -64.8492353000
 1692      H     -76.0686898100   -59.4168115500   -63.5943013400
 1693      H     -78.9425501000   -58.5665503300   -65.0931641500
 1694      C     -78.6243970900   -62.5092538800   -63.5557904700
 1695      H     -80.3179972700   -63.1026315300   -64.6007156500
 1696      H     -77.3795956600   -64.0877021100   -63.7289190700
 1697      C     -79.0391977700   -62.0390027400   -60.6562712300
 1698      H     -77.3189283500   -61.4728663600   -59.5593975400
 1699      H     -80.3751215100   -60.3710473300   -60.6149905000
 1700      C     -80.3511369200   -64.1931103300   -59.2357637800
 1701      H     -82.2116492000   -64.6332848400   -60.0378255800
 1702      H     -79.2008949600   -65.9109958600   -59.6480566300
 1703      C     -80.6409671500   -63.6111877900   -56.3438097400
 1704      H     -78.7861733900   -63.9304930100   -55.5789781300
 1705      H     -81.1209479000   -61.6586497500   -56.2513476700
 1706      C     -82.5854229600   -65.3507397600   -55.0487104900
 1707      H     -82.7168675400   -64.8058452600   -53.0333216400
 1708      H     -84.4845130300   -65.0047112400   -55.7767097700
 1709      C     -81.9583381800   -68.2065987900   -55.2438877500
 1710      H     -81.6515820900   -68.7883106700   -57.2001221900
 1711      H     -80.1225956600   -68.4735872300   -54.3680741400
 1712      C     -83.9868286300   -69.8613000900   -53.9849222200
 1713      H     -84.3663261400   -69.2818957100   -52.0291798300
 1714      H     -85.8207155900   -70.0724595900   -55.0597390300
 1715      C     -82.8853212700   -72.5229699800   -54.0855075900
 1716      H     -84.5644250000   -73.7114087900   -53.6058690600
 1717      H     -82.3235713900   -73.1696498600   -56.0130469800
 1718      C     -80.7501260200   -73.1158382500   -52.1770427900
 1719      H     -78.8135313700   -72.1982997600   -52.4137104400
 1720      H     -80.4050337000   -75.0964480400   -52.2073548300
 1721      H     -81.2769176700   -72.5349429200   -50.2962363500
 1722      H     -72.8533492800   -43.2741690900   -49.1235168800
 1723      C     -74.0471246200   -41.8870386400   -47.9960341000
 1724      H     -73.3664826900   -41.8741373600   -46.0144555300
 1725      H     -73.5938110300   -40.1419393400   -49.0628983400
 1726      C     -76.8254470000   -42.6052164900   -47.9256250200
 1727      H     -76.9126649400   -44.1307394100   -46.4834422700
 1728      H     -78.1316770100   -41.1392945300   -47.5284343100
 1729      C     -77.5950340300   -43.7958719900   -50.5127676300
 1730      H     -77.7974429700   -42.3035379400   -51.8231036000
 1731      H     -75.9479548500   -44.7269575300   -51.2799482900
 1732      C     -79.9158332700   -45.5280301300   -50.5885765500
 1733      H     -79.4872873800   -47.2976832200   -49.6021399600
 1734      H     -81.3609860800   -44.6454894200   -49.4128490900
 1735      C     -80.9731104100   -45.9457634300   -53.3734876200
 1736      H     -81.7217482800   -44.2463381100   -54.2341811100
 1737      H     -79.3256379200   -46.2228929000   -54.6237928900
 1738      C     -83.1575374700   -47.9862020100   -53.5739439700
 1739      H     -82.1890753300   -49.7302804200   -53.2670350600
 1740      H     -84.5531415500   -47.4066960500   -52.1318071100
 1741      C     -84.1452186400   -47.9238146800   -56.4030286900
 1742      H     -85.1580377400   -46.2136220900   -56.8284363100
 1743      H     -82.5658028600   -48.1940464700   -57.8386227500
 1744      C     -86.2576762700   -49.7699782300   -56.9290318300
 1745      H     -85.6339604800   -51.5799237700   -56.1628614500
 1746      H     -88.0013631600   -49.4127691900   -55.9150858600
 1747      C     -87.0789757300   -49.8687686900   -59.6836233300
 1748      H     -87.7592982900   -48.0728471300   -60.5084921400
 1749      H     -85.3231954600   -50.5251383400   -60.7093884200
 1750      C     -89.1908482300   -51.7395581300   -59.9041927400
 1751      H     -88.7328859300   -53.6822034500   -59.3873606100
 1752      H     -90.7615309300   -51.1824070300   -58.7170616100
 1753      C     -90.4056294000   -51.6830638200   -62.4930053200
 1754      H     -90.9844841500   -49.7636544200   -63.1208885600
 1755      H     -88.9954366000   -51.7352581300   -64.0572711400
 1756      C     -92.2888123000   -53.8257587400   -63.0465098800
 1757      H     -93.8201629500   -53.8985892300   -61.6914157800
 1758      H     -91.6069219100   -55.7953025200   -62.8673553000
 1759      H     -92.9737523000   -53.8773842700   -64.9870718900
 1760      H     -96.0906695900   -34.4471871900   -64.8929726200
 1761      C     -96.5325424700   -33.9170235000   -62.9292029800
 1762      H     -94.6599942200   -33.5382686500   -62.1315473700
 1763      H     -97.7213589600   -32.1738160600   -62.8469370100
 1764      C     -97.7478761500   -36.1143145000   -61.5304337600
 1765      H     -99.6776053700   -36.0238469000   -62.3888838200
 1766      H     -97.1472567300   -38.0014754600   -62.1158232200
 1767      C     -98.1942849300   -35.7226979800   -58.6790375000
 1768      H     -98.8242857700   -33.7067253000   -58.5449226200
 1769      H     -99.5603833900   -37.1170431700   -58.1580650200
 1770      C     -96.0322395700   -36.1216599000   -56.7284655300
 1771      H     -96.7495810600   -36.0181893200   -54.7238851700
 1772      H     -95.5820432900   -38.1278429900   -57.0264252500
 1773      C     -93.9007035600   -34.1559773000   -56.8955315000
 1774      H     -92.7087998700   -34.2114891900   -58.6819107900
 1775      H     -94.7957520200   -32.2257052100   -56.7757390200
 1776      C     -91.9569391400   -34.3806080400   -54.8546444900
 1777      H     -92.8421221200   -34.1422840900   -53.0229496000
 1778      H     -90.8726910500   -36.0838116400   -55.0969588100
 1779      C     -89.8824649900   -32.4336585400   -55.0194131100
 1780      H     -89.4396501400   -32.1082685100   -56.9970025700
 1781      H     -90.6053739100   -30.6748534700   -54.3728697000
 1782      C     -87.5495690300   -33.1825289300   -53.5560997900
 1783      H     -86.6076612500   -34.9114904600   -54.2805998000
 1784      H     -86.1240427200   -31.7444809400   -53.9380184100
 1785      C     -87.8693622300   -33.8326532600   -50.6683285000
 1786      H     -89.2734314800   -32.4676269900   -50.0402172500
 1787      H     -88.7754936700   -35.6094705900   -50.4900688600
 1788      C     -85.3325335400   -33.5149533300   -49.1051867500
 1789      H     -83.8481400400   -34.8159164900   -49.7943931000
 1790      H     -84.8054624200   -31.5362704700   -49.1552477800
 1791      C     -85.9304786600   -34.0282251000   -46.2117976800
 1792      H     -87.9635995600   -33.7531635800   -45.8754759400
 1793      H     -85.4104654700   -36.1188534200   -46.0826868600
 1794      C     -84.2786945200   -32.5688726600   -44.2966531400
 1795      H     -84.9076874700   -30.6269062000   -44.3089043900
 1796      H     -82.2441231000   -32.6923839600   -44.4949611000
 1797      H     -84.5708469900   -33.5001403200   -42.5397627800
 1798      H    -108.4512427600   -80.6953680300   -47.5473810600
 1799      C    -109.8936770500   -81.2079622900   -48.9724445700
 1800      H    -109.8006691600   -83.2024403700   -49.2969026200
 1801      H    -111.5632253000   -80.8342851300   -48.0461544500
 1802      C    -109.5925615500   -79.4588528500   -51.2821919200
 1803      H    -110.0645798000   -77.5292417200   -50.8696924600
 1804      H    -107.6230528300   -79.4258986100   -51.9320327000
 1805      C    -111.2360561400   -80.3544459900   -53.4715531300
 1806      H    -110.8733522000   -82.3727295300   -54.0081526300
 1807      H    -113.2730945400   -80.2510155800   -52.7111853900
 1808      C    -110.9179097800   -78.4231332100   -55.6226442200
 1809      H    -112.6064372100   -78.5880845800   -56.7565531500
 1810      H    -110.9551836300   -76.5172545600   -54.8005107000
 1811      C    -108.6361545200   -78.4747096400   -57.4940669500
 1812      H    -106.9274307800   -78.8195653200   -56.2966922100
 1813      H    -108.9029202300   -79.9289713800   -58.8812401800
 1814      C    -108.2726543000   -75.8413916000   -58.7414284200
 1815      H    -109.7046663600   -75.5207045600   -60.2778701200
 1816      H    -108.6173894900   -74.3262048000   -57.3412115700
 1817      C    -105.5838134700   -75.6628245400   -59.9376149500
 1818      H    -104.0322712400   -76.0896561400   -58.6238246100
 1819      H    -105.5148602900   -76.9575940100   -61.5938392700
 1820      C    -105.2490595100   -73.0661421700   -60.8827587100
 1821      H    -106.7466851600   -72.4859864400   -62.1515225400
 1822      H    -105.5817724400   -71.8145887300   -59.3786745900
 1823      C    -102.7107398100   -72.7793292700   -62.1886326300
 1824      H    -101.2175700300   -73.4472773900   -60.9019062100
 1825      H    -102.8562303200   -73.9602066400   -63.8064481300
 1826      C    -102.0936120500   -70.1163108400   -63.2600570000
 1827      H    -103.3517464500   -69.7768331300   -64.9262568400
 1828      H    -102.4047459600   -68.6747264100   -61.7782383500
 1829      C     -99.5068103900   -69.7510377400   -64.2792920500
 1830      H     -98.0824871000   -70.3485140600   -62.8628405700
 1831      H     -98.9843159700   -70.8082339100   -65.9261167400
 1832      C     -98.5746566900   -67.2239119800   -65.0171757100
 1833      H     -97.0632164000   -67.4859094100   -66.3231118100
 1834      H     -98.1484885000   -65.8082900500   -63.5861304600
 1835      H     -99.9523992100   -66.3373938900   -66.3021182800
 1836      H    -100.7368863100   -59.1683438000   -62.1327364100
 1837      C    -101.1333025800   -60.9633740100   -62.9833635300
 1838      H    -100.6742453700   -60.8176086600   -65.0396683900
 1839      H     -99.8866825300   -62.4340578900   -62.3493043800
 1840      C    -103.8231778700   -61.7826913700   -62.5742804200
 1841      H    -104.5496814500   -63.4046339800   -63.7166781900
 1842      H    -104.0877194900   -62.3032590300   -60.6351990000
 1843      C    -105.7236375500   -59.7531817900   -63.2068678200
 1844      H    -104.8424904700   -58.1149523500   -62.4210175300
 1845      H    -105.7872691300   -59.5071519300   -65.2626045900
 1846      C    -108.3627396100   -60.3548592700   -62.3530389200
 1847      H    -109.4423739000   -61.5358172000   -63.6719126700
 1848      H    -108.3817061400   -61.2444735700   -60.4962383200
 1849      C    -109.9922894300   -58.0196146600   -62.1120808800
 1850      H    -108.9678020100   -56.6712781200   -60.6926728800
 1851      H    -110.0238724400   -57.2567770100   -63.9501626300
 1852      C    -112.6753514900   -58.5328155400   -61.0554868400
 1853      H    -113.5267563300   -60.0406771300   -62.1080130200
 1854      H    -112.5099359500   -59.2408549500   -59.0972132400
 1855      C    -114.4293959200   -56.1686929400   -61.1080135400
 1856      H    -113.8531740900   -54.6785661100   -59.7693399000
 1857      H    -114.2642179900   -55.5250710400   -62.9685312400
 1858      C    -117.2338694000   -56.6497500200   -60.4593276700
 1859      H    -117.8520537500   -57.4053967500   -62.1774533000
 1860      H    -117.4242076400   -58.0466608500   -58.9875100700
 1861      C    -118.6782195600   -54.1844800300   -60.1248015700
 1862      H    -117.9345230700   -53.2548936800   -58.5188508100
 1863      H    -118.2439056100   -53.0107385000   -61.7836999400
 1864      C    -121.5857972500   -54.5962900800   -59.7734338600
 1865      H    -122.1982481500   -55.6190283700   -61.5611697100
 1866      H    -121.7988529000   -55.8018151100   -58.0930933300
 1867      C    -122.9777260000   -52.0986446300   -59.3041556700
 1868      H    -121.9228943900   -51.1153470700   -57.8035714400
 1869      H    -122.8075992300   -50.8361909500   -60.9220297600
 1870      C    -125.8556683600   -52.3488394200   -58.5489966400
 1871      H    -126.9736881100   -50.5974546800   -58.8610121400
 1872      H    -125.9271949300   -52.7549487300   -56.4764590400
 1873      H    -126.8494022800   -53.8922919600   -59.4502403900
 1874      H    -105.8551952100   -54.3866732800   -37.8939421900
 1875      C    -105.2203298600   -53.6995711500   -36.0839271800
 1876      H    -106.2135972800   -51.9561429700   -35.9214993300
 1877      H    -105.8374457700   -55.2180493100   -34.7257802600
 1878      C    -102.3283973400   -53.2290066200   -36.0418911800
 1879      H    -101.9289249700   -51.3409817600   -36.6871390100
 1880      H    -101.3654616800   -53.1506633800   -34.2806862900
 1881      C    -100.8271692200   -55.2215787800   -37.6865259800
 1882      H    -100.8909760600   -57.1607178400   -36.6196044000
 1883      H    -101.8610892300   -55.3572802100   -39.3931649200
 1884      C     -98.0082125200   -54.5581341200   -38.2904245100
 1885      H     -97.9059409800   -52.5187090300   -38.8230796700
 1886      H     -96.9018304900   -54.8415669900   -36.6466780000
 1887      C     -96.9829799300   -55.9036644300   -40.5300613800
 1888      H     -97.4378693700   -57.9390658000   -40.4654323600
 1889      H     -97.8531335300   -55.0206978900   -42.2461492000
 1890      C     -94.1337837100   -55.9059473500   -40.7467768800
 1891      H     -93.2561994700   -54.0704146700   -41.0314489900
 1892      H     -93.0498744100   -56.7635186300   -39.1289525400
 1893      C     -93.2504578900   -57.4636361400   -42.9933076300
 1894      H     -93.5895529200   -59.4349108000   -42.8106640200
 1895      H     -94.3267822100   -56.9017279500   -44.5712584600
 1896      C     -90.4414524200   -56.9687435900   -43.5812649500
 1897      H     -90.2458470500   -55.3297609700   -44.7686628000
 1898      H     -89.3754755900   -56.5884622100   -41.8577291900
 1899      C     -89.3835228700   -59.1598424100   -45.1378916600
 1900      H     -90.5665059900   -59.5123333700   -46.6712760000
 1901      H     -87.4980037000   -58.6691827100   -46.0223082300
 1902      C     -88.9359731900   -61.6759605700   -43.6550607600
 1903      H     -87.7653502600   -61.2021077700   -42.1263409000
 1904      H     -90.7862573400   -62.5698939500   -43.1206854100
 1905      C     -87.5647744600   -63.8494683800   -45.2052488600
 1906      H     -88.8902879500   -64.1700256800   -46.8239940900
 1907      H     -85.9200036400   -63.3014564200   -46.2729865200
 1908      C     -87.0653386400   -66.3917731900   -43.7882484300
 1909      H     -86.6439214800   -67.6749230700   -45.3840858200
 1910      H     -88.7145400300   -67.2695502600   -42.8772286900
 1911      H     -85.6095378800   -66.4643137400   -42.3829237400
 ----------------------------------------------------------------
 Nuclear Repulsion Energy =           0.00000000 hartrees
 There are       48 alpha and       48 beta electrons
 Total job time:  121.78s(wall), 240.41s(cpu) 
 Wed Jun 22 08:07:42 2022

        *************************************************************
        *                                                           *
        *  Thank you very much for using Q-Chem.  Have a nice day.  *
        *                                                           *
        *************************************************************


