178
# CELL(abcABC): 3981.86832  3981.86832  3981.86832    90.00000    90.00000    90.00000  Step:           0  Bead:       0 v_centroid{atomic_unit}  cell{atomic_unit}
      Fe  1.14173e-04  1.16696e-04  2.44871e-04
       C -7.15136e-05 -2.36494e-04  3.67520e-04
       C  4.01101e-05  2.05974e-04 -4.39830e-05
       C -1.14401e-04  7.41822e-06 -9.64232e-05
       C -3.37062e-04  2.10740e-04 -2.11710e-04
       C -1.39016e-04  6.86987e-05  1.23725e-04
       O  1.87906e-04 -1.64033e-04 -1.91233e-04
       O  7.96554e-05 -1.25278e-04 -4.65260e-05
       O -2.23230e-04 -2.20266e-05  8.03405e-05
       O  3.12369e-05 -6.81370e-06 -9.64663e-05
       O -6.38436e-05  1.43599e-04  6.87780e-05
      Fe -2.50712e-05 -2.76611e-05  1.80055e-05
       C  3.17067e-06 -1.94036e-04 -2.72366e-05
       C  3.19179e-04  9.33659e-05  3.59055e-04
       C -3.11935e-04  2.48871e-04  5.80897e-05
       C -1.68500e-04 -5.06943e-05  1.58231e-04
       C -9.98326e-05  8.04429e-05  1.21143e-04
       O -1.78117e-04  1.37060e-04 -4.26091e-04
       O  1.18310e-04 -2.66696e-04 -2.76513e-04
       O -1.04318e-04  2.09677e-04 -8.27625e-05
       O  8.85573e-06  2.16079e-04  1.61134e-04
       O  5.17415e-05  2.38902e-04  3.06424e-05
      Fe  4.46373e-05 -4.57940e-05  1.92399e-04
       C -1.27477e-04  1.06049e-04 -8.97206e-06
       C -5.60225e-05 -1.23800e-06  3.72218e-04
       C -7.30440e-05 -2.16578e-04  8.85086e-05
       C  2.33817e-04  1.53101e-04  3.43960e-04
       C  4.12745e-05  1.05682e-04  1.22156e-04
       O -1.22567e-04 -2.11297e-04  1.42285e-04
       O -1.62612e-04 -7.59508e-05 -2.31034e-05
       O  1.30124e-04 -2.54107e-04 -1.31097e-05
       O  1.20171e-04  8.28219e-05  1.59447e-04
       O  6.63289e-07  1.95700e-04  1.83320e-04
      Fe -9.79903e-05 -1.10441e-05 -1.20467e-04
       C -1.72219e-04 -9.58720e-05  2.19645e-04
       C  1.88708e-04  3.77951e-05  2.32467e-04
       C -1.45418e-04  2.68534e-04 -2.51887e-04
       C  2.21272e-04  2.46371e-04 -1.39855e-04
       C -2.49707e-04  3.77371e-04 -4.08434e-05
       O -4.71950e-05 -1.96281e-04 -1.23482e-04
       O  5.18551e-05  3.30882e-05 -7.04508e-05
       O -1.17588e-04  3.39767e-04 -8.22446e-05
       O -1.17844e-04 -2.98010e-04 -1.13803e-04
       O -3.34437e-05 -4.36201e-04  8.30661e-05
      Fe  8.25141e-05 -1.91133e-05 -2.79870e-05
       C  5.17185e-05 -9.94991e-05 -1.42694e-04
       C -1.25305e-05  7.45767e-06 -2.04964e-05
       C  5.05914e-05  5.49921e-05 -3.94863e-05
       C -1.47345e-04 -1.35475e-04  8.44377e-06
       C -8.56283e-05  9.13598e-05  3.36668e-05
       O  1.61204e-04 -1.35332e-04  2.87142e-05
       O  2.42160e-04 -1.34485e-04 -2.33473e-04
       O -3.29187e-04  1.54405e-04  7.92898e-05
       O  1.38737e-04  1.29607e-04  2.11407e-04
       O  9.43582e-05 -4.00013e-04  2.97239e-04
      Fe -5.51272e-05 -1.02852e-04 -8.00253e-07
       C  2.04384e-04  1.82167e-04 -1.83823e-04
       C -6.82973e-05 -7.63160e-05 -2.83020e-05
       C -1.43311e-04  4.03799e-05  1.38285e-04
       C  3.60831e-05 -7.09750e-05 -6.24129e-06
       C  2.61247e-04  1.18169e-04  1.94472e-04
       O -2.51012e-04 -1.12619e-05 -1.16246e-04
       O -3.88730e-04  4.81066e-05  1.63137e-04
       O  4.25170e-04  1.83222e-04 -9.85879e-05
       O  2.75762e-04 -3.79092e-04 -7.85839e-05
       O  1.42904e-04  1.20061e-04  1.18086e-04
      Fe  2.23297e-05  4.35827e-05 -5.54645e-05
       C  4.19275e-04 -3.55730e-04  3.05826e-04
       C  2.35672e-04  2.27364e-04 -1.07419e-04
       C  2.55579e-04 -8.86962e-05 -3.63608e-04
       C  1.68187e-04  4.08435e-04  4.21417e-04
       C  1.26003e-04  1.59306e-04 -2.89794e-04
       O -1.15980e-04  2.06962e-04 -9.06447e-05
       O -1.57695e-05 -1.07216e-04  1.05670e-04
       O  6.52018e-05  1.34381e-04  1.93525e-04
       O -1.23510e-04  1.33309e-04  4.44314e-04
       O  2.30395e-04  3.41810e-04  1.58762e-04
      Fe  3.67296e-05 -3.14349e-04 -4.22041e-06
       C -1.89526e-04  1.42957e-04 -3.01579e-04
       C  5.99517e-06 -4.93150e-05 -2.73246e-06
       C  1.03302e-04  2.78210e-04 -1.11956e-04
       C  4.09331e-05 -3.28566e-04 -4.87648e-05
       C -2.04434e-04  3.44700e-04  1.41804e-04
       O -3.36430e-04  2.10025e-04  2.42288e-04
       O  1.99419e-04  1.89791e-05  2.62424e-04
       O -1.07938e-05 -2.66745e-04 -4.16480e-05
       O  3.83449e-04  1.04615e-04  5.66474e-05
       O  1.72298e-04  2.74424e-04 -1.66843e-04
      Fe  6.67038e-05  5.13242e-05 -1.43455e-04
       C  1.34590e-04  4.59816e-05 -2.11237e-04
       C  3.77554e-04  5.21238e-05 -2.04919e-04
       C  2.71447e-05 -2.70735e-04  2.86859e-04
       C -3.50483e-04  4.87974e-05 -1.45524e-04
       C  1.83387e-04 -1.10725e-04 -1.55889e-04
       O  1.00781e-04  3.17044e-04  9.65701e-05
       O -2.01256e-05 -7.98950e-05 -2.27081e-04
       O -2.27563e-04  2.11695e-04 -3.13903e-04
       O -1.20173e-04 -1.93446e-04 -2.14577e-04
       O  1.57700e-04 -1.77233e-05 -1.11952e-04
      Fe -5.12418e-05 -1.59529e-04 -2.26618e-04
       C  6.25114e-05  3.30423e-05  3.12872e-04
       C  2.65983e-04 -3.22913e-04 -1.29027e-04
       C  3.36310e-05  2.33976e-04  7.75310e-05
       C  5.35923e-05 -6.58518e-05  2.86215e-05
       C  3.72717e-04  8.02814e-05  2.56189e-04
       O  1.18243e-04  8.15396e-05 -2.58287e-04
       O -1.37941e-04 -9.04434e-05 -1.68361e-04
       O  2.38505e-04 -4.95679e-06 -1.14027e-04
       O -1.92814e-04  1.77782e-05  3.64864e-06
       O -1.82227e-04  5.54543e-04  1.73263e-04
      Fe  9.14868e-07  7.32320e-05 -3.34799e-05
       C  1.33072e-05  1.62527e-05 -2.59382e-04
       C  1.35023e-05  2.44143e-04  1.42367e-04
       C  4.59905e-04 -2.16286e-04  1.64387e-04
       C -3.68850e-04 -1.23881e-04 -6.40752e-05
       C -3.18445e-04  1.08027e-05  5.76900e-07
       O -2.35698e-04 -2.96758e-04 -1.42588e-04
       O  9.39859e-05  8.87894e-05  2.47113e-04
       O -9.22320e-05 -2.08486e-04 -5.95235e-05
       O  2.59107e-05  2.02365e-04  1.82710e-04
       O -2.19849e-04 -9.43332e-05 -1.62762e-04
      Fe -6.61009e-05  1.51551e-05 -7.74498e-05
       C  3.04702e-04 -3.88934e-05 -1.81677e-06
       C  2.71416e-04 -9.02583e-05  1.50810e-04
       C -6.51892e-05 -1.71723e-04 -2.00199e-04
       C -2.11551e-04 -2.99480e-04 -2.07921e-04
       C  1.55982e-05 -9.31456e-05  7.67607e-05
       O  3.03808e-04  5.04213e-05  1.94483e-04
       O -2.23306e-04 -1.33294e-04  2.02307e-05
       O -1.15648e-04 -6.71263e-05 -1.64077e-04
       O -1.41230e-04  2.23048e-04 -5.84169e-05
       O  6.90104e-05  3.64562e-05 -2.22264e-04
      Fe -9.56453e-05 -1.92041e-04 -3.56517e-05
       C  3.63063e-05 -1.12677e-04  1.77616e-04
       C  2.43198e-04  2.92455e-04 -2.39203e-05
       C -3.41584e-04  1.61344e-04 -2.05945e-04
       C -2.64818e-04  2.72035e-05  2.00205e-04
       C  1.51771e-04 -1.06061e-04 -6.12814e-04
       O  4.14716e-05  3.59358e-04  3.31824e-04
       O  1.55536e-04 -1.89767e-05 -3.46112e-04
       O -7.67621e-05 -1.89027e-04 -7.62162e-05
       O  2.83324e-04  6.99458e-05  1.63085e-04
       O -1.12152e-04  1.48357e-04  8.74534e-05
      Fe  1.54620e-04 -1.14955e-04  1.31542e-04
       C -9.44170e-05 -3.20810e-04 -1.28397e-04
       C -1.54136e-04 -2.32637e-04 -2.97966e-04
       C -1.93515e-04 -1.78662e-04  5.30793e-05
       C  2.77893e-05 -1.70408e-05  2.37907e-05
       C  1.36843e-04  3.09258e-04 -1.80825e-05
       O  1.13540e-04 -1.14952e-04 -3.88811e-05
       O -1.21623e-04 -9.71117e-05 -2.16573e-04
       O -1.55275e-04  1.19979e-04  2.61192e-04
       O  2.47478e-04  2.79898e-04  8.65608e-05
       O  1.40583e-05 -6.96951e-06  1.18497e-04
      Fe -1.32760e-04  9.18593e-05  6.58526e-05
       C  2.05658e-04 -5.01610e-06  1.03790e-04
       C  4.57149e-05 -2.16524e-05  3.37646e-04
       C  1.17022e-04 -1.99108e-04 -1.54943e-04
       C  2.55139e-04  2.49242e-04  3.51969e-04
       C -4.69107e-05  6.45672e-06 -1.29395e-04
       O  2.04450e-04 -6.37358e-05 -9.90763e-05
       O -1.15998e-04  1.74244e-04 -3.20644e-04
       O -1.12254e-04 -2.09385e-04 -8.82088e-05
       O -2.86276e-04 -2.21425e-04  4.12280e-04
       O -1.63211e-04  1.95575e-04 -1.56629e-04
      Fe -1.57935e-04 -7.41907e-05 -1.62360e-04
       C -8.11219e-05 -1.57171e-05 -7.03600e-05
       C -2.07443e-04 -1.43894e-04 -2.78623e-04
       C -2.37249e-04 -6.37889e-06  5.47095e-04
       C -2.38740e-05  1.28412e-04  2.69097e-05
       C -1.21870e-04  1.92279e-04 -1.53468e-04
       O  1.23781e-04  5.98047e-05  3.18657e-04
       O -1.86268e-04  2.11275e-04 -2.73118e-04
       O  2.26558e-04 -5.00273e-05  1.69669e-04
       O  4.85874e-05 -4.95785e-05  1.42927e-05
       O  4.39990e-05  5.35328e-05  1.16208e-04
       L  2.39623e-02 -6.80271e-02  6.80757e-02
       L  1.02555e-02 -2.92264e-02 -2.78113e-02
