                  Welcome to Q-Chem
     A Quantum Leap Into The Future Of Chemistry


 Q-Chem 5.4 (devel), Q-Chem, Inc., Pleasanton, CA (2021)

 E. Epifanovsky,  A. T. B. Gilbert,  Xintian Feng,  Joonho Lee,  Yuezhi Mao,  
 N. Mardirossian,  P. Pokhilko,  A. White,  M. Wormit,  M. P. Coons,  
 A. L. Dempwolff,  Zhengting Gan,  D. Hait,  P. R. Horn,  L. D. Jacobson,  
 I. Kaliman,  J. Kussmann,  A. W. Lange,  Ka Un Lao,  D. S. Levine,  Jie Liu,  
 S. C. McKenzie,  A. F. Morrison,  K. Nanda,  F. Plasser,  D. R. Rehn,  
 M. L. Vidal,  Zhi-Qiang You,  Ying Zhu,  B. Alam,  B. Albrecht,  
 A. Aldossary,  E. Alguire,  J. H. Andersen,  D. Barton,  K. Begam,  A. Behn,  
 Y. A. Bernard,  E. J. Berquist,  H. Burton,  A. Carreras,  K. Carter-Fenk,  
 R. Chakraborty,  A. D. Chien,  K. D. Closser,  V. Cofer-Shabica,  
 S. Dasgupta,  Jia Deng,  M. de Wergifosse,  M. Diedenhofen,  Hainam Do,  
 S. Ehlert,  Po-Tung Fang,  S. Fatehi,  Qingguo Feng,  T. Friedhoff,  
 J. Gayvert,  Qinghui Ge,  G. Gidofalvi,  M. Goldey,  J. Gomes,  
 C. Gonzalez-Espinoza,  S. Gulania,  A. Gunina,  M. W. D. Hanson-Heine,  
 P. H. P. Harbach,  A. W. Hauser,  M. F. Herbst,  M. Hernandez Vera,  
 M. Hodecker,  Z. C. Holden,  S. Houck,  Xunkun Huang,  Kerwin Hui,  
 B. C. Huynh,  M. Ivanov,  Hyunjun Ji,  Hanjie Jiang,  B. Kaduk,  S. Kaehler,  
 K. Khistyaev,  Jaehoon Kim,  P. Klunzinger,  Z. Koczor-Benda,  
 Joong Hoon Koh,  D. Kosenkov,  L. Koulias,  T. Kowalczyk,  C. M. Krauter,  
 K. Kue,  A. Kunitsa,  T. Kus,  A. Landau,  K. V. Lawler,  D. Lefrancois,  
 S. Lehtola,  Rain Li,  Yi-Pei Li,  Jiashu Liang,  M. Liebenthal,  
 Hung-Hsuan Lin,  You-Sheng Lin,  Fenglai Liu,  Kuan-Yu Liu,  
 M. Loipersberger,  A. Luenser,  A. Manjanath,  P. Manohar,  E. Mansoor,  
 S. F. Manzer,  Shan-Ping Mao,  A. V. Marenich,  T. Markovich,  S. Mason,  
 S. A. Maurer,  P. F. McLaughlin,  M. F. S. J. Menger,  J.-M. Mewes,  
 S. A. Mewes,  P. Morgante,  J. W. Mullinax,  K. J. Oosterbaan,  G. Paran,  
 Alexander C. Paul,  Suranjan K. Paul,  F. Pavosevic,  Zheng Pei,  S. Prager,  
 E. I. Proynov,  E. Ramos,  B. Rana,  A. E. Rask,  A. Rettig,  R. M. Richard,  
 F. Rob,  E. Rossomme,  T. Scheele,  M. Scheurer,  M. Schneider,  
 N. Sergueev,  S. M. Sharada,  W. Skomorowski,  D. W. Small,  C. J. Stein,  
 Yu-Chuan Su,  E. J. Sundstrom,  Zhen Tao,  J. Thirman,  T. Tsuchimochi,  
 N. M. Tubman,  S. P. Veccham,  O. Vydrov,  J. Wenzel,  J. Witte,  A. Yamada,  
 Kun Yao,  S. Yeganeh,  S. R. Yost,  A. Zech,  Igor Ying Zhang,  Xing Zhang,  
 Yu Zhang,  D. Zuev,  A. Aspuru-Guzik,  A. T. Bell,  N. A. Besley,  
 K. B. Bravaya,  B. R. Brooks,  D. Casanova,  Jeng-Da Chai,  S. Coriani,  
 C. J. Cramer,  A. E. DePrince, III,  R. A. DiStasio Jr.,  A. Dreuw,  
 B. D. Dunietz,  T. R. Furlani,  W. A. Goddard III,  S. Grimme,  
 S. Hammes-Schiffer,  T. Head-Gordon,  W. J. Hehre,  Chao-Ping Hsu,  
 T.-C. Jagau,  Yousung Jung,  A. Klamt,  Jing Kong,  D. S. Lambrecht,  
 WanZhen Liang,  N. J. Mayhall,  C. W. McCurdy,  J. B. Neaton,  
 C. Ochsenfeld,  J. A. Parkhill,  R. Peverati,  V. A. Rassolov,  Yihan Shao,  
 L. V. Slipchenko,  T. Stauch,  R. P. Steele,  J. E. Subotnik,  
 A. J. W. Thom,  A. Tkatchenko,  D. G. Truhlar,  T. Van Voorhis,  
 T. A. Wesolowski,  K. B. Whaley,  H. L. Woodcock III,  P. M. Zimmerman,  
 S. Faraji,  P. M. W. Gill,  M. Head-Gordon,  J. M. Herbert,  A. I. Krylov

 Additional authors for Version 5.4.1: 
 S. Kotaru,  Shaozhi Li,  Xiangyuan Li,  F. Matz,  A. Molle,  Haisheng Ren,  
 Yingli Su,  Hung-Yi Tsai,  C. Utku,  Fang Wang

 Contributors to earlier versions of Q-Chem not listed above: 
 R. D. Adamson,  B. Austin,  R. Baer,  J. Baker,  G. J. O. Beran,  
 K. Brandhorst,  S. T. Brown,  E. F. C. Byrd,  A. K. Chakraborty,  
 G. K. L. Chan,  Chun-Min Chang,  Yunqing Chen,  C.-L. Cheng,  
 Siu Hung Chien,  D. M. Chipman,  D. L. Crittenden,  H. Dachsel,  
 R. J. Doerksen,  A. D. Dutoi,  R. G. Edgar,  J. Fosso-Tande,  
 L. Fusti-Molnar,  D. Ghosh,  A. Ghysels,  A. Golubeva-Zadorozhnaya,  
 J. Gonthier,  M. S. Gordon,  S. R. Gwaltney,  G. Hawkins,  J. E. Herr,  
 A. Heyden,  S. Hirata,  E. G. Hohenstein,  G. Kedziora,  F. J. Keil,  
 C. Kelley,  Jihan Kim,  R. A. King,  R. Z. Khaliullin,  P. P. Korambath,  
 W. Kurlancheek,  A. Laurent,  A. M. Lee,  M. S. Lee,  S. V. Levchenko,  
 Ching Yeh Lin,  D. Liotard,  E. Livshits,  R. C. Lochan,  I. Lotan,  
 L. A. Martinez-Martinez,  P. E. Maslen,  N. Nair,  D. P. O'Neill,  
 D. Neuhauser,  E. Neuscamman,  C. M. Oana,  R. Olivares-Amaya,  R. Olson,  
 T. M. Perrine,  B. Peters,  P. A. Pieniazek,  A. Prociuk,  Y. M. Rhee,  
 J. Ritchie,  M. A. Rohrdanz,  E. Rosta,  N. J. Russ,  H. F. Schaefer III,  
 M. W. Schmidt,  N. E. Schultz,  S. Sharma,  N. Shenvi,  C. D. Sherrill,  
 A. C. Simmonett,  A. Sodt,  T. Stein,  D. Stuck,  K. S. Thanthiriwatte,  
 V. Vanovschi,  L. Vogt,  Tao Wang,  A. Warshel,  M. A. Watson,  
 C. F. Williams,  Q. Wu,  X. Xu,  Jun Yang,  W. Zhang,  Yan Zhao

 Please cite Q-Chem as follows:
 Y. Shao et al., Mol. Phys. 113, 184-215 (2015)
 DOI: 10.1080/00268976.2014.952696

 Q-Chem 5.4.1 for Intel X86 EM64T Linux

 Parts of Q-Chem use Armadillo 9.900.5 (Nocturnal Misbehaviour).
 http://arma.sourceforge.net/

 Q-Chem begins on Wed Jun  1 23:30:23 2022  

 Host: p09r14n13.grace.hpc.yale.internal
0

     Scratch files written to /home/tl686/scratch60/qchem_dev/scratch/qchem244350//
 Processing $rem in /home/tl686/qchem_dev/qchem/config/preferences:
 Processing $rem in /home/tl686/.qchemrc:
Applying user defined connections for MM calculations

 Checking the input file for inconsistencies... 	...done.

--------------------------------------------------------------
User input:
--------------------------------------------------------------
$molecule
0   1
 Fe -23.53596917 18.55044836 40.51969344    -1  0   0   0   0
C -22.70902819 15.14843776 40.42396512    -2  0   0   0   0 
C -24.16461982 22.00222430 40.85417047    -2  0   0   0   0
C -23.10460299 18.55083743 43.94320568    -2  0   0   0   0
C -20.90809053 19.35078415 38.51509630    -2  0   0   0   0
C -26.69409870 18.39860915 39.09746775    -2  0   0   0   0
O -22.09534974 13.01053388 40.43204011    -3  0   0   0   0
O -24.23302169 24.12629099 40.87126371    -3  0   0   0   0 
O -23.14091917 18.43075209 46.11898264    -3  0   0   0   0
O -19.31277483 19.69955861 36.99306708    -3  0   0   0   0 
O -28.68968017 18.08481287 38.20929457    -3  0   0   0   0
H -1.80642033 4.28823311 47.70656694      6     13    0    0    0 
C -1.48357943 2.19353321 47.43761552     1     12    14    15    16
H -0.22718087 1.93228524 49.02576426     6     13    0    0    0
H -3.34704668 1.30128038 47.85246261     6     13    0    0    0
C -0.70195054 1.39794314 44.71683050     2     13    17    18    19
H 1.33520638 1.94772591 44.58822974     6     16    0    0    0
H -0.68162724 -0.52446462 44.47700374     6     16    0    0    0
C -2.50240342 2.62264448 42.70812575     2     16    20   21   22
H -4.48938841 2.21290397 43.26569387     6     19    0    0    0
H -2.43688978 4.73662988 42.82701605     6     19    0    0    0
C -2.16316767 1.85160941 39.85695868     2     19   23   24   25
H -0.28565777 2.20976907 39.13604062     6    22    0    0    0
H -2.37426214 -0.20938877 39.70707497     6    22    0    0    0
C -4.02477323 3.35850423 38.13888791     2    22   26   27   28
H -5.88617099 2.84715875 38.56081042     6    25    0    0    0
H -3.80726122 5.35801380 38.61461061     6    25    0    0    0
C -3.65233127 2.74964175 35.32704713     2    25   29   30   31
H -1.85237026 3.69328102 34.76958829     6    28    0    0    0
H -3.54928679 0.74598518 35.03586172     6    28    0    0    0
C -5.95623427 3.89601022 33.85069685     2    28   32   33   34
H -7.71918627 3.25758150 34.81376683     6    31    0    0    0
H -5.92699773 5.86520518 34.28213795     6    31    0    0    0
C -6.17280732 3.51680283 30.94858527     2    31   35   36   37
H -4.95085532 4.59466882 29.82216070     6    34    0    0    0
H -5.92928078 1.49031498 30.33401600     6    34    0    0    0
C -8.81857940 4.59833033 30.21522088     2    34   38   39   40
H -10.37630110 3.43848870 31.00066559     6    37    0    0    0
H -8.87891431 6.61987643 30.96727362     6    37    0    0    0
C -9.10476199 4.94847892 27.36477251     2    37   41   42   43
H -7.81216844 6.44362992 26.72302996     6    40    0    0    0
H -8.80214203 3.17330578 26.57168813     6    40    0    0    0
C -11.78815444 5.88390387 26.53894745     2    40   44   45   46
H -13.20315594 4.79125523 27.64330845     6    43    0    0    0
H -12.06880918 7.80877480 27.08789556     6    43    0    0    0
C -12.24978739 5.62424438 23.64659800     1    43   47   48   49
H -10.97029030 6.90473532 22.82209789     6    46    0    0    0
H -14.12112788 6.27645765 23.37052286     6    46    0    0    0
H -11.86091231 3.75060117 22.91539056     6    46    0    0    0
H -22.36136131 11.39502938 31.59182105     6     51    0    0    0 
C -21.91892561 12.21602722 33.41754126     1     50    52    53    54
H -22.34291953 14.32868380 33.52898688     6     51    0    0    0
H -23.00540514 11.13008069 34.74065002     6     51    0    0    0
C -19.10773993 11.68438904 33.92169596     2     51    55    56    57
H -18.60483779 12.46397158 35.78349657     6     54    0    0    0
H -18.71620290 9.62750381 33.89198137     6     54    0    0    0
C -17.50307596 12.74419323 31.83754480     2     54    58   59   60
H -17.51817733 14.71852768 31.58210541     6     57    0    0    0
H -15.52950898 12.21225172 32.20056370     6     57    0    0    0
C -18.00650909 11.80887005 29.09538999     2     57   61   62   63
H -18.37152948 9.79326448 29.20108888     6    60    0    0    0
H -20.00977263 12.42919696 28.73574418     6    60    0    0    0
C -16.16599230 12.81699442 27.09809647     2    60   64   65   66
H -16.16061317 14.81937911 26.95418771     6    63    0    0    0
H -14.23836392 12.55641942 27.79597398     6    63    0    0    0
C -16.40522198 11.68735361 24.30070354     2    63   67   68   69
H -14.81370848 12.23387566 23.03447307     6    66    0    0    0
H -15.81614146 9.80082648 24.43641830     6    66    0    0    0
C -19.09173663 11.86222600 23.07606606     2    66   70   71   72
H -20.65623546 11.07267903 24.39523958     6    69    0    0    0
H -19.52862859 13.75180604 22.62680640     6    69    0    0    0
C -19.37019539 10.15032351 20.66651967     2    69   73   74   75
H -17.88485391 10.50602482 19.29134852     6    72    0    0    0
H -19.02592143 8.14358241 21.23038241     6    72    0    0    0
C -22.09493842 10.33064001 19.56609961     2    72   76   77   78
H -23.29707029 9.79135682 21.20311958     6    75    0    0    0
H -22.36741361 12.30398533 19.23107508     6    75    0    0    0
C -22.70260872 8.58656951 17.27322472     2    75   79   80   81
H -21.32256010 8.93787221 15.62690294     6    78    0    0    0
H -22.22784285 6.76532436 17.86562576     6    78    0    0    0
C -25.59265688 8.84109149 16.45486032     2    78   82   83   84
H -26.57389108 8.30467747 18.21122598     6    81    0    0    0
H -26.30606186 10.69527877 16.14407893     6    81    0    0    0
C -26.02945559 7.17175949 14.08493382     1    81   85   86   87
H -28.10886872 7.08852111 13.83194571     6    84    0    0    0
H -25.01797949 5.36241214 14.17025010     6    84    0    0    0
H -25.37293302 8.02569437 12.42520939     6    84    0    0    0
H 8.61200205 13.80837979 32.22785685     6     89    0    0    0 
C 8.74696820 12.81558871 30.41906115     1     88    90    91    92
H 10.64229763 12.83800924 29.63550467     6     89    0    0    0
H 8.35903375 10.84538996 30.85247781     6     89    0    0    0
C 6.97531430 13.72116328 28.31893401     2     89    93    94    95
H 5.13971646 14.03915153 29.10856035     6     92    0    0    0
H 7.94496356 15.46619189 27.79006061     6     92    0    0    0
C 6.91609680 11.72749882 26.16211125     2     92    96   97   98
H 8.67898482 10.87895508 25.71990053     6     95    0    0    0
H 5.84799567 10.05959688 26.58168075     6     95    0    0    0
C 5.95499354 12.91828562 23.78636467     2     95   99   100   101
H 3.94961783 13.36429887 24.15465043     6    98    0    0    0
H 6.74649981 14.81345398 23.33422574     6    98    0    0    0
C 5.84151670 11.24614801 21.34689221     2    98   102   103   104
H 7.66768947 10.96757877 20.59322661     6    101    0    0    0
H 5.02563438 9.55814459 21.87512998     6    101    0    0    0
C 4.08212561 12.69018700 19.44271047     2    101   105   106   107
H 2.10235184 12.35556138 19.92997906     6    104    0    0    0
H 4.33669800 14.65188639 19.31431266     6    104    0    0    0
C 4.16729791 11.63834608 16.73867518     2    104   108   109   110
H 2.88704491 12.83057585 15.69415923     6    107    0    0    0
H 5.98795164 11.97008958 16.03107198     6    107    0    0    0
C 3.43980083 8.84275525 16.64946481     2    107   111   112   113
H 4.98336600 7.88383420 17.63717384     6    110    0    0    0
H 1.58376312 8.57516624 17.78793498     6    110    0    0    0
C 3.13175830 7.90577772 14.03375480     2    110   114   115   116
H 2.18021302 9.30229020 12.79628682     6    113    0    0    0
H 4.94888727 7.81851087 13.15378663     6    113    0    0    0
C 1.81383671 5.28601580 13.84348506     2    113   117   118   119
H 3.21413916 3.73695564 14.36210510     6    116    0    0    0
H 0.41685883 5.18400081 15.19377685     6    116    0    0    0
C 0.67820837 4.67797337 11.16439503     2    116   120   121   122
H -0.78194097 3.13641167 11.40703324     6    119    0    0    0
H -0.45598171 6.21172349 10.33535357     6    119    0    0    0
C 2.81542723 4.06989381 9.42161244     1    119   123   124   125
H 2.37874173 3.44742606 7.43701900     6    122    0    0    0
H 3.63188321 2.49455948 10.27059828     6    122    0    0    0
H 4.12225113 5.63654895 9.17537435     6    122    0    0    0
H 0.57378412 31.49807154 41.26466596     6     127    0    0    0 
C 2.13624489 31.38063885 42.50614796     1     126    128    129    130
H 2.94751711 29.45945139 42.23678460     6     127    0    0    0
H 3.53539607 32.66195319 41.81992326     6     127    0    0    0
C 1.48270214 31.86724645 45.20883121     2     127    131    132    133
H 3.28021221 31.67969412 46.18710129     6     130    0    0    0
H 0.71534174 33.78875575 45.28834610     6     130    0    0    0
C -0.43043631 29.95352034 46.40632220     2     130    134   135   136
H -2.07800347 29.73573559 45.28619006     6     133    0    0    0
H 0.43006455 28.09425773 46.63007963     6     133    0    0    0
C -1.19784853 30.74279457 49.07998002     2     133   137   138   139
H 0.52274432 30.93228256 50.24007310     6    136    0    0    0
H -1.92686854 32.62991673 49.29802004     6    136    0    0    0
C -3.26299089 29.02518406 50.19746617     2    136   140   141   142
H -4.92144029 28.78856010 49.04093235     6    139    0    0    0
H -2.49663768 27.16804888 50.75964786     6    139    0    0    0
C -4.58705339 30.32080035 52.53549558     2    139   143   144   145
H -3.16192105 31.14927796 53.81260617     6    142    0    0    0
H -5.65406556 31.91268695 51.77628343     6    142    0    0    0
C -6.40208256 28.75322891 54.09912402     2    142   146   147   148
H -7.17063424 27.38565399 52.85445900     6    145    0    0    0
H -5.24764401 27.47212605 55.20260058     6    145    0    0    0
C -8.39536775 30.25778586 55.64579626     2    145   149   150   151
H -8.83124737 31.98425263 54.58167337     6    148    0    0    0
H -10.08245415 29.18168044 56.08753538     6    148    0    0    0
C -7.28747542 31.26831820 57.98221529     2    148   152   153   154
H -6.83645002 29.80186781 59.28670824     6    151    0    0    0
H -5.43510273 31.95118029 57.44374039     6    151    0    0    0
C -8.87684234 33.32726581 59.44633225     2    151   155   156   157
H -7.99111010 33.58628367 61.36539802     6    154    0    0    0
H -8.71770130 35.22286791 58.87815373     6    154    0    0    0
C -11.69899406 32.65184472 59.65295690     2    154   158   159   160
H -12.29136619 32.47827741 57.88536596     6    157    0    0    0
H -11.83165116 30.73248059 60.27255656     6    157    0    0    0
C -13.42358148 34.43140083 61.13936671     1    157   161   162   163
H -15.39144834 34.28318817 60.54004576     6    160    0    0    0
H -12.79547128 36.42679613 60.89322669     6    160    0    0    0
H -13.61425356 34.39593993 63.17011129     6    160    0    0    0
H 2.30640315 46.32471562 32.73068704     6     165    0    0    0 
C 2.78734015 44.84691076 34.03909937     1     164    166    167    168
H 1.92967026 43.08189003 33.43720560     6     165    0    0    0
H 4.73854206 44.19838389 34.05372150     6     165    0    0    0
C 1.73127020 45.62756493 36.46328769     2     165    169    170    171
H 2.09992710 47.50335693 36.87600035     6     168    0    0    0
H -0.37853966 45.52464676 36.21261065     6     168    0    0    0
C 2.48710579 43.80397554 38.74520420     2     168    172   173   174
H 1.92305340 41.92240965 38.04843287     6     171    0    0    0
H 4.60916953 43.91321404 38.92175510     6     171    0    0    0
C 1.04230565 44.67305842 41.10174258     2     171   175   176   177
H 1.50656203 46.63932254 41.46938511     6    174    0    0    0
H -0.98154425 44.64183458 40.70422888     6    174    0    0    0
C 1.99092238 42.77629129 43.16423612     2    174   178   179   180
H 1.38339003 40.91776643 42.83871163     6    177    0    0    0
H 4.12855355 42.95897037 43.58482126     6    177    0    0    0
C 0.97067674 43.31219316 45.81508656     2    177   181   182   183
H 1.54422201 45.23417155 46.29593599     6    180    0    0    0
H -1.00822742 43.60877446 45.65382784     6    180    0    0    0
C 1.78343638 41.25892830 47.65968342     2    180   184   185   186
H 0.90460570 39.42852765 47.19739396     6    183    0    0    0
H 3.82688496 40.86611011 47.55549288     6    183    0    0    0
C 1.14024725 41.59612639 50.51154419     2    183   187   188   189
H 2.23114598 43.41483682 51.06851457     6    186    0    0    0
H -0.86268302 42.12375768 50.78638849     6    186    0    0    0
C 1.60877891 39.53985773 52.39561007     2    186   190   191   192
H 0.65154602 37.90784990 51.62876840     6    189    0    0    0
H 3.59310872 38.94122233 52.44343707     6    189    0    0    0
C 1.01354655 40.22908768 55.12053864     2    189   193   194   195
H 2.47869885 41.66608312 55.81952823     6    192    0    0    0
H -0.76500666 41.22249496 55.25493568     6    192    0    0    0
C 1.24508396 38.04206248 56.92753625     2    192   196   197   198
H -0.38887368 36.85736818 56.48307555     6    195    0    0    0
H 3.07176776 37.10261969 56.53682279     6    195    0    0    0
C 0.81235492 38.80925792 59.68538819     1    195   199   200   201
H -0.18718831 37.26549225 60.80376205     6    198    0    0    0
H -0.53415839 40.33717118 59.88309685     6    198    0    0    0
H 2.35139562 39.75649391 60.62540280     6    198    0    0    0
H -11.05390581 29.28047991 23.47933144     6     203    0    0    0 
C -11.21389114 30.78537291 24.90435002     1     202    204    205    206
H -13.22564503 31.52536178 24.53613389     6     203    0    0    0
H -10.90688210 29.56764684 26.67104858     6     203    0    0    0
C -9.10545709 32.65332564 24.48210577     2     203    207    208    209
H -9.47335442 34.37464948 25.68989921     6     206    0    0    0
H -7.36528411 31.76073035 25.06214139     6     206    0    0    0
C -8.54971371 33.54135759 21.68678519     2     206    210   211   212
H -7.36433085 35.21224153 21.80243354     6     209    0    0    0
H -7.42680303 32.09949234 20.65365192     6     209    0    0    0
C -10.97746292 34.14429691 20.31963627     2     209   213   214   215
H -12.27389125 32.49425933 20.22769336     6    212    0    0    0
H -11.95860632 35.81670653 21.09937147     6    212    0    0    0
C -10.69110094 35.03090593 17.55170996     2    212   216   217   218
H -9.79192985 36.88158230 17.79495290     6    215    0    0    0
H -9.41951809 33.84176966 16.35640793     6    215    0    0    0
C -13.21380628 35.26148027 16.05704500     2    215   219   220   221
H -13.87416911 33.40878099 15.68247131     6    218    0    0    0
H -14.73483867 36.19014207 17.25313366     6    218    0    0    0
C -12.98531795 36.78059959 13.62803703     2    218   222   223   224
H -11.88553473 38.53879009 13.73214532     6    221    0    0    0
H -12.22897720 35.48244899 12.37162096     6    221    0    0    0
C -15.76023626 37.40177018 12.86755421     2    221   225   226   227
H -17.01522606 35.83141318 12.88124755     6    224    0    0    0
H -16.42514080 38.68881833 14.33958947     6    224    0    0    0
C -15.98009085 39.01053893 10.44287347     2    224   228   229   230
H -14.69127174 40.64290634 10.75102944     6    227    0    0    0
H -14.98832282 38.06491744 8.98358122     6    227    0    0    0
C -18.67593410 39.75846684 9.63024120     2    227   231   232   233
H -19.87186868 38.07282140 9.48614211     6    230    0    0    0
H -19.58689643 41.09412110 11.07836354     6    230    0    0    0
C -18.65344010 41.08877346 7.00123329     2    230   234   235   236
H -17.71700928 42.90588089 7.21019998     6    233    0    0    0
H -17.53149971 39.98156430 5.83409605     6    233    0    0    0
C -21.05419737 41.59224635 5.65145027     1    233   237   238   239
H -20.73120419 42.04980236 3.78712901     6    236    0    0    0
H -21.84739011 43.22397022 6.42935793     6    236    0    0    0
H -22.55252634 40.09932058 5.87652886     6    236    0    0    0
H -13.38978512 10.11749423 19.44640639     6     241    0    0    0 
C -12.79813945 10.94333525 17.64403906     1     240    242    243    244
H -12.80439062 13.03851783 17.83891298     6     241    0    0    0
H -10.71504661 10.51445431 17.48291940     6     241    0    0    0
C -14.28353503 9.90454815 15.37069973     2     241    245    246    247
H -16.23334612 10.75453462 15.68337286     6     244    0    0    0
H -13.46420317 10.72204257 13.59565411     6     244    0    0    0
C -14.32971410 7.01515873 15.44243851     2     244    248   249   250
H -12.48136852 6.22479772 14.73500999     6     247    0    0    0
H -14.28360382 6.16789031 17.33055907     6     247    0    0    0
C -16.14510277 5.66952710 13.64334145     2     247   251   252   253
H -15.88237649 3.67877654 14.08443841     6    250    0    0    0
H -18.07707074 6.39194133 14.18613801     6    250    0    0    0
C -15.70381101 6.07659943 10.85545136     2    250   254   255   256
H -16.10793795 8.00616499 10.41019127     6    253    0    0    0
H -13.59612921 5.70072320 10.61938370     6    253    0    0    0
C -17.34209722 4.17404887 9.39129036     2    253   257   258   259
H -16.42077193 3.85885269 7.59565839     6    256    0    0    0
H -17.39832805 2.40286665 10.49522552     6    256    0    0    0
C -19.93512147 5.29627323 8.94186010     2    256   260   261   262
H -20.44372249 6.00932129 10.77925792     6    259    0    0    0
H -19.85081187 6.93073625 7.58538058     6    259    0    0    0
C -21.78737568 3.31585855 7.83299688     2    259   263   264   265
H -20.99795149 2.81252858 6.04351981     6    262    0    0    0
H -21.87976548 1.59057451 8.97513411     6    262    0    0    0
C -24.48699247 4.20506512 7.43130132     2    262   266   267   268
H -25.07314123 4.51902162 9.47380254     6    265    0    0    0
H -24.89692930 5.99685159 6.56196321     6    265    0    0    0
C -26.10369093 2.21304445 6.06502764     2    265   269   270   271
H -25.33712802 1.60901320 4.29313477     6    268    0    0    0
H -26.08087676 0.41770212 7.09647848     6    268    0    0    0
C -28.74687688 3.02923703 5.55669778     2    268   272   273   274
H -29.57896361 4.09605826 7.12934301     6    271    0    0    0
H -28.80495107 4.36716665 3.97581211     6    271    0    0    0
C -30.64261542 0.83501999 4.87672408     1    271   275   276   277
H -29.81780444 -0.33224871 3.46098935     6    274    0    0    0
H -32.49330301 1.53216470 4.38234987     6    274    0    0    0
H -30.94575262 -0.45830282 6.48358955     6    274    0    0    0
H -1.44402068 29.77142687 21.93804218     6     279    0    0    0 
C -2.30372929 28.73402801 20.36012655     1     278    280    281    282
H -3.48061394 30.08270331 19.46107188     6     279    0    0    0
H -0.80285252 28.20764991 18.98078674     6     279    0    0    0
C -3.70181519 26.38070840 21.29869020     2     279    283    284    285
H -2.47295259 24.93279635 22.17535179     6     282    0    0    0
H -4.65968156 26.82067582 23.02155838     6     282    0    0    0
C -5.43580147 25.15504053 19.29325500     2     282    286   287   288
H -4.14144236 24.70227815 17.78663335     6     285    0    0    0
H -6.23939219 23.34261506 20.05807685     6     285    0    0    0
C -7.48548893 26.96479357 18.35409428     2     285   289   290   291
H -8.27140049 27.86195897 20.18720765     6    288    0    0    0
H -6.69043068 28.48776255 17.12520329     6    288    0    0    0
C -9.76868777 25.65187789 16.92990567     2    288   292   293   294
H -9.04112259 24.83106213 15.19314191     6    291    0    0    0
H -10.40741559 24.09663300 18.15567088     6    291    0    0    0
C -11.94304517 27.35692777 16.15459404     2    291   295   296   297
H -12.50676656 28.33824095 17.93409759     6    294    0    0    0
H -11.43856400 28.98539550 15.02338113     6    294    0    0    0
C -14.29052223 25.86424009 14.89720101     2    294   298   299   300
H -13.58649371 24.37662046 13.58926874     6    297    0    0    0
H -14.99058984 24.85918925 16.52720806     6    297    0    0    0
C -16.15190279 27.60036700 13.63584631     2    297   301   302   303
H -16.42534813 29.11692625 15.01890425     6    300    0    0    0
H -15.46092529 28.49203901 12.00901444     6    300    0    0    0
C -18.63461619 26.33907118 13.01261632     2    300   304   305   306
H -18.12513426 24.67185675 11.97325933     6    303    0    0    0
H -19.37684502 25.55537773 14.74302605     6    303    0    0    0
C -20.46447769 27.88761722 11.57501700     2    303   307   308   309
H -21.38182829 29.25788127 12.76483604     6    306    0    0    0
H -19.47778243 28.85696718 10.15587173     6    306    0    0    0
C -22.53875584 26.43835692 10.18306954     2    306   310   311   312
H -21.78156834 25.18522790 8.86278250     6    309    0    0    0
H -23.67955203 25.29498158 11.54630481     6    309    0    0    0
C -24.38416832 28.15656683 8.60668640     1    309   313   314   315
H -23.30994480 28.60962420 6.90453010     6    312    0    0    0
H -24.66321081 29.84567616 9.69124879     6    312    0    0    0
H -26.18468087 27.36272268 8.04424758     6    312    0    0    0
H -0.40998359 21.40063514 32.79658275     6     317    0    0    0 
C -1.57717533 19.72706382 32.58419080     1     316    318    319    320
H -3.41279972 20.30434151 32.04193314     6     317    0    0    0
H -0.55187431 18.79418573 31.10481687     6     317    0    0    0
C -1.59329019 18.30270212 34.94739918     2     317    321    322    323
H -2.29666854 16.45116900 34.58317837     6     320    0    0    0
H 0.21560868 18.09740801 35.82094362     6     320    0    0    0
C -3.25181383 19.66351396 36.81721756     2     320    324   325   326
H -2.44917684 21.64460740 36.91227113     6     323    0    0    0
H -5.33787163 19.47321940 36.48193711     6     323    0    0    0
C -3.04493605 18.38706118 39.39330321     2     323   327   328   329
H -3.71734204 16.46697708 39.32645434     6    326    0    0    0
H -1.08688257 18.03580850 39.72804822     6    326    0    0    0
C -4.22777449 19.73058966 41.49819569     2    326   330   331   332
H -3.11209994 21.39620849 41.64149236     6    329    0    0    0
H -6.11797382 20.55187718 41.00293213     6    329    0    0    0
C -4.63982051 18.27056918 44.03654115     2    329   333   334   335
H -2.95974553 17.23523918 44.42724557     6    332    0    0    0
H -4.79176189 19.62035435 45.54072417     6    332    0    0    0
C -6.93165542 16.42162545 43.85556510     2    332   336   337   338
H -8.24790004 17.45192466 42.59439222     6    335    0    0    0
H -6.50816632 14.96728496 42.47359940     6    335    0    0    0
C -8.08635813 15.36192804 46.20578723     2    335   339   340   341
H -9.22187015 13.80537311 45.61992546     6    338    0    0    0
H -6.67544975 14.73332100 47.46956510     6    338    0    0    0
C -9.75392870 17.22283907 47.69862394     2    338   342   343   344
H -9.79690557 19.07085422 46.80301412     6    341    0    0    0
H -11.66533539 16.37767295 47.73488874     6    341    0    0    0
C -8.68570795 17.74156422 50.38864585     2    341   345   346   347
H -8.43713255 15.93428476 51.34977573     6    344    0    0    0
H -6.66747919 18.65835714 50.32441618     6    344    0    0    0
C -10.33428838 19.62138407 51.92283987     2    344   348   349   350
H -10.95948128 21.27071555 50.89097880     6    347    0    0    0
H -11.97282895 18.70167199 52.71058323     6    347    0    0    0
C -8.75709851 20.67148448 54.07786944     1    347   351   352   353
H -10.24499395 21.76001650 55.12774217     6    350    0    0    0
H -7.17407313 21.75557323 53.27036262     6    350    0    0    0
H -8.01641871 19.26800374 55.35008282     6    350    0    0    0
H -9.67354038 10.91090024 21.95660913     6     355    0    0    0 
C -8.97326583 12.65134929 22.71225360     1     354    356    357    358
H -10.29279285 14.07915561 22.13959456     6     355    0    0    0
H -9.08877164 12.36149637 24.78783617     6     355    0    0    0
C -6.36671074 13.54850474 21.63487627     2     355    359    360    361
H -5.11126205 11.82356081 21.51499872     6     358    0    0    0
H -6.42506173 14.22520636 19.67749235     6     358    0    0    0
C -5.23767745 15.43669456 23.42772876     2     358    362   363   364
H -6.71684325 16.94970266 23.74138132     6     361    0    0    0
H -4.93140717 14.57464062 25.29460341     6     361    0    0    0
C -2.66000772 16.60145759 22.50821427     2     361   365   366   367
H -1.57802658 15.09229691 21.78543501     6    364    0    0    0
H -2.92756616 17.92636013 20.90035641     6    364    0    0    0
C -1.44375750 17.99950806 24.95419946     2    364   368   369   370
H -2.67434473 19.52696866 25.49998637     6    367    0    0    0
H -1.18890400 16.80855603 26.57534004     6    367    0    0    0
C 1.24582753 19.10744777 24.25564319     2    367   371   372   373
H 2.52089796 17.68860931 23.85519409     6    370    0    0    0
H 1.02617754 20.24487142 22.56124261     6    370    0    0    0
C 2.21405854 20.84419906 26.27262196     2    370   374   375   376
H 1.11579673 22.64459598 26.20885534     6    373    0    0    0
H 2.07944538 20.04596762 28.20511050     6    373    0    0    0
C 4.95198566 21.52348279 25.74392525     2    373   377   378   379
H 6.05908684 19.92943952 25.09158387     6    376    0    0    0
H 5.04509747 22.94660966 24.25806727     6    376    0    0    0
C 6.34461155 22.52206379 28.12524975     2    376   380   381   382
H 5.87416945 21.39945253 29.75409983     6    379    0    0    0
H 8.37355467 22.24993266 27.84619433     6    379    0    0    0
C 5.50760472 25.30933175 28.73218282     2    379   383   384   385
H 6.19177034 26.69953327 27.36879085     6    382    0    0    0
H 3.45068754 25.19989420 28.71056959     6    382    0    0    0
C 6.42764995 26.05858952 31.37009936     2    382   386   387   388
H 5.47346658 27.60808496 32.43948065     6    385    0    0    0
H 6.06354525 24.74125990 32.88998008     6    385    0    0    0
C 9.23763344 26.54864499 31.31796170     1    385   389   390   391
H 10.12626470 24.88073608 30.58424208     6    388    0    0    0
H 9.95902669 26.75461068 33.29198806     6    388    0    0    0
H 9.64446368 28.22294672 30.12259105     6    388    0    0    0
H -30.58530423 11.54633301 63.24606290     6     393    0    0    0 
C -31.94478483 10.89139940 61.70880783     1     392    394    395    396
H -33.39973257 9.93401673 62.69132844     6     393    0    0    0
H -33.00263511 12.56002754 60.90040211     6     393    0    0    0
C -30.55896392 9.44499987 59.60251942     2     393    397    398    399
H -28.87233386 10.26826225 58.73997486     6     396    0    0    0
H -29.84126179 7.75579109 60.52318538     6     396    0    0    0
C -32.49878666 8.70890058 57.64313662     2     396    400   401   402
H -34.07917798 7.68888978 58.59844790     6     399    0    0    0
H -33.33479115 10.45874160 56.92561793     6     399    0    0    0
C -31.80290490 6.92846615 55.34146517     2     399   403   404   405
H -30.01450853 7.68320782 54.54474318     6    402    0    0    0
H -31.19841191 5.02981392 55.84268333     6    402    0    0    0
C -33.73795274 6.81159396 53.23405358     2    402   406   407   408
H -35.12404336 5.46045256 53.84542440     6    405    0    0    0
H -34.67734545 8.66649759 53.11207235     6    405    0    0    0
C -32.52680718 6.06310943 50.71731487     2    405   409   410   411
H -30.85006657 7.21072612 50.26387888     6    408    0    0    0
H -31.97700534 4.03986248 51.01703310     6    408    0    0    0
C -34.36055080 6.09369800 48.55160082     2    408   412   413   414
H -35.98246431 4.81533954 48.89510615     6    411    0    0    0
H -35.13852756 7.98029462 47.89296101     6    411    0    0    0
C -33.19000514 4.72449499 46.28006910     2    411   415   416   417
H -31.17077330 5.15075826 45.95487895     6    414    0    0    0
H -33.10734988 2.68306954 46.60204740     6    414    0    0    0
C -34.78096094 5.16779249 43.80918591     2    414   418   419   420
H -36.74017546 5.27785946 44.35474646     6    417    0    0    0
H -34.37352071 7.11006184 43.26986140     6    417    0    0    0
C -34.42646050 3.17029804 41.76810191     2    417   421   422   423
H -32.60578697 3.31804494 40.91288869     6    420    0    0    0
H -34.69287101 1.18147311 42.46166057     6    420    0    0    0
C -36.27538816 3.60652435 39.60481866     2    420   424   425   426
H -36.29370643 2.11066885 38.17025188     6    423    0    0    0
H -38.30828426 3.99624160 40.20476072     6    423    0    0    0
C -35.50077872 6.01000278 38.17408383     1    423   427   428   429
H -37.16347771 6.48515683 36.95079346     6    426    0    0    0
H -33.92322323 5.72720329 36.90406195     6    426    0    0    0
H -35.37884984 7.83875422 39.33261738     6    426    0    0    0
H -16.61993182 -10.02371892 33.77079603     6     431    0    0    0 
C -16.20734364 -7.97741506 34.26666729     1     430    432    433    434
H -14.29499748 -7.99065808 34.97827313     6     431    0    0    0
H -16.07293765 -6.99163742 32.42977462     6     431    0    0    0
C -18.16216326 -6.95294186 36.13714833     2     431    435    436    437
H -20.08653819 -7.06635571 35.29363239     6     434    0    0    0
H -18.17496075 -8.30335303 37.65433098     6     434    0    0    0
C -17.44940898 -4.32323739 36.77617658     2     434    438   439   440
H -15.52361753 -4.40243777 37.47122000     6     437    0    0    0
H -17.63606673 -3.44888710 34.97459018     6     437    0    0    0
C -19.06251495 -2.94737415 38.76410899     2     437   441   442   443
H -18.33300370 -0.94557319 39.12858341     6    440    0    0    0
H -21.02989289 -2.74100240 37.89572476     6    440    0    0    0
C -19.16988138 -4.04943081 41.33967013     2    440   444   445   446
H -19.87766444 -6.00613043 41.35853718     6    443    0    0    0
H -17.21070551 -3.78983740 42.07616807     6    443    0    0    0
C -20.96079375 -2.55118166 43.18397870     2    443   447   448   449
H -20.26079662 -0.60747401 43.67897961     6    446    0    0    0
H -22.70639542 -2.26521530 42.18596119     6    446    0    0    0
C -21.90188879 -3.87559202 45.61747406     2    446   450   451   452
H -21.72387686 -5.96262739 45.32621838     6    449    0    0    0
H -20.59651174 -3.28996540 47.08200035     6    449    0    0    0
C -24.71392483 -3.18151536 46.39433500     2    449   453   454   455
H -24.85541996 -1.06902686 46.26744702     6    452    0    0    0
H -25.92821651 -3.90932084 45.06070366     6    452    0    0    0
C -25.36556089 -4.28985112 48.99479367     2    452   456   457   458
H -25.82902847 -6.36324960 48.73378570     6    455    0    0    0
H -23.84852053 -4.04726834 50.43385314     6    455    0    0    0
C -27.64104939 -3.00679343 50.09727889     2    455   459   460   461
H -27.57157763 -2.98075560 52.13053699     6    458    0    0    0
H -27.67753420 -0.94981177 49.79565543     6    458    0    0    0
C -30.08307033 -4.18588752 49.17494733     2    458   462   463   464
H -30.62764606 -3.60464509 47.31345121     6    461    0    0    0
H -29.81542136 -6.23324930 49.10990032     6    461    0    0    0
C -32.31123339 -3.53018250 50.88733120     1    461   465   466   467
H -32.70871283 -1.43183372 50.94473355     6    464    0    0    0
H -32.01448857 -3.94715090 52.83534420     6    464    0    0    0
H -33.97234337 -4.61293422 50.53493753     6    464    0    0    0
H 3.83040886 26.46080597 19.98191551     6     469    0    0    0 
C 4.73916436 26.62612232 18.21712846     1     468    470    471    472
H 3.83415741 28.08388516 17.05400985     6     469    0    0    0
H 6.65886891 27.21657901 18.51661834     6     469    0    0    0
C 4.49270935 24.09444597 16.64310835     2     469    473    474    475
H 5.70443062 24.08731658 14.97103661     6     472    0    0    0
H 5.36972606 22.68112938 17.82529024     6     472    0    0    0
C 1.87761414 23.26903991 15.92120663     2     472    476   477   478
H 0.76702623 23.55770087 17.65612079     6     475    0    0    0
H 1.27061141 24.53709090 14.58942718     6     475    0    0    0
C 1.74818128 20.38795164 15.29492710     2     475   479   480   481
H 3.15856490 20.03961012 13.80957783     6    478    0    0    0
H 2.32160404 19.25057102 16.89160065     6    478    0    0    0
C -0.88887077 19.64828306 14.42330253     2    478   482   483   484
H -2.32012461 20.26018540 15.78351286     6    481    0    0    0
H -1.25690704 20.94864939 12.86475031     6    481    0    0    0
C -0.99379194 16.95341830 13.75886919     2    481   485   486   487
H 0.12235759 16.78902975 12.01446818     6    484    0    0    0
H 0.24371240 15.87728265 15.12654013     6    484    0    0    0
C -3.61271552 15.69027962 13.63238258     2    484   488   489   490
H -4.11773208 15.29371924 15.67307322     6    487    0    0    0
H -5.29576408 16.59538340 12.75179450     6    487    0    0    0
C -3.32875546 13.16699206 12.38982006     2    487   491   492   493
H -3.05100344 13.44941631 10.40580635     6    490    0    0    0
H -1.56602409 12.16405306 13.00711674     6    490    0    0    0
C -5.52201415 11.39959911 13.03052257     2    490   494   495   496
H -5.54416677 11.15401803 15.15836153     6    493    0    0    0
H -7.32835071 12.20293092 12.49734473     6    493    0    0    0
C -5.20856185 8.67232371 11.92770166     2    493   497   498   499
H -4.74779028 8.93575439 9.94225938     6    496    0    0    0
H -3.62322529 7.81189691 12.92175654     6    496    0    0    0
C -7.73130549 7.20377472 12.17257773     2    496   500   501   502
H -8.26762315 6.57078853 14.00733545     6    499    0    0    0
H -9.17935312 8.17198547 11.08503986     6    499    0    0    0
C -7.62804526 4.95189092 10.54945311     1    499   503   504   505
H -9.60317364 4.13950079 10.59649808     6    502    0    0    0
H -6.16853804 3.65677171 11.07717850     6    502    0    0    0
H -7.35539008 5.55348251 8.62310879     6    502    0    0    0
H -22.65094278 -8.77548372 16.78066788     6     507    0    0    0 
C -23.50843352 -9.49314043 18.50865354     1     506    508    509    510
H -25.52992954 -10.10316337 18.15846896     6     507    0    0    0
H -22.38419714 -11.20055684 19.03023054     6     507    0    0    0
C -23.46858872 -7.38055288 20.49700567     2     507    511    512    513
H -21.75377352 -6.31287139 20.70291736     6     510    0    0    0
H -25.13494512 -6.16498605 20.21199057     6     510    0    0    0
C -23.66525463 -8.42360486 23.14431580     2     510    514   515   516
H -25.43977732 -9.36969584 23.55004448     6     513    0    0    0
H -22.23607151 -9.80815595 23.57877492     6     513    0    0    0
C -23.35425883 -6.23432427 25.10689740     2     513   517   518   519
H -21.48745245 -5.45474550 25.08835385     6    516    0    0    0
H -24.22287408 -4.53885209 24.44191958     6    516    0    0    0
C -24.21869028 -7.02729371 27.70469150     2    516   520   521   522
H -26.15662611 -7.28529503 27.91143284     6    519    0    0    0
H -23.18756354 -8.71240386 28.34575194     6    519    0    0    0
C -23.49454325 -4.85810010 29.62647664     2    519   523   524   525
H -21.48942934 -4.92980857 29.93893276     6    522    0    0    0
H -23.94611956 -3.02302040 28.92084031     6    522    0    0    0
C -24.73764394 -5.55242093 32.15753490     2    522   526   527   528
H -26.64698247 -6.47938468 31.76179519     6    525    0    0    0
H -23.71107111 -7.02486515 33.06582693     6    525    0    0    0
C -25.01046528 -3.25367019 33.82375364     2    525   529   530   531
H -23.09561006 -2.89524051 34.61496841     6    528    0    0    0
H -25.57166001 -1.57148761 32.77925036     6    528    0    0    0
C -26.95507063 -3.55704067 35.97440867     2    528   532   533   534
H -28.79321386 -3.66306902 35.14388461     6    531    0    0    0
H -26.89143309 -5.47018498 36.64824487     6    531    0    0    0
C -27.00676526 -1.35256980 37.77747932     2    531   535   536   537
H -25.09012427 -1.10984066 38.39057131     6    534    0    0    0
H -27.62753926 0.29660873 36.73757387     6    534    0    0    0
C -28.69570473 -1.74836883 40.00817731     2    534   538   539   540
H -30.70322988 -1.69432779 39.53341048     6    537    0    0    0
H -28.65284322 -3.63212032 40.97781072     6    537    0    0    0
C -28.18728842 0.25652025 42.03789967     1    537   541   542   543
H -29.35918274 0.13714289 43.77194137     6    540    0    0    0
H -28.46274770 2.11871848 41.28350234     6    540    0    0    0
H -26.18340884 0.13512470 42.67654264     6    540    0    0    0
H -17.75875114 16.31248401 51.65122314     6     545    0    0    0 
C -19.22899446 17.48205595 52.29611515     1     544    546    547    548
H -20.11522564 18.45604265 50.68691581     6     545    0    0    0
H -20.75013575 16.30372486 53.05979934     6     545    0    0    0
C -18.06586746 19.30348226 54.32222657     2     545    549    550    551
H -17.64674324 18.11693359 55.88967285     6     548    0    0    0
H -16.31845980 20.20061196 53.61895929     6     548    0    0    0
C -19.88182041 21.39991319 54.96943235     2     548    552   553   554
H -20.41844200 22.52328476 53.28171434     6     551    0    0    0
H -21.50348652 20.46030659 55.80511992     6     551    0    0    0
C -19.16142873 23.07189615 57.24017406     2     551   555   556   557
H -19.17141855 22.09191656 58.92701900     6    554    0    0    0
H -17.11574717 23.61995570 57.10561845     6    554    0    0    0
C -20.95909114 25.28794583 57.67513022     2    554   558   559   560
H -20.85945812 26.50640457 56.06404565     6    557    0    0    0
H -22.90230058 24.55077745 57.72023682     6    557    0    0    0
C -20.30539148 26.64629666 60.27638016     2    557   561   562   563
H -21.20174590 25.52380057 61.81054653     6    560    0    0    0
H -18.20479448 26.60917610 60.57180956     6    560    0    0    0
C -21.41872168 29.28088669 60.38599299     2    560   564   565   566
H -20.91973169 30.43048070 58.59993591     6    563    0    0    0
H -23.51430233 29.23937249 60.26669148     6    563    0    0    0
C -20.35740803 30.59701341 62.90392978     2    563   567   568   569
H -20.58624112 29.32573236 64.47708914     6    566    0    0    0
H -18.34945147 30.70991306 62.49535338     6    566    0    0    0
C -21.45723444 33.24622121 63.20294061     2    566   570   571   572
H -20.56690415 34.37049188 61.68041047     6    569    0    0    0
H -23.48295264 33.22591184 63.08854660     6    569    0    0    0
C -20.58384293 34.42193640 65.64854278     2    569   573   574   575
H -21.48938309 33.60605206 67.22256630     6    572    0    0    0
H -18.81159274 33.69468058 65.92727076     6    572    0    0    0
C -20.48021753 37.43834767 65.86887184     2    572   576   577   578
H -22.18909561 38.18513728 65.22016726     6    575    0    0    0
H -20.41607873 37.85714295 67.94294355     6    575    0    0    0
C -18.10781546 38.62091379 64.89171864     1    575   579   580   581
H -16.45979808 38.23940149 66.20649981     6    578    0    0    0
H -18.34721609 40.62589331 64.55888779     6    578    0    0    0
H -17.64585219 37.65663665 63.27469730     6    578    0    0    0
H 1.86022104 33.93220134 23.20085509     6     583    0    0    0 
C 0.86752497 35.44270689 24.28973769     1     582    584    585    586
H 1.47931737 37.19592126 23.62995251     6     583    0    0    0
H -1.09018691 35.06398361 24.02790167     6     583    0    0    0
C 1.46208817 35.10036938 27.12159402     2     583    587    588    589
H 0.88176477 33.21250422 27.41765088     6     586    0    0    0
H 3.33393837 35.16532044 27.86524681     6     586    0    0    0
C -0.19540186 36.85225127 28.65316819     2     586    590   591   592
H 0.56966225 38.72479289 28.26019526     6     589    0    0    0
H -2.01219257 36.63818222 27.88005068     6     589    0    0    0
C -0.26197624 36.26521393 31.48949580     2     589   593   594   595
H -0.73883207 34.37356622 31.54287790     6    592    0    0    0
H 1.50731034 36.51404623 32.50331457     6    592    0    0    0
C -2.28984459 37.69018831 33.03780426     2    592   596   597   598
H -2.02956611 39.69831673 32.93938363     6    595    0    0    0
H -4.07517916 37.76644279 32.05656287     6    595    0    0    0
C -2.31077192 36.88259964 35.98648447     2    595   599   600   601
H -2.97268956 34.87498761 36.33797914     6    598    0    0    0
H -0.42655165 36.68589568 36.66752764     6    598    0    0    0
C -3.69651152 38.74137456 37.88518195     2    598   602   603   604
H -2.67489854 40.54539324 37.81695167     6    601    0    0    0
H -5.63036595 39.32057333 37.35571177     6    601    0    0    0
C -3.37087628 37.60477733 40.52402870     2    601   605   606   607
H -4.20049568 35.72883918 40.47677887     6    604    0    0    0
H -1.32218925 37.33070133 40.97118788     6    604    0    0    0
C -4.48971689 39.08353588 42.79535413     2    604   608   609   610
H -3.55570010 40.99181479 42.94537843     6    607    0    0    0
H -6.41764089 39.59698536 42.33108431     6    607    0    0    0
C -4.72142980 37.58201923 45.19052043     2    607   611   612   613
H -5.65346797 35.88408772 44.71534043     6    610    0    0    0
H -2.80327365 37.01439082 45.84149668     6    610    0    0    0
C -6.00874870 38.92053259 47.23376594     2    610   614   615   616
H -4.86349732 40.69827221 47.52159588     6    613    0    0    0
H -7.95988232 39.37955503 46.86840651     6    613    0    0    0
C -6.00433213 37.27109820 49.55028108     1    613   617   618   619
H -6.97682967 38.02631194 51.19639995     6    616    0    0    0
H -4.14092828 36.88556848 50.38452823     6    616    0    0    0
H -7.05750237 35.44822291 49.30389376     6    616    0    0    0
H -36.99797670 24.65888753 36.18557092     6     621    0    0    0 
C -36.86455090 23.79099695 34.26875570     1     620    622    623    624
H -35.08251646 22.60928346 34.34628744     6     621    0    0    0
H -38.45976727 22.55542864 34.03645199     6     621    0    0    0
C -36.78236852 25.85258409 32.15247840     2     621    625    626    627
H -36.71689791 25.08908988 30.30842573     6     624    0    0    0
H -38.55726226 26.77982016 32.61107098     6     624    0    0    0
C -34.63547600 27.83808269 32.49748568     2     624    628   629   630
H -34.59163405 29.06324739 34.14921378     6     627    0    0    0
H -32.84660192 26.82751229 32.63811496     6     627    0    0    0
C -34.39377449 29.68486865 30.26308023     2     627   631   632   633
H -32.88787083 31.04330386 30.83369015     6    630    0    0    0
H -34.15059990 28.45691796 28.57859391     6    630    0    0    0
C -36.87137683 31.13644019 29.78756621     2    630   634   635   636
H -38.53060087 30.16250032 29.53596621     6    633    0    0    0
H -37.31443589 32.22247083 31.51075064     6    633    0    0    0
C -36.44387881 32.85724214 27.44741521     2    633   637   638   639
H -34.83104337 34.13097057 27.81983855     6    636    0    0    0
H -36.08311481 31.75402186 25.80722682     6    636    0    0    0
C -38.70857787 34.73624777 27.03152756     2    636   640   641   642
H -40.53154781 33.74427483 27.13101710     6    639    0    0    0
H -39.06897185 35.90229420 28.54920998     6    639    0    0    0
C -38.81973897 36.13619921 24.40911103     2    639   643   644   645
H -37.53682574 37.73966353 24.23114465     6    642    0    0    0
H -38.39281200 34.83977808 22.83288418     6    642    0    0    0
C -41.42328893 37.25689983 23.65067799     2    642   646   647   648
H -41.45186937 37.61843119 21.57794712     6    645    0    0    0
H -42.90776538 35.95128587 24.23513727     6    645    0    0    0
C -41.98254220 39.83724837 25.04962781     2    645   649   650   651
H -41.33735711 39.69024605 27.04611884     6    648    0    0    0
H -40.79210570 41.19584878 24.17321917     6    648    0    0    0
C -44.83852239 40.32805488 24.71294335     2    648   652   653   654
H -45.53100122 40.32232961 22.84905188     6    651    0    0    0
H -45.83142756 39.09437403 25.94704316     6    651    0    0    0
C -45.52164156 42.91273098 25.92077042     1    651   655   656   657
H -45.12010593 43.13461134 27.91422218     6    654    0    0    0
H -47.50788681 43.51196233 25.84461850     6    654    0    0    0
H -44.22861904 44.30447782 25.06096606     6    654    0    0    0
H -10.86113294 33.65640570 30.55205200     6     659    0    0    0 
C -11.35333848 33.51575440 32.51692702     1     658    660    661    662
H -13.24482822 34.15469578 32.73827504     6     659    0    0    0
H -10.91442206 31.61779949 33.17709344     6     659    0    0    0
C -9.74744956 35.58507992 33.91592603     2     659    663    664    665
H -7.76728961 35.18264387 33.80272603     6     662    0    0    0
H -10.02012796 37.24190414 32.73510108     6     662    0    0    0
C -10.58549962 36.25494105 36.59524893     2     662    666   667   668
H -9.30092031 37.77458761 37.03943648     6     665    0    0    0
H -12.43397802 37.17626350 36.42279627     6     665    0    0    0
C -10.43352616 34.04678313 38.58366816     2     665   669   670   671
H -11.86972155 32.50064822 38.05785742     6    668    0    0    0
H -8.64959038 32.98902577 38.35498054     6    668    0    0    0
C -10.66740566 35.26052441 41.28081476     2    668   672   673   674
H -9.10114108 36.63547252 41.65291033     6    671    0    0    0
H -12.45709428 36.28925133 41.54856186     6    671    0    0    0
C -10.65037043 33.29308624 43.47014116     2    671   675   676   677
H -11.84267783 31.63859022 42.96583910     6    674    0    0    0
H -8.84672728 32.36998165 43.71211940     6    674    0    0    0
C -11.73711195 34.43037426 45.90843089     2    674   678   679   680
H -11.27687258 33.19781589 47.34357286     6    677    0    0    0
H -10.71509121 36.09985262 46.08230144     6    677    0    0    0
C -14.59490900 34.96572860 46.00755560     2    677   681   682   683
H -15.16508730 36.03853399 44.43341415     6    680    0    0    0
H -15.75063730 33.40194405 45.64711852     6    680    0    0    0
C -15.46832189 36.34985377 48.35487644     2    680   684   685   686
H -14.40319803 37.98930029 48.91836828     6    683    0    0    0
H -17.28898922 37.19871712 47.93170687     6    683    0    0    0
C -15.57474181 34.69421652 50.79323353     2    683   687   688   689
H -17.07121543 33.27113880 50.54375805     6    686    0    0    0
H -13.90187867 33.45235556 51.10366762     6    686    0    0    0
C -15.84701766 36.30169784 53.17197443     2    686   690   691   692
H -17.34409686 37.87059927 53.02737868     6    689    0    0    0
H -16.51573892 35.00328638 54.64643131     6    689    0    0    0
C -13.44359523 37.60414424 54.09983261     1    689   693   694   695
H -13.56734270 38.78950413 55.87696767     6    692    0    0    0
H -12.93685076 38.72695196 52.47874350     6    692    0    0    0
H -12.01524821 36.14271655 54.48965939     6    692    0    0    0
H -32.29143884 34.26616000 66.37436935     6     697    0    0    0 
C -32.17941191 32.62760060 65.12067848     1     696    698    699    700
H -33.88487897 31.56079931 65.69083465     6     697    0    0    0
H -32.22436133 33.51193446 63.23189645     6     697    0    0    0
C -29.87805959 31.01372191 65.43687719     2     697    701    702    703
H -28.37524034 32.13010364 64.67275719     6     700    0    0    0
H -29.41411131 31.05228721 67.47233232     6     700    0    0    0
C -30.07323127 28.46309186 64.21467276     2     700    704   705   706
H -31.47231280 27.34155060 64.90322819     6     703    0    0    0
H -30.31627299 28.67504159 62.13982674     6     703    0    0    0
C -27.57556430 26.87105878 64.59508003     2     703   707   708   709
H -26.12192215 27.58896209 63.32183478     6    706    0    0    0
H -27.03675359 27.30200066 66.59832246     6    706    0    0    0
C -28.06779498 24.06007733 64.09036687     2    706   710   711   712
H -29.82890750 23.35965077 64.92398609     6    709    0    0    0
H -28.23076249 23.90345112 62.00139669     6    709    0    0    0
C -26.02156264 22.29662898 65.18556075     2    709   713   714   715
H -24.18211043 22.88913924 64.50352926     6    712    0    0    0
H -25.85418215 22.43603600 67.13568039     6    712    0    0    0
C -26.24905005 19.52606673 64.06380733     2    712   716   717   718
H -28.09785725 18.79728878 64.01902677     6    715    0    0    0
H -25.48338915 19.71224245 62.06740377     6    715    0    0    0
C -24.46986252 17.56406360 65.36460221     2    715   719   720   721
H -22.50695388 18.23080945 65.43045505     6    718    0    0    0
H -25.02541897 17.30306721 67.28376032     6    718    0    0    0
C -24.40882194 15.00216760 64.05088238     2    718   722   723   724
H -26.46358895 14.36566815 63.76587489     6    721    0    0    0
H -23.43306945 15.19587561 62.14705326     6    721    0    0    0
C -23.06233077 12.98745689 65.65165283     2    721   725   726   727
H -21.64680670 14.09068198 66.52671407     6    724    0    0    0
H -24.57990919 12.50693958 67.07978099     6    724    0    0    0
C -22.01816605 10.69362279 64.11364945     2    724   728   729   730
H -20.48864563 11.09910223 62.80767203     6    727    0    0    0
H -21.01624567 9.33783530 65.34624625     6    727    0    0    0
C -24.09715734 9.39877646 62.61581329     1    727   731   732   733
H -23.88857004 7.52154349 61.83911565     6    730    0    0    0
H -25.09180919 10.64237930 61.26852890     6    730    0    0    0
H -25.63390040 9.16839889 63.95952279     6    730    0    0    0
H -1.53718225 8.82775685 38.79468614     6     735    0    0    0 
C 0.58509387 8.82770817 38.44484914     1     734    736    737    738
H 1.42060221 9.57870625 40.13820771     6     735    0    0    0
H 1.32532290 6.91432222 38.47460177     6     735    0    0    0
C 1.27610938 10.26551536 36.08316871     2     735    739    740    741
H 0.86222236 12.22248436 36.51004389     6     738    0    0    0
H 3.37661490 10.16826426 35.83079335     6     738    0    0    0
C 0.01157951 9.50022541 33.71063896     2     738    742   743   744
H 0.48469631 7.59895735 33.36459917     6     741    0    0    0
H -1.96733167 9.67918394 34.01739386     6     741    0    0    0
C 0.89947705 11.11113228 31.55943257     2     741   745   746   747
H 0.98484110 13.03096157 32.23762366     6    744    0    0    0
H 2.79204074 10.63284739 31.17540884     6    744    0    0    0
C -0.62202814 10.95979643 29.21736436     2    744   748   749   750
H -2.49800815 11.32432905 29.74529556     6    747    0    0    0
H -0.15515434 12.30057206 27.80626134     6    747    0    0    0
C -0.08826428 8.57672886 27.58744389     2    747   751   752   753
H 1.92696188 8.65892229 27.00366501     6    750    0    0    0
H -0.42578689 6.87350564 28.69995443     6    750    0    0    0
C -2.01695215 8.22742534 25.51421004     2    750   754   755   756
H -3.88941334 8.44512810 26.22352484     6    753    0    0    0
H -1.61373908 9.85996878 24.39221373     6    753    0    0    0
C -1.80359175 5.65582723 24.20875668     2    753   757   758   759
H 0.14990452 5.27616128 23.71522525     6    756    0    0    0
H -2.15137142 4.28289687 25.66517768     6    756    0    0    0
C -3.78395081 5.57804540 21.94710325     2    756   760   761   762
H -5.66540227 5.53269442 22.71310398     6    759    0    0    0
H -3.71556999 7.16298479 20.80068050     6    759    0    0    0
C -3.43029799 3.26981841 20.25439906     2    759   763   764   765
H -1.50546122 3.04345821 19.65858195     6    762    0    0    0
H -3.94912310 1.50604501 21.34436905     6    762    0    0    0
C -5.04817821 3.61172972 17.93595536     2    762   766   767   768
H -6.97782642 4.07882093 18.62888424     6    765    0    0    0
H -4.51390336 5.24715100 16.85540264     6    765    0    0    0
C -4.89950565 1.16424485 16.29008530     1    765   769   770   771
H -3.05051960 0.73190787 15.36712054     6    768    0    0    0
H -6.39410091 1.34633576 15.02961364     6    768    0    0    0
H -5.12101042 -0.58662343 17.48866109     6    768    0    0    0
H -41.23283371 19.45536661 28.72574771     6     773    0    0    0 
C -42.70201886 19.12722388 27.41831189     1     772    774    775    776
H -44.47412537 20.03752380 28.13708433     6     773    0    0    0
H -42.10830856 20.13752658 25.76188045     6     773    0    0    0
C -43.41753127 16.42754034 26.99603562     2     773    777    778    779
H -45.38020521 16.64264911 26.34256030     6     776    0    0    0
H -42.24096747 15.45596225 25.62675004     6     776    0    0    0
C -43.04878528 15.06810488 29.62567189     2     776    780   781   782
H -41.11872318 15.24280405 30.43544442     6     779    0    0    0
H -44.10808890 16.18216788 31.04160939     6     779    0    0    0
C -43.46539528 12.23323393 29.40503709     2     779   783   784   785
H -45.37550345 12.00993133 28.72312977     6    782    0    0    0
H -42.16792431 11.34359527 28.14600312     6    782    0    0    0
C -43.36680787 11.30894043 32.18040518     2    782   786   787   788
H -41.69025925 11.92174247 33.29084359     6    785    0    0    0
H -44.94921398 12.27178122 33.26271866     6    785    0    0    0
C -43.51996028 8.40856846 32.50760518     2    785   789   790   791
H -45.20540380 7.93079806 31.45755840     6    788    0    0    0
H -41.77850094 7.64234594 31.51855947     6    788    0    0    0
C -43.60110409 7.31993942 35.18503489     2    788   792   793   794
H -41.85449372 7.72288667 36.01088926     6    791    0    0    0
H -45.21240082 7.95598197 36.34829039     6    791    0    0    0
C -44.03563022 4.47094368 35.01886154     2    791   795   796   797
H -45.70474889 4.05818794 34.05663914     6    794    0    0    0
H -42.38685434 3.52055926 34.10125128     6    794    0    0    0
C -44.40078644 3.26012096 37.58415852     2    794   798   799   800
H -42.73202499 3.52012696 38.68178361     6    797    0    0    0
H -45.83259371 4.28276629 38.67198465     6    797    0    0    0
C -44.73721206 0.32095266 37.16207918     2    797   801   802   803
H -46.06228890 -0.12642350 35.79027053     6    800    0    0    0
H -42.82654023 -0.00173826 36.44152661     6    800    0    0    0
C -45.16213235 -1.06282820 39.66005624     2    800   804   805   806
H -43.64502410 -0.13262001 40.83145717     6    803    0    0    0
H -46.92840243 -0.95151834 40.63692569     6    803    0    0    0
C -44.56308876 -3.93305399 39.39862020     1    803   807   808   809
H -44.40979609 -4.90349568 41.10133560     6    806    0    0    0
H -42.52697085 -4.18933460 38.69953270     6    806    0    0    0
H -45.85401036 -4.70888415 38.08090884     6    806    0    0    0
H -3.24803943 24.36705968 30.58643893     6     811    0    0    0 
C -3.43655398 25.85419603 29.25188242     1     810    812    813    814
H -3.03268254 27.69777719 29.97888028     6     811    0    0    0
H -1.95061040 25.49843118 27.81673044     6     811    0    0    0
C -6.13375932 25.93024449 28.02997670     2     811    815    816    817
H -7.52018816 26.15182021 29.63363658     6     814    0    0    0
H -6.26124582 27.58766202 26.90007028     6     814    0    0    0
C -7.12589033 23.64382393 26.51571941     2     814    818   819   820
H -5.84810013 23.03725274 25.11537784     6     817    0    0    0
H -7.13862381 22.10919069 27.75461374     6     817    0    0    0
C -9.56018219 23.89476071 25.27590386     2     817   821   822   823
H -10.70563330 24.90218003 26.66846625     6    820    0    0    0
H -9.36461841 25.14727168 23.68643131     6    820    0    0    0
C -10.62498063 21.37465274 24.23671136     2    820   824   825   826
H -8.96470958 20.63982395 23.15660868     6    823    0    0    0
H -11.19638365 20.03839909 25.72111722     6    823    0    0    0
C -12.95189407 21.98706751 22.56520990     2    823   827   828   829
H -14.55619448 22.49017954 23.85008953     6    826    0    0    0
H -12.46425788 23.58216367 21.44418580     6    826    0    0    0
C -13.82626474 19.84106002 20.87069415     2    826   830   831   832
H -12.40541245 19.94386637 19.27206348     6    829    0    0    0
H -13.78647366 18.09624174 21.81908267     6    829    0    0    0
C -16.53738822 20.11798771 19.74861554     2    829   833   834   835
H -17.81263803 20.73743634 21.35187779     6    832    0    0    0
H -16.60989380 21.83761370 18.61163964     6    832    0    0    0
C -17.32075523 17.60219725 18.24846362     2    832   836   837   838
H -15.77729496 17.05027640 16.95942282     6    835    0    0    0
H -17.82748405 15.98209922 19.40579092     6    835    0    0    0
C -19.40828067 18.15682682 16.35478215     2    835   839   840   841
H -21.16701169 18.62532328 17.31339388     6    838    0    0    0
H -18.75392508 19.81360871 15.36815704     6    838    0    0    0
C -20.19030661 15.93818169 14.62072298     2    838   842   843   844
H -18.94747402 15.77504239 13.08696188     6    841    0    0    0
H -20.07431790 14.28418202 15.79773929     6    841    0    0    0
C -22.83170532 16.16453971 13.43541948     1    841   845   846   847
H -22.81083358 17.50334397 11.98880618     6    844    0    0    0
H -24.45811357 16.70145540 14.60778423     6    844    0    0    0
H -23.32449700 14.30033860 12.76510311     6    844    0    0    0
H -12.69404562 46.70609879 50.66752259     6     849    0    0    0 
C -12.79876247 44.71490575 50.95462729     1     848    850    851    852
H -11.74956832 44.39867703 52.63363525     6     849    0    0    0
H -14.87160275 44.05116009 51.30484024     6     849    0    0    0
C -11.77512413 43.51534601 48.57291161     2     849    853    854    855
H -9.69118222 43.68054792 48.31383371     6     852    0    0    0
H -12.11214845 41.42666495 48.55461081     6     852    0    0    0
C -13.19778348 44.66246741 46.18679438     2     852    856   857   858
H -15.14008335 44.34658776 46.62986902     6     855    0    0    0
H -13.07190742 46.66360646 45.95179904     6     855    0    0    0
C -12.49399516 43.27798218 43.86425243     2     855   859   860   861
H -10.42753615 42.54571259 44.10491752     6    858    0    0    0
H -13.81837765 41.68249528 43.88141842     6    858    0    0    0
C -12.42113510 44.66441962 41.37420454     2    858   862   863   864
H -14.32950380 45.44339617 40.81224309     6    861    0    0    0
H -11.21652334 46.27715536 41.58208565     6    861    0    0    0
C -11.53725036 43.01592997 39.14690373     2    861   865   866   867
H -10.20154631 41.53069227 39.91682580     6    864    0    0    0
H -13.07784283 41.88640821 38.35058854     6    864    0    0    0
C -10.34444358 44.70852593 37.21389207     2    864   868   869   870
H -11.53226096 46.29781778 37.08900571     6    867    0    0    0
H -8.57632834 45.43391055 37.81420340     6    867    0    0    0
C -10.29004945 43.78779231 34.47222411     2    867   871   872   873
H -8.54337137 42.56171674 34.27521132     6    870    0    0    0
H -11.95906839 42.62206199 34.21173204     6    870    0    0    0
C -9.80735674 46.06183269 32.56745261     2    870   874   875   876
H -10.27820976 45.23472899 30.75570917     6    873    0    0    0
H -11.02778436 47.82587413 32.66824397     6    873    0    0    0
C -7.15902524 46.89533903 32.38770609     2    873   877   878   879
H -6.50872711 47.21401445 34.27368203     6    876    0    0    0
H -5.97974273 45.26609640 31.73605319     6    876    0    0    0
C -6.59463484 49.16874867 30.74597322     2    876   880   881   882
H -7.10963519 48.70430544 28.71121590     6    879    0    0    0
H -7.72938040 50.92791053 31.20314142     6    879    0    0    0
C -3.76839757 49.94190648 30.86848667     1    879   883   884   885
H -2.61494421 48.36910575 30.47366533     6    882    0    0    0
H -3.21789741 50.75823480 32.69771820     6    882    0    0    0
H -3.53192060 51.24956614 29.27710764     6    882    0    0    0
H -21.16376594 18.42624911 21.80457055     6     887    0    0    0 
C -22.62628714 18.43437356 23.24196133     1     886    888    889    890
H -23.49323730 20.33832274 23.22393265     6     887    0    0    0
H -23.97143602 17.07447322 22.74446733     6     887    0    0    0
C -21.51859507 18.01896084 25.86545927     2     887    891    892    893
H -23.06296294 18.33604769 27.08051566     6     890    0    0    0
H -21.13461489 16.03332477 25.92023987     6     890    0    0    0
C -19.34929699 19.81359675 26.33284107     2     890    894   895   896
H -17.58625336 19.36369638 25.40758998     6     893    0    0    0
H -19.91780001 21.62855452 25.81966961     6     893    0    0    0
C -18.83633018 20.15204185 29.11687393     2     893   897   898   899
H -20.21590835 21.17335996 30.30598423     6    896    0    0    0
H -18.81735633 18.27464857 29.96868798     6    896    0    0    0
C -16.18698468 21.41061256 29.45441050     2    896   900   901   902
H -14.90385405 20.32199982 28.37964268     6    899    0    0    0
H -16.48393949 23.32654337 28.50705989     6    899    0    0    0
C -15.31546543 21.86690971 32.22196628     2    899   903   904   905
H -16.61743030 23.27968034 33.04211307     6    902    0    0    0
H -15.53058184 20.17088206 33.37425417     6    902    0    0    0
C -12.54072966 23.03958194 32.22455670     2    902   906   907   908
H -11.32300811 21.99686083 30.97193066     6    905    0    0    0
H -12.68809536 24.93222165 31.41323398     6    905    0    0    0
C -11.33138617 23.34067427 34.85658374     2    905   909   910   911
H -12.69735801 24.02118506 36.28918312     6    908    0    0    0
H -10.60135074 21.44507104 35.43207611     6    908    0    0    0
C -9.17198252 25.42448489 34.88139864     2    908   912   913   914
H -7.76089305 24.89886415 33.48695391     6    911    0    0    0
H -9.85873088 27.29768400 34.13423095     6    911    0    0    0
C -8.05229381 25.85213711 37.46690087     2    911   915   916   917
H -9.38517744 26.91245824 38.71599413     6    914    0    0    0
H -7.77706144 23.93154665 38.21100034     6    914    0    0    0
C -5.68325943 27.58240902 37.33856074     2    914   918   919   920
H -4.64355330 27.26372871 35.65400037     6    917    0    0    0
H -6.36306241 29.48431401 37.18865821     6    917    0    0    0
C -4.26393289 27.99784286 39.81798804     1    917   921   922   923
H -3.51007533 26.06994753 40.23422261     6    920    0    0    0
H -5.43939969 28.55305956 41.40621339     6    920    0    0    0
H -2.64991359 29.25155894 39.40681503     6    920    0    0    0
H -24.40929475 48.20308460 37.08375888     6     925    0    0    0 
C -25.75225664 47.45263425 35.72992193     1     924    926    927    928
H -27.76511066 47.47364179 36.27936519     6     925    0    0    0
H -25.62053888 48.78004807 34.17030199     6     925    0    0    0
C -24.70201820 44.92896976 34.76317067     2     925    929    930    931
H -24.40098711 43.74913793 36.42290931     6     928    0    0    0
H -26.05699436 44.07282059 33.51178698     6     928    0    0    0
C -22.12350600 45.19912225 33.57377218     2     928    932   933   934
H -22.32141108 46.57343433 32.07646358     6     931    0    0    0
H -20.87292848 45.78291003 35.09069638     6     931    0    0    0
C -21.06344652 42.73331188 32.33132647     2     931   935   936   937
H -21.36686848 40.90307424 33.41769401     6    934    0    0    0
H -22.14994508 42.60278825 30.57245111     6    934    0    0    0
C -18.23989637 42.73993950 31.69749613     2    934   938   939   940
H -17.88048470 44.55246464 30.68912008     6    937    0    0    0
H -17.00970309 42.61324558 33.21025882     6    937    0    0    0
C -17.44896015 40.75876475 29.71553622     2    937   941   942   943
H -17.38333995 38.96075068 30.66531058     6    940    0    0    0
H -18.87473228 40.38323170 28.22184484     6    940    0    0    0
C -14.64185268 41.33609836 28.96863427     2    940   944   945   946
H -14.54718613 43.40211382 28.49958546     6    943    0    0    0
H -13.53993440 40.94182526 30.60928262     6    943    0    0    0
C -13.85228025 39.57577529 26.84329732     2    943   947   948   949
H -13.37505650 37.75259720 27.80901754     6    946    0    0    0
H -15.31123843 39.40763470 25.31471549     6    946    0    0    0
C -11.53352683 40.56157354 25.39335693     2    946   950   951   952
H -11.19522357 39.21609330 23.95048717     6    949    0    0    0
H -11.89276928 42.33371334 24.41779917     6    949    0    0    0
C -9.07351566 40.67737994 27.08753589     2    949   953   954   955
H -8.91839858 42.16263567 28.45665864     6    952    0    0    0
H -8.92784830 39.14109721 28.33054342     6    952    0    0    0
C -6.70914958 40.72547671 25.45670896     2    952   956   957   958
H -4.82436066 40.77596807 26.45899669     6    955    0    0    0
H -6.62498527 39.00037273 24.34764908     6    955    0    0    0
C -6.82779735 42.79712153 23.41977802     1    955   959   960   961
H -5.03232171 43.16143422 22.62062269     6    958    0    0    0
H -7.50611846 44.65941610 24.04508693     6    958    0    0    0
H -8.24965526 42.14314589 22.04474525     6    958    0    0    0
H -15.34838602 6.13313259 34.46599518     6     963    0    0    0 
C -16.89534956 4.74860480 34.33046411     1     962    964    965    966
H -18.37748002 5.42871778 33.13429332     6     963    0    0    0
H -16.12005468 3.04208494 33.44572026     6     963    0    0    0
C -17.91877872 3.92539304 36.93903671     2     963    967    968    969
H -19.81683894 3.05812677 36.59049932     6     966    0    0    0
H -16.68844616 2.51670070 37.87334126     6     966    0    0    0
C -18.83938903 5.85448961 38.84853039     2     966    970   971   972
H -17.15632616 6.67543456 39.79770579     6     969    0    0    0
H -19.52230814 7.40985157 37.58007218     6     969    0    0    0
C -20.89412052 4.84301244 40.66232379     2     969   973   974   975
H -22.77675027 4.95033524 39.80163651     6    972    0    0    0
H -20.44485214 2.80252806 41.03788738     6    972    0    0    0
C -20.67421857 5.97606795 43.34247856     2    972   976   977   978
H -19.06045389 5.25958578 44.42398608     6    975    0    0    0
H -20.68467719 8.09786318 43.30636017     6    975    0    0    0
C -23.16947059 5.35794300 44.74512827     2    975   979   980   981
H -24.78052522 6.45553730 43.93763573     6    978    0    0    0
H -23.64972130 3.32888907 44.63818033     6    978    0    0    0
C -22.91252552 5.53688501 47.61177563     2    978   982   983   984
H -21.79427620 3.96758980 48.23104206     6    981    0    0    0
H -22.02954098 7.43120712 48.00753511     6    981    0    0    0
C -25.36423180 5.70365872 48.94782289     2    981   985   986   987
H -26.60948948 7.05126517 48.11548243     6    984    0    0    0
H -26.09895178 3.73605176 48.78868339     6    984    0    0    0
C -24.92055770 6.53210422 51.64567310     2    984   988   989   990
H -26.78538183 6.06090072 52.36931001     6    987    0    0    0
H -23.53530002 5.26695135 52.45867499     6    987    0    0    0
C -24.38530302 9.31850439 52.15855359     2    987   991   992   993
H -22.62023000 9.79313803 51.71902261     6    990    0    0    0
H -25.33948648 10.54267704 50.80091197     6    990    0    0    0
C -25.02771461 10.08697074 54.92363275     2    990   994   995   996
H -27.02018799 9.72171813 55.07575064     6    993    0    0    0
H -24.13939302 8.70573457 56.20195269     6    993    0    0    0
C -24.42436327 12.75159816 55.82558939     1    993   997   998   999
H -22.39645034 13.24095226 55.79978084     6    996    0    0    0
H -25.16891764 12.98538969 57.91508146     6    996    0    0    0
H -25.61523744 13.98426961 54.67683902     6    996    0    0    0
H -8.13058949 -11.39480523 25.90849688     6     1001    0    0    0 
C -7.86287641 -9.51250848 26.29989352     1     1000    1002    1003    1004
H -5.84883576 -9.08841145 26.10100160     6     1001    0    0    0
H -8.97693370 -8.46910865 24.81970811     6     1001    0    0    0
C -8.79820113 -8.97523026 28.91173258     2     1001    1005    1006    1007
H -10.79381816 -8.57548678 28.75300179     6     1004    0    0    0
H -8.36185509 -10.46483737 30.32529381     6     1004    0    0    0
C -7.97012176 -6.43031471 30.04619050     2     1004    1008   1009   1010
H -5.94060771 -6.22835525 30.43839411     6     1007    0    0    0
H -8.34812235 -5.02160678 28.61819315     6     1007    0    0    0
C -9.52636861 -5.90741477 32.43181662     2     1007   1011   1012   1013
H -11.45054476 -5.59340552 31.86043782     6    1010    0    0    0
H -9.59489095 -7.55756146 33.59627259     6    1010    0    0    0
C -8.48731316 -3.66059819 34.11951157     2    1010   1014   1015   1016
H -6.54230169 -3.71558204 34.48901952     6    1013    0    0    0
H -8.83397636 -1.94710620 33.11225906     6    1013    0    0    0
C -10.03501176 -3.44570715 36.53579460     2    1013   1017   1018   1019
H -11.79280259 -2.49427235 36.21395448     6    1016    0    0    0
H -10.48009943 -5.32523804 37.20107292     6    1016    0    0    0
C -8.68463609 -2.23878314 38.79468744     2    1016   1020   1021   1022
H -6.66323635 -2.60267858 38.82222521     6    1019    0    0    0
H -8.53995875 -0.26944164 38.29067739     6    1019    0    0    0
C -9.73423856 -2.38668363 41.34476628     2    1019   1023   1024   1025
H -10.61173235 -4.32220598 41.54114640     6    1022    0    0    0
H -8.44452438 -2.02060847 42.92159874     6    1022    0    0    0
C -11.89572555 -0.39898759 41.60270661     2    1022   1026   1027   1028
H -11.03523521 1.39201561 41.39252731     6    1025    0    0    0
H -13.37838044 -0.43501894 40.07513545     6    1025    0    0    0
C -13.19943821 -0.45161770 44.16350971     2    1025   1029   1030   1031
H -14.23483396 -2.14405478 44.49968298     6    1028    0    0    0
H -11.82756939 -0.25314507 45.56466149     6    1028    0    0    0
C -14.76199701 1.89499343 44.41639020     2    1028   1032   1033   1034
H -13.77325774 3.45344083 43.54785913     6    1031    0    0    0
H -16.57708499 1.55357674 43.37006615     6    1031    0    0    0
C -15.27115882 2.64190815 47.12008141     1    1031   1035   1036   1037
H -15.93297717 4.62383081 47.34599494     6    1034    0    0    0
H -13.68023268 1.99422765 48.27088356     6    1034    0    0    0
H -16.89114079 1.62611916 48.00315354     6    1034    0    0    0
H -32.44254673 16.98520066 28.93287802     6     1039    0    0    0 
C -33.80163943 18.33436578 28.29024819     1     1038    1040    1041    1042
H -35.52641489 17.16046278 27.77182645     6     1039    0    0    0
H -34.16427781 19.66811722 29.88997472     6     1039    0    0    0
C -32.62506534 19.75841965 26.06846040     2     1039    1043    1044    1045
H -30.65325227 20.34928056 26.59531336     6     1042    0    0    0
H -32.10020765 18.32185983 24.72013158     6     1042    0    0    0
C -34.19542969 22.10619976 24.92471530     2     1042    1046   1047   1048
H -35.90061476 21.26299437 24.14858163     6     1045    0    0    0
H -34.70673353 23.37420102 26.45398427     6     1045    0    0    0
C -32.88485234 23.54571111 22.93292628     2     1045   1049   1050   1051
H -31.09427586 24.34214850 23.49486826     6    1048    0    0    0
H -32.66157846 22.39284226 21.06581851     6    1048    0    0    0
C -34.62530085 25.89637887 22.50928285     2    1048   1052   1053   1054
H -36.60380693 25.44843893 22.66098842     6    1051    0    0    0
H -34.39122655 27.09803367 24.01649416     6    1051    0    0    0
C -34.15255775 27.44125517 20.23598749     2    1051   1055   1056   1057
H -32.30310674 28.29010253 20.16509457     6    1054    0    0    0
H -34.73250728 26.33420573 18.58020574     6    1054    0    0    0
C -36.02607504 29.57184314 20.18017817     2    1054   1058   1059   1060
H -38.05678343 29.04078130 20.46768676     6    1057    0    0    0
H -35.70827093 30.82310989 21.71252877     6    1057    0    0    0
C -35.92013459 31.00812447 17.71532193     2    1057   1061   1062   1063
H -34.23422951 32.21857429 17.83893298     6    1060    0    0    0
H -35.57236983 29.73501950 16.17036086     6    1060    0    0    0
C -38.22212243 32.61416244 17.32126536     2    1060   1064   1065   1066
H -39.77702011 31.35077670 17.26346695     6    1063    0    0    0
H -38.82053093 34.05210743 18.68775743     6    1063    0    0    0
C -37.79747535 34.15888834 14.80259440     2    1063   1067   1068   1069
H -35.97598667 35.22064859 15.01589730     6    1066    0    0    0
H -37.48317070 32.90691176 13.17198941     6    1066    0    0    0
C -39.97592954 36.05671545 14.38763218     2    1066   1070   1071   1072
H -40.98396580 35.36571618 12.72566266     6    1069    0    0    0
H -41.46762740 35.93941246 15.95384568     6    1069    0    0    0
C -39.24320017 38.81542995 13.83645133     1    1069   1073   1074   1075
H -40.92416499 40.06466581 13.88388322     6    1072    0    0    0
H -38.20882994 38.82586001 11.93133457     6    1072    0    0    0
H -38.03880364 39.64582818 15.25053043     6    1072    0    0    0
H -26.93460070 48.64855803 27.13437477     6     1077    0    0    0 
C -28.48217430 47.34996406 27.11998338     1     1076    1078    1079    1080
H -28.77163440 46.33515929 29.00378840     6     1077    0    0    0
H -30.09199979 48.47024872 26.92284256     6     1077    0    0    0
C -28.23242888 45.53045476 24.95014835     2     1077    1081    1082    1083
H -29.96686225 44.54576259 24.74925471     6     1080    0    0    0
H -27.80562709 46.64951892 23.35811818     6     1080    0    0    0
C -26.18143188 43.61656874 25.34692577     2     1080    1084   1085   1086
H -24.36771881 44.65966098 25.14164849     6     1083    0    0    0
H -26.17230215 42.69948268 27.19401943     6     1083    0    0    0
C -26.25235597 41.67330616 23.25126589     2     1083   1087   1088   1089
H -27.95506458 40.56813769 23.73441142     6    1086    0    0    0
H -26.51998206 42.62183785 21.40619735     6    1086    0    0    0
C -23.64023804 40.27158851 23.34670838     2    1086   1090   1091   1092
H -21.92239026 41.39503996 23.77605485     6    1089    0    0    0
H -23.58280214 39.11503031 24.98405823     6    1089    0    0    0
C -23.09189600 38.62629475 21.06672786     2    1089   1093   1094   1095
H -24.65603802 37.55233065 20.21770377     6    1092    0    0    0
H -22.27409778 39.80726137 19.48730310     6    1092    0    0    0
C -21.20169095 36.45571993 21.89534378     2    1092   1096   1097   1098
H -19.56012337 37.32824646 22.83309388     6    1095    0    0    0
H -22.45362641 35.05786656 22.83864779     6    1095    0    0    0
[...]
 1803      H     -37.1724906900    43.8229421400    31.3627879000
 1804      H     -37.5726888600    43.1622475500    34.6500346200
 1805      C     -36.5236744100    40.0014436100    32.3067663600
 1806      H     -36.8323820200    38.3751837400    33.7137239000
 1807      H     -36.8996388000    39.2251557400    30.4480595600
 1808      C     -33.5974237700    40.4990383700    32.5065801700
 1809      H     -33.0150231900    41.6865712000    30.8761688000
 1810      H     -33.1340300300    41.8016061400    34.0595857900
 1811      C     -32.0855137100    38.0765859000    32.4282199200
 1812      H     -32.6544894100    36.9067913900    33.9556142900
 1813      H     -32.5202178200    37.0782633200    30.6948495900
 1814      C     -29.2413041700    38.3616859500    32.3767884000
 1815      H     -28.8481619000    39.8693761600    30.9553641800
 1816      H     -28.6408142000    39.0662006600    34.2536462400
 1817      C     -27.6411957200    35.8355147500    31.7907474500
 1818      H     -27.6283028100    34.6899722200    33.4830624200
 1819      H     -28.4399759900    34.7668657000    30.2633816700
 1820      C     -25.1116133000    36.4664385200    30.7859050000
 1821      H     -25.1019353200    37.6983440400    29.1739010000
 1822      H     -23.9657553400    37.2656647700    32.3601392300
 1823      C     -23.8070213200    34.0291863200    29.9914530300
 1824      H     -23.8020134200    32.4544430600    31.3062870100
 1825      H     -24.5601954100    33.4101358600    28.0951522500
 1826      C     -21.1225589300    34.3631056600    29.3327396800
 1827      H     -20.9546881900    35.3258039300    27.4388454600
 1828      H     -20.2167660800    35.8587766400    30.4614821200
 1829      C     -19.4247472600    31.9380085300    29.1494419400
 1830      H     -19.5782402300    30.9904137800    30.9034982400
 1831      H     -20.5386232600    30.8734397000    27.9153290100
 1832      C     -16.7847952300    32.4290604900    28.0742208200
 1833      H     -16.0622728200    30.6295451800    27.3135848200
 1834      H     -15.4864210900    33.4282055100    29.4742511000
 1835      H     -16.7893877000    33.5131307000    26.3702883700
 1836      H     -17.5451443100    23.2756370400    39.1721612500
 1837      C     -16.3386111500    24.3132598500    40.5761126200
 1838      H     -17.5540909700    24.3004060000    42.2002716700
 1839      H     -14.8173995700    22.9887796900    40.7055232300
 1840      C     -15.5832209500    27.0007367800    39.8597842300
 1841      H     -14.5841170300    28.0370371500    41.2855008400
 1842      H     -14.3060106400    27.0674805700    38.1527631800
 1843      C     -17.7871783100    28.6550590300    39.2632494200
 1844      H     -19.0321655000    27.6079063400    37.9164693200
 1845      H     -19.0042219600    28.8799588100    40.8736284400
 1846      C     -17.2773663500    31.2935298100    38.1382414400
 1847      H     -16.3830017500    32.3491314900    39.4947521000
 1848      H     -15.8963707600    31.0035659200    36.5672378800
 1849      C     -19.6364481400    32.5122153600    37.1221857100
 1850      H     -20.5222148900    31.2407628700    35.7777108200
 1851      H     -20.9675701300    32.9090073400    38.7248731300
 1852      C     -19.1596963900    35.1457286200    35.8155253200
 1853      H     -17.6901280500    35.0098878700    34.4391058700
 1854      H     -21.0549335300    35.6209783900    34.8973412900
 1855      C     -18.2949147600    37.4388505400    37.6308777300
 1856      H     -16.4821524700    37.2049981700    38.3374985100
 1857      H     -17.8163748000    39.1669339100    36.4387582600
 1858      C     -20.3858111500    38.4497729100    39.4781434600
 1859      H     -22.3507362800    38.5487989100    38.6139525000
 1860      H     -20.4980705500    37.1744454900    41.0920832300
 1861      C     -19.6619825200    41.0529678800    40.6126069200
 1862      H     -17.7918578600    40.9376468600    41.4386001100
 1863      H     -19.6461904300    42.4088179600    39.0805054000
 1864      C     -21.6489123700    41.9958629100    42.5687478100
 1865      H     -23.4899797300    41.7102423200    41.7506719800
 1866      H     -21.6605186400    40.9890909200    44.3666667000
 1867      C     -21.5666501400    44.8412807600    43.0150949900
 1868      H     -19.6805888400    45.4098646900    43.5481228500
 1869      H     -21.9097112100    45.9470558300    41.3870554800
 1870      C     -23.4658735300    45.8071082200    44.9720924600
 1871      H     -23.8729097900    47.8251345200    45.2263164900
 1872      H     -22.8319716000    45.3740860500    46.8034614400
 1873      H     -25.2707751000    44.7888028400    44.9276593800
 1874      H     -33.7158261100    21.5527174100    62.4570043200
 1875      C     -33.6037163900    21.9861332800    60.3187713800
 1876      H     -35.4313236700    22.5059707000    59.6574669900
 1877      H     -32.2299945100    23.4230181400    60.1034855200
 1878      C     -33.1015761800    19.3169513600    59.1059761000
 1879      H     -31.3919215700    18.5810601800    59.9816665800
 1880      H     -34.5509499200    18.0597417700    59.5209281400
 1881      C     -32.6481477900    19.3821462500    56.3326286800
 1882      H     -34.3124198800    19.9163250100    55.4620208600
 1883      H     -31.2534883900    20.8517941300    55.8346332800
 1884      C     -31.7201830200    16.8963418800    55.3109747400
 1885      H     -29.9294524600    16.4889478600    56.2044628500
 1886      H     -33.1956712500    15.6713534100    55.9364641200
 1887      C     -31.5172974000    16.9088282800    52.4180011500
 1888      H     -33.4631012100    17.1380433000    51.8012892000
 1889      H     -30.5927539300    18.7069780100    51.9155937500
 1890      C     -30.1655031600    14.6931991800    51.0763328100
 1891      H     -28.1257555500    14.8551715100    51.4774040700
 1892      H     -30.9254793700    12.9617621600    51.9422881500
 1893      C     -30.5511043100    14.5917301500    48.1991043700
 1894      H     -32.3138506500    14.0873857400    47.3767700200
 1895      H     -30.4702585700    16.5686232600    47.7077549500
 1896      C     -28.5522724700    13.0621832800    46.6466134800
 1897      H     -26.7076849800    13.7684139600    47.3475628800
 1898      H     -28.6785887900    11.0726714300    47.2168037200
 1899      C     -28.7146603400    13.4944422400    43.8670078400
 1900      H     -30.5436892800    14.0712597300    43.2245415000
 1901      H     -27.4816512900    14.9526969800    43.1822986100
 1902      C     -28.1038142800    10.9803008300    42.6981595500
 1903      H     -26.0838472000    10.6712883300    42.7558816600
 1904      H     -28.9506852300     9.3166568700    43.4451148700
 1905      C     -28.8230668200    10.8933313600    39.8723805100
 1906      H     -30.9280894000    10.9365633700    39.6340832700
 1907      H     -28.1667549000    12.6529604000    38.9606319300
 1908      C     -27.8888992500     8.7567524900    38.2963723000
 1909      H     -28.9885615100     7.1395846900    38.5051754800
 1910      H     -25.9535409200     8.3856325900    38.6645678400
 1911      H     -27.9587331600     9.1208240300    36.3078025400
 ----------------------------------------------------------------
 Nuclear Repulsion Energy =           0.00000000 hartrees
 There are     2498 alpha and     2498 beta electrons

 Total QAlloc Memory Limit   2000 MB
 Mega-Array Size       204 MB
 MEM_STATIC part       192 MB
   **** Step 1: MM calculation on the entire system **** 
 OPLSAA force field loaded.
Reading user-defined FF parameters...
 Reading user defined atom types.
 Found 3 user defined AtomTypes
finished.
Determining angles, torsions, etc. from user defined input
Determining VDW/Coulomb pairs... (useList = 0)

 Time req'd to get MM system information: 0.2 s (CPU) 0.4 s (wall)

 ------ MM Energies ------
   Ebond:           570.662101837427
   Eangle:          850.221400010903
   EUreyBrad:         0.000000000000
   Eimptors:          0.000000000000
   Etorsion:        234.725730657304
   Evdw:        1189607.363688702928
   Ecoulomb:        182.234838401996
   Etot:        1191445.207759610377 Kcal/mol (   1898.688805223803 hartree)
 -------------------------
 Time req'd to calc MM energy: 0.1 s (CPU) 0.1 s (wall)
 OPLSAA force field loaded.
Reading user-defined FF parameters...
 Reading user defined atom types.
 Found 3 user defined AtomTypes
finished.
 Time req'd to get MM system information: 0.0 s (CPU) 0.0 s (wall)
 Time req'd to calc MM gradient: 0.2 s (CPU) 0.2 s (wall)
   **** Step 2: MM calculation on the model system **** 
 Reading user defined atom types.
 Found 3 user defined AtomTypes
 ----------------------------------------------------------------
             Standard Nuclear Orientation (Bohr)
    I     Atom           X                Y                Z
 ----------------------------------------------------------------
    1      Fe    -23.5359691700    18.5504483600    40.5196934400
    2      C     -22.7090281900    15.1484377600    40.4239651200
    3      C     -24.1646198200    22.0022243000    40.8541704700
    4      C     -23.1046029900    18.5508374300    43.9432056800
    5      C     -20.9080905300    19.3507841500    38.5150963000
    6      C     -26.6940987000    18.3986091500    39.0974677500
    7      O     -22.0953497400    13.0105338800    40.4320401100
    8      O     -24.2330216900    24.1262909900    40.8712637100
    9      O     -23.1409191700    18.4307520900    46.1189826400
   10      O     -19.3127748300    19.6995586100    36.9930670800
   11      O     -28.6896801700    18.0848128700    38.2092945700
 ----------------------------------------------------------------
 Nuclear Repulsion Energy =         792.80938167 hartrees
 There are       48 alpha and       48 beta electrons
 OPLSAA force field loaded.
Reading user-defined FF parameters...
 Reading user defined atom types.
 Found 3 user defined AtomTypes
finished.
Determining VDW/Coulomb pairs... (useList = 0)

 No MM bonds in system. Return all possible pairs.
 Time req'd to get MM system information: 0.0 s (CPU) 0.0 s (wall)

 ------ MM Energies ------
   Ebond:             0.000000000000
   Eangle:            0.000000000000
   EUreyBrad:         0.000000000000
   Eimptors:          0.000000000000
   Etorsion:          0.000000000000
   Evdw:        1190030.822092870716
   Ecoulomb:         -6.567991764006
   Etot:        1190024.254101106664 Kcal/mol (   1896.424371419737 hartree)
 -------------------------
 Eold: 1898.6888052 mm_energy: 1896.4243714 Enew:    2.2644338
 Time req'd to calc MM energy: 0.0 s (CPU) 0.0 s (wall)
 OPLSAA force field loaded.
Reading user-defined FF parameters...
 Reading user defined atom types.
 Found 3 user defined AtomTypes
finished.
Determining VDW/Coulomb pairs... (useList = 0)

 No MM bonds in system. Return all possible pairs.
 Time req'd to get MM system information: 0.0 s (CPU) 0.0 s (wall)
 Number of fixed atoms: 0
 Time req'd to calc MM gradient: 0.0 s (CPU) 0.0 s (wall)
   **** Step 3: QM calculation on the model system **** 
 Requested basis set is def2-mSVP
 There are 80 shells and 174 basis functions

                       Distance Matrix (Bohrs)
             Fe(  1)   C (  2)   C (  3)   C (  4)   C (  5)   C (  6)
   C (  2)  3.502381
   C (  3)  3.524462  7.019844
   C (  4)  3.450582  4.910993  4.751615
   C (  5)  3.400690  4.954480  4.806910  5.910072
   C (  6)  3.466924  5.310743  4.740286  6.032315  5.892681
   O (  7)  5.724834  2.224253  9.236372  6.636403  6.729267  7.208393
   O (  8)  5.630231  9.117263  2.125237  6.464970  6.277910  6.481481
   O (  9)  5.614484  6.587362  6.443727  2.179391  7.978162  7.869421
   O ( 10)  5.620758  6.634629  6.614438  8.000122  2.232319  7.784916
   O ( 11)  5.667054  7.021059  6.543520  8.017980  7.889825  2.206732
             O (  7)   O (  8)   O (  9)   O ( 10)
   O (  8) 11.327957
   O (  9)  7.925484  7.821151
   O ( 10)  8.019496  7.671062  9.977319
   O ( 11)  8.612439  7.965384  9.668071  9.592339

 A cutoff of  1.0D-11 yielded   2483 shell pairs
 There are     12805 function pairs (     14658 Cartesian)
 Smallest overlap matrix eigenvalue = 2.70E-03
 Guess MOs from SCF MO coefficient file
 Reading MOs from coefficient file
 Reading MOs from coefficient file
 A restricted Kohn-Sham SCF calculation will be
 performed using Pulay DIIS extrapolation
 Exchange:  B88      Correlation:  P86
 Using SG-1 standard quadrature grid
 SCF converges when DIIS error is below 1.0E-08
 Using Q-Chem read-in guess as SCF_GUESS READ specified.

 using 2 threads for integral computing
 -------------------------------------------------------
 OpenMP Integral computing Module                
 Release: version 1.0, May 2013, Q-Chem Inc. Pittsburgh 
 -------------------------------------------------------
 ---------------------------------------
  Cycle       Energy         DIIS Error
 ---------------------------------------
    1   -1830.5159446225      1.97E-09
    2   -1830.5159446222      9.38E-09 Convergence criterion met
 ---------------------------------------
 SCF time:  CPU 2.86 s  wall 1.69 s
 E(QM + QM/MM):    -1830.5159446222 E(MM):    2.2644338 E(Tot): -1828.251510818171 
 SCF   energy in the final basis set = -1828.25151082
 Total energy in the final basis set = -1828.25151082

 --------------------------------------------------------------

                    Orbital Energies (a.u.)
 --------------------------------------------------------------

 Alpha MOs
 -- Occupied --
******** -29.6319 -25.5924 -25.5784 -25.5759 -18.9017 -18.8829 -18.8787
-18.8721 -18.8691 -10.0641 -10.0519 -10.0426 -10.0378 -10.0377  -3.3147
 -2.1498  -2.1239  -2.1196  -1.0957  -1.0570  -1.0472  -1.0423  -1.0324
 -0.5692  -0.5282  -0.5176  -0.5135  -0.5119  -0.4599  -0.4576  -0.4555
 -0.4347  -0.4255  -0.4228  -0.4200  -0.4144  -0.4105  -0.4091  -0.4030
 -0.4025  -0.3968  -0.3956  -0.3790  -0.2687  -0.2667  -0.2281  -0.2159
 -- Virtual --
 -0.1057  -0.0909  -0.0849  -0.0790  -0.0754  -0.0682  -0.0671  -0.0573
 -0.0476  -0.0327  -0.0265   0.0127   0.1885   0.2170   0.2237   0.2593
  0.2883   0.3330   0.3381   0.3959   0.4071   0.4222   0.4302   0.4336
  0.4522   0.4732   0.4951   0.4959   0.5244   0.5720   0.5782   0.5843
  0.6063   0.6120   0.6285   0.6667   0.7285   0.7526   0.7620   0.7624
  0.7811   0.8254   0.8323   0.8650   0.8792   0.9014   0.9392   0.9561
  0.9707   0.9858   0.9889   1.0009   1.0099   1.0233   1.0413   1.0479
  1.2107   1.2751   1.2925   1.3208   1.3997   1.4055   1.4083   1.4169
  1.4184   1.4201   1.4262   1.4301   1.4504   1.4606   1.4678   1.4729
  1.4900   1.5139   1.5388   1.5586   1.6026   1.6172   1.6586   1.6664
  1.6817   1.8276   1.8305   1.8385   1.8450   1.8493   1.8522   1.8544
  1.8624   1.8719   1.8734   1.8766   1.8850   1.8897   1.9048   1.9437
  2.3834   2.4157   2.4374   2.4601   2.4626   2.4714   2.4825   2.5008
  2.5059   2.5238   2.6377   2.6422   2.6509   2.6587   2.6838   2.8106
  2.8282   2.8940   2.9106   2.9755  13.2527  13.2853  13.3055  13.3253
 13.4432  24.9320  24.9439  24.9598  24.9660  25.0174
 --------------------------------------------------------------

          Ground-State Mulliken Net Atomic Charges

     Atom                 Charge (a.u.)
  ----------------------------------------
      1 Fe                   -0.481580
      2 C                     0.205255
      3 C                     0.191019
      4 C                     0.202385
      5 C                     0.214108
      6 C                     0.206554
      7 O                    -0.122309
      8 O                    -0.059605
      9 O                    -0.101876
     10 O                    -0.133754
     11 O                    -0.120196
  ----------------------------------------
  Sum of atomic charges =     0.000000

 -----------------------------------------------------------------
                    Cartesian Multipole Moments
 -----------------------------------------------------------------
    Charge (ESU x 10^10)
                -0.0000
    Dipole Moment (Debye)
         X      -0.1122392444      Y       0.8203722477      Z       0.4821505188
       Tot       0.9581635537
    Quadrupole Moments (Debye-Ang)
        XX     -67.5027     XY     -12.0012     YY     -51.5950
        XZ      -7.7896     YZ      22.9115     ZZ     -49.6683
    Octopole Moments (Debye-Ang^2)
       XXX    2575.7207    XXY    -520.8058    XYY     614.4637
       YYY   -1761.6796    XXZ   -1379.0233    XYZ    -315.7560
       YYZ   -1048.4626    XZZ     590.0383    YZZ     -88.7336
       ZZZ   -3868.2422
    Hexadecapole Moments (Debye-Ang^3)
      XXXX  -65291.7596   XXXY   23492.4498   XXYY  -14360.0659
      XYYY   21566.0536   YYYY  -37102.1939   XXXZ   54249.2040
      XXYZ  -10443.9239   XYYZ   12551.6226   YYYZ  -37149.7942
      XXZZ  -39150.0235   XYZZ     590.9505   YYZZ  -28323.4486
      XZZZ   47703.0778   YZZZ  -29293.8103   ZZZZ -176429.5194
 -----------------------------------------------------------------
 Calculating MO derivatives via CPSCF
 Full subspace dimension requested for CIS/TDDFT
 MAX_CIS_SUBSPACE fits in available memory
    1     0    36    0.0400685  
    2     0    36    0.0070635  
    3     0    36    0.0006721  
    4     0    36    0.0000567  
    5    33     3    0.0000016  
    6    36     0    0.0000000  Converged
 Time for AOints: 6.5 s (CPU) 3.3 s (wall)
 ------------------------------------------------------------------------------
                     AOints        : Timing summary (seconds)
 ------------------------------------------------------------------------------
     job step          cpu (% of tot)      sys (% of tot)     wall (% of tot)
 ------------------------------------------------------------------------------
  AOints            0.6453E+01 ( 3.6)   0.1200E-04 (11.4)   0.3294E+01 ( 3.7)
 ------------------------------------------------------------------------------
   Grand Totals     0.1780E+03          0.1050E-03          0.8974E+02
 ------------------------------------------------------------------------------
 Polarizability Matrix (a.u.)
            1           2           3
    1 -88.4916803   4.4219098   0.9033422
    2   4.4219098-100.8016756   1.0778599
    3   0.9033422   1.0778599 -89.5652428
 Derivative of Dipole Moment Matrix (a.u.)
            1           2           3
    1  -1.7932493   0.0025224   0.0153326
    2  -0.0114935  -1.8150563   0.0370475
    3   0.0307976  -0.0440434  -1.8320978
    4   0.5514574  -0.5099195  -0.0101959
    5  -0.3896300   2.1677801   0.0625745
    6   0.0016404   0.0090205   0.4086086
    7   0.4329824  -0.1385338  -0.0095161
    8  -0.2451587   2.1744671   0.1361355
    9  -0.0167150   0.0842203   0.4064339
   10   0.4008701  -0.0082334   0.0606964
   11   0.0005336   0.3552651  -0.0578014
   12   0.1185823  -0.0951688   2.4035389
   13   1.4966521   0.2901443  -0.9166218
   14   0.2770789   0.4236988  -0.2551570
   15  -0.9587335  -0.2622678   1.2437258
   16   2.0330877   0.2389566   0.7412328
   17   0.1899796   0.4147953   0.0805043
   18   0.7556302   0.1176276   0.7180731
   19  -0.2685824   0.4265255   0.0088674
   20   0.3486870  -1.5788313  -0.0318700
   21  -0.0038257   0.0161985  -0.1553856
   22  -0.1360384   0.0661015   0.0027373
   23   0.2160251  -1.6217415  -0.1215762
   24   0.0036897  -0.0325945  -0.1267979
   25  -0.1678966  -0.0034216   0.0155806
   26   0.0000088  -0.1373705   0.0660650
   27  -0.1263961   0.0358310  -1.7776535
   28  -1.0338314  -0.2398345   0.6913926
   29  -0.1971779  -0.2089273   0.1646189
   30   0.7975323   0.2253835  -0.8472052
   31  -1.5154517  -0.1243074  -0.5995060
   32  -0.1888529  -0.1740795  -0.0805412
   33  -0.6022023  -0.0542069  -0.4412403
 -----------------------------------------
 Net:  -0.00000  -0.00000  -0.00000
 -----------------------------------------

 Calculating analytic Hessian of the SCF energy
