                  Welcome to Q-Chem
     A Quantum Leap Into The Future Of Chemistry


 Q-Chem 5.4 (devel), Q-Chem, Inc., Pleasanton, CA (2021)

 E. Epifanovsky,  A. T. B. Gilbert,  Xintian Feng,  Joonho Lee,  Yuezhi Mao,  
 N. Mardirossian,  P. Pokhilko,  A. White,  M. Wormit,  M. P. Coons,  
 A. L. Dempwolff,  Zhengting Gan,  D. Hait,  P. R. Horn,  L. D. Jacobson,  
 I. Kaliman,  J. Kussmann,  A. W. Lange,  Ka Un Lao,  D. S. Levine,  Jie Liu,  
 S. C. McKenzie,  A. F. Morrison,  K. Nanda,  F. Plasser,  D. R. Rehn,  
 M. L. Vidal,  Zhi-Qiang You,  Ying Zhu,  B. Alam,  B. Albrecht,  
 A. Aldossary,  E. Alguire,  J. H. Andersen,  D. Barton,  K. Begam,  A. Behn,  
 Y. A. Bernard,  E. J. Berquist,  H. Burton,  A. Carreras,  K. Carter-Fenk,  
 R. Chakraborty,  A. D. Chien,  K. D. Closser,  V. Cofer-Shabica,  
 S. Dasgupta,  Jia Deng,  M. de Wergifosse,  M. Diedenhofen,  Hainam Do,  
 S. Ehlert,  Po-Tung Fang,  S. Fatehi,  Qingguo Feng,  T. Friedhoff,  
 J. Gayvert,  Qinghui Ge,  G. Gidofalvi,  M. Goldey,  J. Gomes,  
 C. Gonzalez-Espinoza,  S. Gulania,  A. Gunina,  M. W. D. Hanson-Heine,  
 P. H. P. Harbach,  A. W. Hauser,  M. F. Herbst,  M. Hernandez Vera,  
 M. Hodecker,  Z. C. Holden,  S. Houck,  Xunkun Huang,  Kerwin Hui,  
 B. C. Huynh,  M. Ivanov,  Hyunjun Ji,  Hanjie Jiang,  B. Kaduk,  S. Kaehler,  
 K. Khistyaev,  Jaehoon Kim,  P. Klunzinger,  Z. Koczor-Benda,  
 Joong Hoon Koh,  D. Kosenkov,  L. Koulias,  T. Kowalczyk,  C. M. Krauter,  
 K. Kue,  A. Kunitsa,  T. Kus,  A. Landau,  K. V. Lawler,  D. Lefrancois,  
 S. Lehtola,  Rain Li,  Yi-Pei Li,  Jiashu Liang,  M. Liebenthal,  
 Hung-Hsuan Lin,  You-Sheng Lin,  Fenglai Liu,  Kuan-Yu Liu,  
 M. Loipersberger,  A. Luenser,  A. Manjanath,  P. Manohar,  E. Mansoor,  
 S. F. Manzer,  Shan-Ping Mao,  A. V. Marenich,  T. Markovich,  S. Mason,  
 S. A. Maurer,  P. F. McLaughlin,  M. F. S. J. Menger,  J.-M. Mewes,  
 S. A. Mewes,  P. Morgante,  J. W. Mullinax,  K. J. Oosterbaan,  G. Paran,  
 Alexander C. Paul,  Suranjan K. Paul,  F. Pavosevic,  Zheng Pei,  S. Prager,  
 E. I. Proynov,  E. Ramos,  B. Rana,  A. E. Rask,  A. Rettig,  R. M. Richard,  
 F. Rob,  E. Rossomme,  T. Scheele,  M. Scheurer,  M. Schneider,  
 N. Sergueev,  S. M. Sharada,  W. Skomorowski,  D. W. Small,  C. J. Stein,  
 Yu-Chuan Su,  E. J. Sundstrom,  Zhen Tao,  J. Thirman,  T. Tsuchimochi,  
 N. M. Tubman,  S. P. Veccham,  O. Vydrov,  J. Wenzel,  J. Witte,  A. Yamada,  
 Kun Yao,  S. Yeganeh,  S. R. Yost,  A. Zech,  Igor Ying Zhang,  Xing Zhang,  
 Yu Zhang,  D. Zuev,  A. Aspuru-Guzik,  A. T. Bell,  N. A. Besley,  
 K. B. Bravaya,  B. R. Brooks,  D. Casanova,  Jeng-Da Chai,  S. Coriani,  
 C. J. Cramer,  A. E. DePrince, III,  R. A. DiStasio Jr.,  A. Dreuw,  
 B. D. Dunietz,  T. R. Furlani,  W. A. Goddard III,  S. Grimme,  
 S. Hammes-Schiffer,  T. Head-Gordon,  W. J. Hehre,  Chao-Ping Hsu,  
 T.-C. Jagau,  Yousung Jung,  A. Klamt,  Jing Kong,  D. S. Lambrecht,  
 WanZhen Liang,  N. J. Mayhall,  C. W. McCurdy,  J. B. Neaton,  
 C. Ochsenfeld,  J. A. Parkhill,  R. Peverati,  V. A. Rassolov,  Yihan Shao,  
 L. V. Slipchenko,  T. Stauch,  R. P. Steele,  J. E. Subotnik,  
 A. J. W. Thom,  A. Tkatchenko,  D. G. Truhlar,  T. Van Voorhis,  
 T. A. Wesolowski,  K. B. Whaley,  H. L. Woodcock III,  P. M. Zimmerman,  
 S. Faraji,  P. M. W. Gill,  M. Head-Gordon,  J. M. Herbert,  A. I. Krylov

 Additional authors for Version 5.4.1: 
 S. Kotaru,  Shaozhi Li,  Xiangyuan Li,  F. Matz,  A. Molle,  Haisheng Ren,  
 Yingli Su,  Hung-Yi Tsai,  C. Utku,  Fang Wang

 Contributors to earlier versions of Q-Chem not listed above: 
 R. D. Adamson,  B. Austin,  R. Baer,  J. Baker,  G. J. O. Beran,  
 K. Brandhorst,  S. T. Brown,  E. F. C. Byrd,  A. K. Chakraborty,  
 G. K. L. Chan,  Chun-Min Chang,  Yunqing Chen,  C.-L. Cheng,  
 Siu Hung Chien,  D. M. Chipman,  D. L. Crittenden,  H. Dachsel,  
 R. J. Doerksen,  A. D. Dutoi,  R. G. Edgar,  J. Fosso-Tande,  
 L. Fusti-Molnar,  D. Ghosh,  A. Ghysels,  A. Golubeva-Zadorozhnaya,  
 J. Gonthier,  M. S. Gordon,  S. R. Gwaltney,  G. Hawkins,  J. E. Herr,  
 A. Heyden,  S. Hirata,  E. G. Hohenstein,  G. Kedziora,  F. J. Keil,  
 C. Kelley,  Jihan Kim,  R. A. King,  R. Z. Khaliullin,  P. P. Korambath,  
 W. Kurlancheek,  A. Laurent,  A. M. Lee,  M. S. Lee,  S. V. Levchenko,  
 Ching Yeh Lin,  D. Liotard,  E. Livshits,  R. C. Lochan,  I. Lotan,  
 L. A. Martinez-Martinez,  P. E. Maslen,  N. Nair,  D. P. O'Neill,  
 D. Neuhauser,  E. Neuscamman,  C. M. Oana,  R. Olivares-Amaya,  R. Olson,  
 T. M. Perrine,  B. Peters,  P. A. Pieniazek,  A. Prociuk,  Y. M. Rhee,  
 J. Ritchie,  M. A. Rohrdanz,  E. Rosta,  N. J. Russ,  H. F. Schaefer III,  
 M. W. Schmidt,  N. E. Schultz,  S. Sharma,  N. Shenvi,  C. D. Sherrill,  
 A. C. Simmonett,  A. Sodt,  T. Stein,  D. Stuck,  K. S. Thanthiriwatte,  
 V. Vanovschi,  L. Vogt,  Tao Wang,  A. Warshel,  M. A. Watson,  
 C. F. Williams,  Q. Wu,  X. Xu,  Jun Yang,  W. Zhang,  Yan Zhao

 Please cite Q-Chem as follows:
 Y. Shao et al., Mol. Phys. 113, 184-215 (2015)
 DOI: 10.1080/00268976.2014.952696

 Q-Chem 5.4.1 for Intel X86 EM64T Linux

 Parts of Q-Chem use Armadillo 9.900.5 (Nocturnal Misbehaviour).
 http://arma.sourceforge.net/

 Q-Chem begins on Wed Jun  1 23:30:23 2022  

 Host: p09r14n13.grace.hpc.yale.internal
0

     Scratch files written to /home/tl686/scratch60/qchem_dev/scratch/qchem244241//
 Processing $rem in /home/tl686/qchem_dev/qchem/config/preferences:
 Processing $rem in /home/tl686/.qchemrc:
Applying user defined connections for MM calculations

 Checking the input file for inconsistencies... 	...done.

--------------------------------------------------------------
User input:
--------------------------------------------------------------
$molecule
0   1
 Fe 1268.83439689 -59.51748508 -28.71528429    -1  0   0   0   0
C 1267.45524279 -62.69788683 -28.74842025    -2  0   0   0   0 
C 1270.33010741 -56.42507466 -28.91912522    -2  0   0   0   0
C 1268.75534930 -59.42961645 -32.08038983    -2  0   0   0   0
C 1265.90651058 -57.85371491 -27.71583876    -2  0   0   0   0
C 1270.97911621 -60.12525555 -26.19554313    -2  0   0   0   0
O 1266.42205026 -64.52823940 -29.05715847    -3  0   0   0   0
O 1271.58164666 -54.55992236 -28.98780415    -3  0   0   0   0 
O 1268.43119306 -59.60089497 -34.33305666    -3  0   0   0   0
O 1264.42838894 -56.29244775 -27.08763041    -3  0   0   0   0 
O 1272.41748397 -60.55073350 -24.59604780    -3  0   0   0   0
H 1244.20205051 -67.28085528 -49.18673425      6     13    0    0    0 
C 1245.79590368 -68.56265143 -48.91960505     1     12    14    15    16
H 1245.64523633 -69.95263350 -50.37812261     6     13    0    0    0
H 1247.48634362 -67.34958166 -49.19910814     6     13    0    0    0
C 1246.02119652 -69.68092654 -46.29085401     2     13    17    18    19
H 1244.54074868 -70.99282103 -46.10106844     6     16    0    0    0
H 1247.82503148 -70.45507807 -46.16096049     6     16    0    0    0
C 1245.72819890 -67.79350817 -44.19914015     2     16    20   21   22
H 1247.24335111 -66.30965079 -44.35497508     6     19    0    0    0
H 1243.92212652 -66.98418837 -44.45117077     6     19    0    0    0
C 1245.96647820 -69.06659039 -41.51192321     2     19   23   24   25
H 1245.06927046 -70.94487790 -41.72665590     6    22    0    0    0
H 1247.77100236 -69.75919658 -41.25455461     6    22    0    0    0
C 1244.81359610 -67.73646326 -39.24692619     2    22   26   27   28
H 1244.60297190 -65.69274158 -39.45845108     6    25    0    0    0
H 1242.88910962 -68.35283422 -39.23243673     6    25    0    0    0
C 1245.77349448 -68.46082193 -36.75434554     2    25   29   30   31
H 1245.32834412 -70.40304188 -36.51370152     6    28    0    0    0
H 1247.85158131 -68.17772786 -36.88409144     6    28    0    0    0
C 1244.68621933 -66.95141416 -34.61760682     2    28   32   33   34
H 1244.72752794 -65.00848779 -34.97069757     6    31    0    0    0
H 1242.67950357 -67.14515093 -34.65605230     6    31    0    0    0
C 1246.00730568 -67.43064644 -31.92361729     2    31   35   36   37
H 1245.86606775 -69.39503506 -31.53506857     6    34    0    0    0
H 1247.98411694 -66.98009140 -31.72121591     6    34    0    0    0
C 1244.77907481 -66.17302500 -29.67771693     2    34   38   39   40
H 1244.29286978 -64.23031881 -29.91098776     6    37    0    0    0
H 1242.94183232 -66.90019635 -29.25011680     6    37    0    0    0
C 1246.44457203 -66.65981330 -27.32414232     2    37   41   42   43
H 1247.75569956 -68.35838878 -27.57542793     6    40    0    0    0
H 1247.74188919 -65.03789729 -27.10142292     6    40    0    0    0
C 1244.78887295 -66.95907739 -24.81434966     2    40   44   45   46
H 1243.61222144 -68.59684449 -24.81103398     6    43    0    0    0
H 1246.16768626 -67.25522873 -23.30092910     6    43    0    0    0
C 1243.14965704 -64.59877867 -24.48092864     1    43   47   48   49
H 1244.44332294 -62.83843933 -24.44157403     6    46    0    0    0
H 1242.27973291 -64.55485455 -22.53947243     6    46    0    0    0
H 1241.55639926 -64.37422205 -25.75008043     6    46    0    0    0
H 1261.24873553 -63.05192087 -22.79701428     6     51    0    0    0 
C 1262.15706169 -62.36771429 -24.55106057     1     50    52    53    54
H 1262.61032810 -60.34334360 -24.50377623     6     51    0    0    0
H 1263.92222196 -63.37683262 -24.65098645     6     51    0    0    0
C 1260.39740607 -63.03986965 -26.73326443     2     51    55    56    57
H 1261.29764426 -62.82466992 -28.61619332     6     54    0    0    0
H 1260.20560126 -64.96834867 -26.76720220     6     54    0    0    0
C 1257.63263493 -61.71869706 -26.61657843     2     54    58   59   60
H 1257.74901128 -59.71661435 -26.55778446     6     57    0    0    0
H 1256.82817540 -62.17155778 -28.47935388     6     57    0    0    0
C 1256.17525167 -62.70756783 -24.37630245     2     57   61   62   63
H 1255.98689880 -64.72112826 -24.47862266     6    60    0    0    0
H 1257.03831622 -62.31445384 -22.50915723     6    60    0    0    0
C 1253.56073783 -61.64135987 -24.64047901     2    60   64   65   66
H 1253.62298698 -59.47289415 -24.78257674     6    63    0    0    0
H 1252.61821066 -62.25431717 -26.41539905     6    63    0    0    0
C 1252.02868998 -62.01413546 -22.20946069     2    63   67   68   69
H 1250.19793356 -61.12861802 -22.21339944     6    66    0    0    0
H 1251.78492692 -64.00769327 -22.23936150     6    66    0    0    0
C 1253.25584165 -61.15467184 -19.68791865     2    66   70   71   72
H 1255.00316083 -62.19802763 -19.16879169     6    69    0    0    0
H 1253.73410606 -59.08014398 -19.71793951     6    69    0    0    0
C 1251.45586938 -61.76987561 -17.40826316     2    69   73   74   75
H 1249.53795810 -60.93392673 -17.59593490     6    72    0    0    0
H 1251.12461925 -63.86515901 -17.31150064     6    72    0    0    0
C 1252.52303656 -61.08812588 -14.82705629     2    72   76   77   78
H 1254.14132301 -62.32293630 -14.41180480     6    75    0    0    0
H 1253.25112673 -59.22876962 -15.05972436     6    75    0    0    0
C 1250.31822870 -61.53763724 -12.90007056     2    75   79   80   81
H 1248.86529801 -60.08144887 -13.51417611     6    78    0    0    0
H 1249.37266869 -63.44538462 -13.08570029     6    78    0    0    0
C 1251.11901804 -61.20641552 -10.12629227     2    78   82   83   84
H 1252.84160650 -62.38780263 -9.75403628     6    81    0    0    0
H 1251.74700287 -59.23112666 -10.00665562     6    81    0    0    0
C 1249.16351751 -61.88990228 -8.06547151     1    81   85   86   87
H 1250.02414111 -61.97303425 -6.14985158     6    84    0    0    0
H 1248.26778463 -63.70955520 -8.41742756     6    84    0    0    0
H 1247.74003049 -60.47733035 -7.85981011     6    84    0    0    0
H 1239.39642991 -44.28837648 -50.78803043     6     89    0    0    0 
C 1241.05220417 -43.02200351 -50.92210230     1     88    90    91    92
H 1242.00990884 -42.92401868 -52.86544392     6     89    0    0    0
H 1240.16797033 -41.34899650 -50.36056983     6     89    0    0    0
C 1242.74540716 -43.71415231 -48.74664020     2     89    93    94    95
H 1243.79747089 -45.34884262 -49.23477091     6     92    0    0    0
H 1244.05043345 -42.16811384 -48.55834596     6     92    0    0    0
C 1241.33680435 -44.04875841 -46.29264910     2     92    96   97   98
H 1242.78745479 -43.48007065 -44.87170199     6     95    0    0    0
H 1239.76106238 -42.77039487 -46.01926183     6     95    0    0    0
C 1240.50538958 -46.79867246 -45.89300550     2     95   99   100   101
H 1239.00485478 -47.35644218 -47.27395511     6    98    0    0    0
H 1242.07145778 -48.09467185 -46.32142129     6    98    0    0    0
C 1239.69682470 -47.32428011 -43.15282930     2    98   102   103   104
H 1241.20188081 -46.86118610 -41.85240924     6    101    0    0    0
H 1238.36075321 -45.98047207 -42.66957668     6    101    0    0    0
C 1238.57469776 -49.94223179 -42.70137391     2    101   105   106   107
H 1237.27389052 -50.37457093 -44.26984947     6    104    0    0    0
H 1239.98720575 -51.43266223 -42.57462543     6    104    0    0    0
C 1237.03670356 -50.09438810 -40.20953351     2    104   108   109   110
H 1238.02874539 -49.17457948 -38.76252739     6    107    0    0    0
H 1235.42845569 -48.92346747 -40.45769036     6    107    0    0    0
C 1236.15505400 -52.93030748 -39.64274449     2    107   111   112   113
H 1234.77750819 -53.47119061 -41.01372865     6    110    0    0    0
H 1237.69881853 -54.25681562 -40.10056945     6    110    0    0    0
C 1235.22477919 -53.44223168 -36.94898521     2    110   114   115   116
H 1236.91103262 -53.47896409 -35.67339079     6    113    0    0    0
H 1234.02028369 -51.81506582 -36.38832813     6    113    0    0    0
C 1233.72561555 -55.90707265 -37.00337930     2    113   117   118   119
H 1232.21217748 -55.87275744 -38.51932764     6    116    0    0    0
H 1235.14168432 -57.30827667 -37.34885772     6    116    0    0    0
C 1232.24025207 -56.62191046 -34.52888644     2    116   120   121   122
H 1233.50159852 -56.29680607 -32.86337832     6    119    0    0    0
H 1230.69723106 -55.32964867 -34.29271734     6    119    0    0    0
C 1231.40951767 -59.35515729 -34.50616447     1    119   123   124   125
H 1230.72520233 -60.05553817 -32.71526166     6    122    0    0    0
H 1232.87721674 -60.77489582 -35.17261690     6    122    0    0    0
H 1230.00977463 -59.68095231 -35.84406516     6    122    0    0    0
H 1260.54640632 -43.03636927 -45.70323898     6     127    0    0    0 
C 1261.83467379 -44.12917247 -46.82097088     1     126    128    129    130
H 1260.93421530 -44.40147638 -48.68255442     6     127    0    0    0
H 1263.50778611 -43.04132290 -46.85930542     6     127    0    0    0
C 1262.24133642 -46.75121341 -45.65360129     2     127    131    132    133
H 1263.03743519 -46.79368341 -43.79783671     6     130    0    0    0
H 1260.41171113 -47.81066570 -45.58292223     6     130    0    0    0
C 1264.19714638 -48.01549005 -47.24343359     2     130    134   135   136
H 1263.50682604 -48.10252466 -49.20473813     6     133    0    0    0
H 1265.88379441 -46.93648944 -46.95689919     6     133    0    0    0
C 1264.62107810 -50.77546811 -46.57058002     2     133   137   138   139
H 1264.37031173 -51.04121028 -44.53748119     6    136    0    0    0
H 1262.98618540 -51.93077987 -47.32244196     6    136    0    0    0
C 1267.20208585 -51.62177748 -47.63638148     2    136   140   141   142
H 1267.23515295 -51.41790847 -49.68192075     6    139    0    0    0
H 1268.60962629 -50.41471111 -46.81092601     6    139    0    0    0
C 1268.07989882 -54.22227302 -46.98675571     2    139   143   144   145
H 1267.87049400 -54.64234830 -44.95980060     6    142    0    0    0
H 1266.66614561 -55.45221728 -47.95424643     6    142    0    0    0
C 1270.77533562 -54.74442073 -47.59759253     2    142   146   147   148
H 1270.97993454 -54.49505288 -49.62600909     6    145    0    0    0
H 1271.91431854 -53.28098603 -46.66044744     6    145    0    0    0
C 1271.65860307 -57.35698563 -46.93742613     2    145   149   150   151
H 1270.97960159 -58.00449480 -45.11633931     6    148    0    0    0
H 1270.62123594 -58.56574136 -48.22308731     6    148    0    0    0
C 1274.61321996 -57.54537669 -46.98856268     2    148   152   153   154
H 1275.42603584 -56.68118222 -48.73884402     6    151    0    0    0
H 1275.24019038 -56.27039280 -45.38906470     6    151    0    0    0
C 1275.72187463 -60.19715727 -46.75931188     2    151   155   156   157
H 1277.71926813 -59.72200364 -46.06253333     6    154    0    0    0
H 1274.83521241 -61.31120158 -45.37073658     6    154    0    0    0
C 1275.50175673 -61.59253900 -49.36362018     2    154   158   159   160
H 1273.59196889 -61.62490251 -49.97144829     6    157    0    0    0
H 1276.45080059 -60.54056528 -50.80716333     6    157    0    0    0
C 1276.46186264 -64.27271062 -49.17381786     1    157   161   162   163
H 1276.42055164 -65.19034104 -50.99530769     6    160    0    0    0
H 1275.30846288 -65.06442268 -47.67245512     6    160    0    0    0
H 1278.31063231 -64.18883516 -48.45368002     6    160    0    0    0
H 1236.36682020 -33.43089762 -38.28128646     6     165    0    0    0 
C 1238.35003102 -33.68780741 -37.86764422     1     164    166    167    168
H 1238.79537398 -33.45056263 -35.92330335     6     165    0    0    0
H 1238.95597710 -35.60412658 -38.43933403     6     165    0    0    0
C 1239.77003502 -31.58210864 -39.37481708     2     165    169    170    171
H 1238.97726949 -31.40366483 -41.28738176     6     168    0    0    0
H 1239.48457344 -29.82368121 -38.32534663     6     168    0    0    0
C 1242.49933252 -32.53044113 -39.56697628     2     168    172   173   174
H 1243.26336627 -32.84052090 -37.59038705     6     171    0    0    0
H 1242.61015775 -34.35278425 -40.58458654     6     171    0    0    0
C 1244.29709941 -30.34526942 -40.65223037     2     171   175   176   177
H 1243.54915461 -29.65856508 -42.34237731     6    174    0    0    0
H 1243.97544486 -28.66532668 -39.39433952     6    174    0    0    0
C 1246.95826969 -31.09301975 -41.26881133     2    174   178   179   180
H 1247.58712600 -32.01428779 -39.49671966     6    177    0    0    0
H 1246.88710621 -32.56630092 -42.70255760     6    177    0    0    0
C 1248.73771061 -28.75397982 -41.77516880     2    177   181   182   183
H 1248.05868552 -27.78562949 -43.54820036     6    180    0    0    0
H 1248.85404035 -27.56655473 -40.18850293     6    180    0    0    0
C 1251.47802904 -29.55730446 -42.34947017     2    180   184   185   186
H 1252.39256219 -30.93721700 -41.15924031     6    183    0    0    0
H 1251.40539148 -30.71583411 -44.01828214     6    183    0    0    0
C 1253.14473074 -27.33528030 -42.90164955     2    183   187   188   189
H 1252.45459829 -26.07395114 -44.44120183     6    186    0    0    0
H 1252.99785356 -26.15980294 -41.15945667     6    186    0    0    0
C 1255.74827143 -28.08297463 -43.59982343     2    186   190   191   192
H 1256.68537664 -29.45988098 -42.26649552     6    189    0    0    0
H 1255.45026476 -29.22655133 -45.26159049     6    189    0    0    0
C 1257.53647605 -25.78964226 -44.30920839     2    189   193   194   195
H 1257.22689336 -25.10159396 -46.31834366     6    192    0    0    0
H 1257.00958788 -24.18825145 -43.14308977     6    192    0    0    0
C 1260.34425320 -26.55213320 -43.89643927     2    192   196   197   198
H 1260.66156648 -27.11904635 -41.91784118     6    195    0    0    0
H 1260.76452137 -28.36335465 -45.01640227     6    195    0    0    0
C 1262.17425731 -24.45951026 -44.67077216     1    195   199   200   201
H 1264.13540155 -24.79830226 -44.22753625     6    198    0    0    0
H 1261.52245928 -22.67747749 -43.75311819     6    198    0    0    0
H 1261.92453907 -24.32168416 -46.74099780     6    198    0    0    0
H 1253.68476826 -32.36207407 -34.23302204     6     203    0    0    0 
C 1253.07000908 -30.53479054 -34.86998183     1     202    204    205    206
H 1254.46755831 -29.30073761 -33.90883364     6     203    0    0    0
H 1253.36538412 -30.74053715 -36.84249466     6     203    0    0    0
C 1250.16706754 -30.20907974 -34.02372965     2     203    207    208    209
H 1249.44380393 -28.38592949 -34.72308874     6     206    0    0    0
H 1249.00906849 -31.64231832 -34.75595460     6     206    0    0    0
C 1249.79108568 -30.53001477 -31.08846505     2     206    210   211   212
H 1247.85354317 -29.95892462 -30.80003771     6     209    0    0    0
H 1249.79422845 -32.58907781 -30.70927200     6     209    0    0    0
C 1251.72701860 -29.62252171 -29.10827947     2     209   213   214   215
H 1253.61841449 -30.10635734 -29.51266062     6    212    0    0    0
H 1251.65641900 -27.56384908 -28.76047296     6    212    0    0    0
C 1251.26424749 -30.83883892 -26.51089663     2    212   216   217   218
H 1249.24340679 -30.80297215 -25.97516696     6    215    0    0    0
H 1251.84161868 -32.78634353 -26.46596920     6    215    0    0    0
C 1252.86564659 -29.50364593 -24.43072617     2    215   219   220   221
H 1254.76063371 -29.25566834 -25.17114942     6    218    0    0    0
H 1252.42286977 -27.38263266 -24.05508319     6    218    0    0    0
C 1252.77733278 -30.87678463 -21.78768368     2    218   222   223   224
H 1251.01664097 -30.36626551 -20.89344728     6    221    0    0    0
H 1252.59391343 -33.00372727 -21.89749514     6    221    0    0    0
C 1255.02906057 -30.08753077 -20.18674785     2    221   225   226   227
H 1256.62232174 -31.20437756 -20.90108726     6    224    0    0    0
H 1255.79432651 -28.20455240 -20.79811582     6    224    0    0    0
C 1254.61293953 -30.47291994 -17.32683132     2    224   228   229   230
H 1253.52094976 -28.87016493 -16.75555243     6    227    0    0    0
H 1253.60284384 -32.17940074 -16.62669321     6    227    0    0    0
C 1256.89591134 -30.42750148 -15.66633568     2    227   231   232   233
H 1257.62616418 -32.31601698 -15.92794774     6    230    0    0    0
H 1258.14809840 -28.86685066 -16.31051747     6    230    0    0    0
C 1256.46030278 -29.96540405 -12.76774444     2    230   234   235   236
H 1254.73532742 -28.73087387 -12.61466594     6    233    0    0    0
H 1256.04902931 -31.86507898 -12.24315647     6    233    0    0    0
C 1258.84018355 -29.01634226 -11.09258091     1    233   237   238   239
H 1258.27854984 -28.47673826 -9.28323809     6    236    0    0    0
H 1259.86766892 -27.35427701 -11.72945809     6    236    0    0    0
H 1260.05506819 -30.68042477 -10.88894422     6    236    0    0    0
H 1244.75863934 -60.17442561 -20.27815068     6     241    0    0    0 
C 1242.93661943 -59.19144669 -20.23318724     1     240    242    243    244
H 1243.17849003 -57.27390732 -20.94579961     6     241    0    0    0
H 1241.60065653 -60.21672718 -21.38799629     6     241    0    0    0
C 1241.98004906 -59.18115251 -17.61547055     2     241    245    246    247
H 1243.23610744 -58.56696588 -16.18957648     6     244    0    0    0
H 1240.29239753 -57.94716811 -17.80385090     6     244    0    0    0
C 1240.68985760 -61.86796715 -16.84351026     2     244    248   249   250
H 1239.54692669 -61.71036768 -15.00392363     6     247    0    0    0
H 1239.34274812 -62.50235990 -18.36106859     6     247    0    0    0
C 1242.67051466 -64.17779525 -16.86584334     2     247   251   252   253
H 1244.24737818 -63.79724176 -18.15519510     6    250    0    0    0
H 1243.52183598 -64.02255973 -14.99194308     6    250    0    0    0
C 1241.47710371 -66.73644181 -17.29648544     2    250   254   255   256
H 1239.65689786 -67.11442220 -16.27456926     6    253    0    0    0
H 1240.82379534 -66.80469844 -19.25740293     6    253    0    0    0
C 1243.42501000 -68.90483400 -16.89589637     2    253   257   258   259
H 1242.83892969 -70.58393960 -17.95940378     6    256    0    0    0
H 1245.05107857 -68.15807677 -17.86017885     6    256    0    0    0
C 1244.09774700 -69.59081774 -14.08123986     2    256   260   261   262
H 1244.91338945 -67.98623756 -13.20599785     6    259    0    0    0
H 1242.49599023 -70.42897664 -13.19507980     6    259    0    0    0
C 1245.87044898 -71.75360841 -13.85721030     2    259   263   264   265
H 1245.14513201 -73.61729870 -14.33348215     6    262    0    0    0
H 1247.47323507 -71.60515094 -15.10366348     6    262    0    0    0
C 1247.14369108 -72.10577271 -11.18264191     2    262   266   267   268
H 1249.12486545 -71.80370186 -11.23634093     6    265    0    0    0
H 1245.94608778 -70.75807132 -9.97617486     6    265    0    0    0
C 1246.41367830 -74.65971276 -9.99511321     2    265   269   270   271
H 1244.47104692 -75.19919536 -10.02010933     6    268    0    0    0
H 1247.37020568 -76.07136018 -11.08349373     6    268    0    0    0
C 1247.61462298 -75.22529823 -7.42573852     2    268   272   273   274
H 1249.63646839 -75.55965246 -7.78074641     6    271    0    0    0
H 1247.38032171 -73.44344087 -6.45338488     6    271    0    0    0
C 1246.44943781 -77.46875308 -5.92339625     1    271   275   276   277
H 1244.39746993 -77.33352591 -6.16240335     6    274    0    0    0
H 1247.18207959 -77.52970588 -4.03397479     6    274    0    0    0
H 1247.14589282 -79.18206193 -6.95003949     6    274    0    0    0
H 1245.85728876 -37.00711562 -37.51119643     6     279    0    0    0 
C 1245.51069698 -38.63222711 -36.19646315     1     278    280    281    282
H 1243.60713525 -39.33366679 -36.53187239     6     279    0    0    0
H 1246.70635602 -40.16093764 -36.77905596     6     279    0    0    0
C 1245.96718104 -37.98266180 -33.42454249     2     279    283    284    285
H 1248.01651757 -38.21915219 -33.04924622     6     282    0    0    0
H 1245.79749094 -36.01012131 -33.28655253     6     282    0    0    0
C 1244.50389778 -39.53800185 -31.50844907     2     282    286   287   288
H 1242.51745989 -39.08716483 -31.63179917     6     285    0    0    0
H 1244.83013612 -41.48280979 -32.22596717     6     285    0    0    0
C 1245.22184345 -39.19543917 -28.65998267     2     285   289   290   291
H 1247.21825041 -39.19341229 -28.50976473     6    288    0    0    0
H 1244.84019282 -37.37039460 -27.92916354     6    288    0    0    0
C 1244.06427526 -41.06691604 -26.69917108     2    288   292   293   294
H 1241.96267382 -41.03366460 -27.10558985     6    291    0    0    0
H 1244.82274701 -42.96735705 -27.22941737     6    291    0    0    0
C 1244.85495143 -40.68488512 -23.95707480     2    291   295   296   297
H 1246.81857551 -40.06647127 -24.10411952     6    294    0    0    0
H 1243.79079505 -39.18542391 -23.03317756     6    294    0    0    0
C 1244.54556723 -42.83478273 -22.26519460     2    294   298   299   300
H 1242.57726945 -43.39421762 -22.19730972     6    297    0    0    0
H 1245.67755997 -44.51679089 -22.68727145     6    297    0    0    0
C 1245.18485944 -42.20951731 -19.53360564     2    297   301   302   303
H 1247.01261039 -41.36591969 -19.41815854     6    300    0    0    0
H 1243.96496310 -40.59212883 -19.07732972     6    300    0    0    0
C 1245.15637161 -44.34498083 -17.58683769     2    300   304   305   306
H 1243.31079027 -45.20488897 -17.57636984     6    303    0    0    0
H 1246.64105986 -45.74077773 -18.02509336     6    303    0    0    0
C 1245.97065173 -43.08800456 -15.04630235     2    303   307   308   309
H 1248.04554722 -42.78069962 -15.17122339     6    306    0    0    0
H 1245.13678544 -41.16028942 -14.91120121     6    306    0    0    0
C 1245.59914494 -44.82557551 -12.75145231     2    306   310   311   312
H 1244.16786373 -46.09015297 -13.10789229     6    309    0    0    0
H 1247.15284478 -46.07226789 -12.55996675     6    309    0    0    0
C 1245.16344448 -43.66549683 -10.12082308     1    309   313   314   315
H 1243.26248557 -43.09926583 -9.78722487     6    312    0    0    0
H 1246.30596944 -42.01141578 -9.79403714     6    312    0    0    0
H 1245.25713149 -44.96010529 -8.50868645     6    312    0    0    0
H 1251.32331881 -51.75192225 -37.58463295     6     317    0    0    0 
C 1253.12951053 -50.82368742 -37.80810000     1     316    318    319    320
H 1253.45480739 -49.40319822 -39.18729199     6     317    0    0    0
H 1253.65808469 -49.84752719 -36.05637559     6     317    0    0    0
C 1255.13692021 -52.77876149 -38.60204756     2     317    321    322    323
H 1256.95282136 -51.88712625 -38.56030310     6     320    0    0    0
H 1254.97598597 -54.34954702 -37.20797027     6     320    0    0    0
C 1254.77814806 -54.22782855 -41.15106634     2     320    324   325   326
H 1252.96014021 -55.13482791 -41.14978668     6     323    0    0    0
H 1255.06831876 -52.79704514 -42.64265442     6     323    0    0    0
C 1256.79333605 -56.31824803 -41.53995599     2     323   327   328   329
H 1258.71727047 -55.80364137 -40.93063663     6    326    0    0    0
H 1256.26636317 -57.90582423 -40.38826851     6    326    0    0    0
C 1256.95037287 -56.87120223 -44.38023936     2    326   330   331   332
H 1255.11914955 -57.54925695 -45.27120264     6    329    0    0    0
H 1257.94994044 -55.31232072 -45.52552288     6    329    0    0    0
C 1258.70006407 -59.23135744 -44.87496752     2    329   333   334   335
H 1257.92105635 -60.72858566 -43.79699080     6    332    0    0    0
H 1258.30915440 -59.91495765 -46.81653379     6    332    0    0    0
C 1261.63413880 -58.73070621 -44.57089905     2    332   336   337   338
H 1262.19772258 -57.46783369 -46.01254363     6    335    0    0    0
H 1261.94213573 -57.82400281 -42.77052393     6    335    0    0    0
C 1263.28829372 -61.19704380 -44.56517281     2    335   339   340   341
H 1262.60474935 -62.57192148 -43.03593317     6    338    0    0    0
H 1262.98107003 -62.32452424 -46.18707687     6    338    0    0    0
C 1266.18556716 -60.65533623 -44.18561758     2    338   342   343   344
H 1266.98445592 -59.63297184 -45.79073569     6    341    0    0    0
H 1266.18814359 -59.21409205 -42.85539268     6    341    0    0    0
C 1267.96799100 -62.90353309 -43.42179921     2    341   345   346   347
H 1269.91517720 -62.17834034 -43.23976479     6    344    0    0    0
H 1267.16798778 -63.87986640 -41.75498462     6    344    0    0    0
C 1267.91013446 -64.81236977 -45.59307779     2    344   348   349   350
H 1266.15101214 -65.69223551 -45.62429188     6    347    0    0    0
H 1267.83998955 -63.93161546 -47.34259161     6    347    0    0    0
C 1269.85952191 -66.88114690 -45.63681079     1    347   351   352   353
H 1269.54369150 -68.33048005 -47.09420653     6    350    0    0    0
H 1269.64711415 -67.78528407 -43.62198783     6    350    0    0    0
H 1271.76486120 -66.24564488 -45.75930825     6    350    0    0    0
H 1241.18074374 -49.87200646 -23.71143077     6     355    0    0    0 
C 1242.43371790 -50.77898611 -24.99982088     1     354    356    357    358
H 1243.80651772 -51.71703673 -23.92004453     6     355    0    0    0
H 1241.43008074 -52.17389351 -26.15797771     6     355    0    0    0
C 1243.53173330 -48.66030553 -26.75654410     2     355    359    360    361
H 1242.04150544 -47.25263769 -27.42753808     6     358    0    0    0
H 1244.90608731 -47.69746077 -25.61002459     6     358    0    0    0
C 1244.79301766 -49.54023879 -29.16366269     2     358    362   363   364
H 1246.13412130 -51.05095424 -28.89534230     6     361    0    0    0
H 1243.17050608 -50.43930955 -30.11011850     6     361    0    0    0
C 1246.01096093 -47.53922293 -30.65284145     2     361   365   366   367
H 1244.98457429 -45.69340806 -30.37717685     6    364    0    0    0
H 1247.82734003 -47.26842157 -29.72916177     6    364    0    0    0
C 1246.26844496 -48.35315475 -33.46707985     2    364   368   369   370
H 1247.34747276 -50.04568123 -33.56292890     6    367    0    0    0
H 1244.41468317 -48.80909624 -34.12286190     6    367    0    0    0
C 1247.32823490 -46.15719670 -35.03455780     2    367   371   372   373
H 1246.47339842 -44.31446150 -34.67170939     6    370    0    0    0
H 1249.32164229 -46.19422394 -34.80323717     6    370    0    0    0
C 1247.02680357 -46.73451811 -37.80584027     2    370   374   375   376
H 1247.56982466 -48.65261062 -38.22255103     6    373    0    0    0
H 1245.13985011 -46.51635096 -38.31349775     6    373    0    0    0
C 1248.55358399 -44.91955720 -39.44172148     2    373   377   378   379
H 1247.73517499 -43.09332677 -39.64490071     6    376    0    0    0
H 1250.48372133 -44.52936566 -38.79055942     6    376    0    0    0
C 1248.49053544 -45.98033232 -42.09272895     2    376   380   381   382
H 1249.34463938 -47.90452111 -42.00480335     6    379    0    0    0
H 1246.66449071 -45.99300332 -43.08942741     6    379    0    0    0
C 1250.14880147 -44.25237215 -43.72840940     2    379   383   384   385
H 1249.01467346 -42.70694172 -44.50157963     6    382    0    0    0
H 1251.59333503 -43.50820212 -42.69159109     6    382    0    0    0
C 1251.44719493 -45.46293841 -45.84069887     2    382   386   387   388
H 1252.31351417 -43.99692248 -46.92637763     6    385    0    0    0
H 1252.95630962 -46.70061273 -45.03426803     6    385    0    0    0
C 1250.00694341 -46.99243139 -47.76750453     1    385   389   390   391
H 1248.93334616 -45.98220322 -49.17372218     6    388    0    0    0
H 1248.76899299 -48.25594337 -46.93294424     6    388    0    0    0
H 1251.28109761 -48.39438883 -48.70376271     6    388    0    0    0
H 1285.53802849 -78.62491255 -35.62503111     6     393    0    0    0 
C 1284.90952691 -80.23009436 -34.58937486     1     392    394    395    396
H 1284.77707267 -81.97695854 -35.81253856     6     393    0    0    0
H 1286.43560737 -80.41413046 -33.17283360     6     393    0    0    0
C 1282.26302078 -79.77502321 -33.37489444     2     393    397    398    399
H 1280.92878106 -79.55074069 -34.91424678     6     396    0    0    0
H 1281.67590571 -81.45983049 -32.56406231     6     396    0    0    0
C 1282.22873516 -77.74185380 -31.23943995     2     396    400   401   402
H 1283.84892038 -78.06406974 -29.89636894     6     399    0    0    0
H 1282.63191433 -75.95926329 -31.98633764     6     399    0    0    0
C 1279.65079987 -77.62969981 -29.87889255     2     399   403   404   405
H 1278.32145432 -76.65859648 -31.11696522     6    402    0    0    0
H 1278.88923923 -79.52326961 -29.80585664     6    402    0    0    0
C 1279.99408913 -76.21724946 -27.37580862     2    402   406   407   408
H 1281.29282138 -77.17635126 -26.11575972     6    405    0    0    0
H 1280.82961769 -74.32077993 -27.73740595     6    405    0    0    0
C 1277.49086751 -75.73683946 -26.03978344     2    405   409   410   411
H 1276.25402354 -74.57363297 -27.14105051     6    408    0    0    0
H 1276.60817379 -77.62956452 -25.90918534     6    408    0    0    0
C 1277.96335160 -74.65280621 -23.37644970     2    408   412   413   414
H 1279.04238110 -75.82010560 -22.18468099     6    411    0    0    0
H 1278.99376868 -72.88958113 -23.83962950     6    411    0    0    0
C 1275.46589723 -74.19806217 -22.03706386     2    411   415   416   417
H 1274.03384827 -73.54072315 -23.28591347     6    414    0    0    0
H 1274.68097199 -75.89374866 -21.40227937     6    414    0    0    0
C 1275.67109892 -72.40416779 -19.71550342     2    414   418   419   420
H 1277.03845665 -73.11703610 -18.26705998     6    417    0    0    0
H 1276.16077994 -70.53800762 -20.13440410     6    417    0    0    0
C 1273.05319892 -72.23318654 -18.29155572     2    417   421   422   423
H 1271.37162871 -71.62457476 -19.45010244     6    420    0    0    0
H 1272.77744989 -74.24411536 -17.83736689     6    420    0    0    0
C 1272.99329847 -70.38326629 -15.97814633     2    420   424   425   426
H 1271.21927124 -70.68409648 -14.99281140     6    423    0    0    0
H 1274.50844754 -70.97402377 -14.75079763     6    423    0    0    0
C 1273.47326147 -67.59401543 -16.68423424     1    423   427   428   429
H 1273.27928522 -66.28881065 -15.06164498     6    426    0    0    0
H 1272.19465931 -67.05973428 -18.22193267     6    426    0    0    0
H 1275.41147426 -67.38145541 -17.36845984     6    426    0    0    0
H 1254.03014147 -79.59526975 -28.02960276     6     431    0    0    0 
C 1254.55245261 -78.62293500 -29.83385507     1     430    432    433    434
H 1253.79158231 -79.71997308 -31.32518955     6     431    0    0    0
H 1253.91338771 -76.77054591 -29.80936077     6     431    0    0    0
C 1257.31907553 -78.52846924 -30.13736871     2     431    435    436    437
H 1258.21746152 -77.21241658 -28.95234109     6     434    0    0    0
H 1258.12870854 -80.42808092 -29.97912142     6     434    0    0    0
C 1257.90925189 -77.46087075 -32.82229350     2     434    438   439   440
H 1257.46174430 -78.63477335 -34.41347809     6     437    0    0    0
H 1256.94667338 -75.64283691 -32.96109487     6     437    0    0    0
C 1260.83790261 -77.10547089 -33.12763748     2     437   441   442   443
H 1261.27413780 -75.94676846 -34.75155170     6    440    0    0    0
H 1261.55196344 -75.88676288 -31.69431824     6    440    0    0    0
C 1262.34021726 -79.50707148 -33.06400149     2    440   444   445   446
H 1262.22146573 -80.24914751 -31.13011230     6    443    0    0    0
H 1261.46295158 -80.95756919 -34.26219261     6    443    0    0    0
C 1264.98841706 -78.96999887 -34.02438158     2    443   447   448   449
H 1264.73241610 -77.90224174 -35.85512270     6    446    0    0    0
H 1265.96887352 -77.73880858 -32.72805803     6    446    0    0    0
C 1266.51166604 -81.35532207 -34.62777037     2    446   450   451   452
H 1267.10513965 -82.41441696 -32.91425007     6    449    0    0    0
H 1265.37516593 -82.70923261 -35.61808596     6    449    0    0    0
C 1268.98982824 -80.84589655 -36.31114905     2    449   453   454   455
H 1268.62867355 -79.53860640 -37.77313439     6    452    0    0    0
H 1270.34814761 -79.83597789 -35.04339636     6    452    0    0    0
C 1270.10863303 -83.53555422 -37.12468530     2    452   456   457   458
H 1269.80399452 -85.23670006 -35.77035875     6    455    0    0    0
H 1269.20341439 -84.30317511 -38.85843041     6    455    0    0    0
C 1272.91394553 -83.54226500 -37.36314320     2    455   459   460   461
H 1273.31923322 -85.21981545 -38.63998825     6    458    0    0    0
H 1273.50784348 -81.77632920 -38.31591140     6    458    0    0    0
C 1274.28540879 -83.96104233 -34.90063178     2    458   462   463   464
H 1273.10796189 -82.92709208 -33.57605496     6    461    0    0    0
H 1274.28169067 -86.06915359 -34.70297553     6    461    0    0    0
C 1276.69202261 -82.50707419 -34.93069028     1    461   465   466   467
H 1276.48100569 -80.55494182 -35.53537123     6    464    0    0    0
H 1278.31549845 -83.50749119 -35.94711579     6    464    0    0    0
H 1277.02068377 -82.45525732 -32.91865936     6    464    0    0    0
H 1235.61715340 -37.17397266 -41.20830748     6     469    0    0    0 
C 1236.06369171 -38.92197193 -42.05038080     1     468    470    471    472
H 1234.27200737 -39.91695792 -42.44232709     6     469    0    0    0
H 1236.83664579 -38.62845663 -43.81509090     6     469    0    0    0
C 1237.95734292 -40.44071500 -40.48582027     2     469    473    474    475
H 1237.94304335 -42.32291724 -41.31171609     6     472    0    0    0
H 1239.88853989 -39.77392476 -40.59347388     6     472    0    0    0
C 1236.82733417 -40.74433577 -37.96384089     2     472    476   477   478
H 1238.28008122 -41.43786844 -36.64050788     6     475    0    0    0
H 1236.20488596 -38.90297266 -37.09303240     6     475    0    0    0
C 1234.76301997 -42.82729673 -38.07504502     2     475   479   480   481
H 1233.28947348 -42.40512956 -39.28345714     6    478    0    0    0
H 1235.34233590 -44.65524357 -38.92292662     6    478    0    0    0
C 1233.58661980 -43.43289709 -35.52087095     2    478   482   483   484
H 1235.03410941 -43.89280666 -34.12635126     6    481    0    0    0
H 1232.88180907 -41.59216140 -34.80508242     6    481    0    0    0
C 1231.53981515 -45.46421203 -35.32032602     2    481   485   486   487
H 1229.81333761 -44.66229819 -36.05535356     6    484    0    0    0
H 1231.98916207 -46.74930021 -36.73442263     6    484    0    0    0
C 1230.85271795 -46.63763710 -32.68242713     2    484   488   489   490
H 1231.33121779 -45.22181731 -31.26679200     6    487    0    0    0
H 1228.87241641 -47.00528901 -32.54579068     6    487    0    0    0
C 1232.33730227 -49.03764207 -32.01088064     2    487   491   492   493
H 1231.17045889 -50.52365263 -32.78792501     6    490    0    0    0
H 1234.20677276 -49.09434025 -32.77467478     6    490    0    0    0
C 1232.63292364 -49.29254797 -29.17750811     2    490   494   495   496
H 1234.15596344 -48.15483793 -28.58674253     6    493    0    0    0
H 1230.95969986 -48.51472624 -28.22059051     6    493    0    0    0
C 1233.17950102 -51.98933028 -28.18302874     2    493   497   498   499
H 1231.50523503 -53.18217213 -28.44286582     6    496    0    0    0
H 1234.64011727 -52.85750214 -29.31151670     6    496    0    0    0
C 1233.64631393 -52.08039238 -25.30981672     2    496   500   501   502
H 1235.53251477 -50.99149738 -24.95782231     6    499    0    0    0
H 1232.24301360 -51.03066363 -24.23603545     6    499    0    0    0
C 1234.05061989 -54.83973418 -24.40228636     1    499   503   504   505
H 1233.84770261 -55.17527422 -22.35602307     6    502    0    0    0
H 1235.99979976 -55.44797933 -25.05085877     6    502    0    0    0
H 1232.64451056 -55.98759740 -25.42409614     6    502    0    0    0
H 1249.45275118 -83.73991399 -12.11953319     6     507    0    0    0 
C 1249.37872825 -81.64761252 -11.88029330     1     506    508    509    510
H 1247.38637496 -81.33192747 -12.08505030     6     507    0    0    0
H 1249.78782920 -81.51175298 -9.78134961     6     507    0    0    0
C 1250.89886932 -80.29427205 -13.93924844     2     507    511    512    513
H 1249.92269747 -80.60075144 -15.72227452     6     510    0    0    0
H 1250.75831506 -78.30723152 -13.49799014     6     510    0    0    0
C 1253.80858465 -80.73261113 -14.23979291     2     510    514   515   516
H 1254.58482148 -80.19404239 -12.37607844     6     513    0    0    0
H 1254.27528426 -82.75025052 -14.64889684     6     513    0    0    0
C 1254.81024032 -79.06714004 -16.50091003     2     513   517   518   519
H 1253.75924966 -79.44684826 -18.21852949     6    516    0    0    0
H 1254.26217182 -77.13009560 -16.29153318     6    516    0    0    0
C 1257.59217919 -79.13452786 -16.86240787     2    516   520   521   522
H 1258.81164433 -78.66914174 -15.17945491     6    519    0    0    0
H 1258.19756631 -81.14481904 -17.33174601     6    519    0    0    0
C 1258.44283119 -77.43683104 -18.90600904     2    519   523   524   525
H 1257.26712216 -77.60084385 -20.50916158     6    522    0    0    0
H 1258.27299624 -75.53011878 -18.00057027     6    522    0    0    0
C 1261.15882581 -77.99725569 -19.67804211     2    522   526   527   528
H 1262.63132361 -77.33535260 -18.40899490     6    525    0    0    0
H 1261.40739795 -80.05421970 -19.63042536     6    525    0    0    0
C 1261.82417659 -77.08370613 -22.34725828     2    525   529   530   531
H 1260.16227757 -77.00510758 -23.51044926     6    528    0    0    0
H 1262.32882644 -75.09596541 -22.18535890     6    528    0    0    0
C 1264.10014398 -78.67118294 -23.43360780     2    528   532   533   534
H 1265.73942245 -78.67579356 -22.26347176     6    531    0    0    0
H 1263.42158555 -80.57077880 -23.69210002     6    531    0    0    0
C 1265.12634497 -77.56851762 -25.96877362     2    531   535   536   537
H 1263.91594114 -77.95799132 -27.49028776     6    534    0    0    0
H 1265.46084365 -75.52676041 -25.76189022     6    534    0    0    0
C 1267.55575039 -79.06593485 -26.62981382     2    534   538   539   540
H 1268.43394655 -77.94082016 -28.12699682     6    537    0    0    0
H 1268.71998160 -78.69928631 -25.05937116     6    537    0    0    0
C 1267.34304295 -81.92149147 -27.21329768     1    537   541   542   543
H 1269.08449045 -82.70748609 -27.97421174     6    540    0    0    0
H 1265.94936498 -82.22715282 -28.69467522     6    540    0    0    0
H 1266.64390543 -82.77361696 -25.58981578     6    540    0    0    0
H 1269.91116043 -66.79422582 -33.03385822     6     545    0    0    0 
C 1271.94564146 -66.43035784 -33.02780367     1     544    546    547    548
H 1272.29145724 -64.97101360 -31.71892790     6     545    0    0    0
H 1272.84396500 -68.08979615 -32.19235488     6     545    0    0    0
C 1273.25180401 -65.82094675 -35.60686426     2     545    549    550    551
H 1272.90596688 -67.29216261 -36.93314934     6     548    0    0    0
H 1272.63867668 -63.94567665 -36.19818290     6     548    0    0    0
C 1276.09895848 -65.53444969 -35.48485387     2     548    552   553   554
H 1276.63448545 -64.35606221 -33.81491445     6     551    0    0    0
H 1276.78001300 -67.45059941 -35.06442570     6     551    0    0    0
C 1277.29808743 -64.41168733 -37.86566647     2     551   555   556   557
H 1277.52118492 -65.97438281 -39.08963621     6    554    0    0    0
H 1275.80840470 -63.29149506 -38.69014741     6    554    0    0    0
C 1279.81939141 -63.01094875 -37.61199689     2    554   558   559   560
H 1279.28231650 -61.44913696 -36.48518760     6    557    0    0    0
H 1280.99244794 -64.30391215 -36.61133769     6    557    0    0    0
C 1280.98755340 -62.03594231 -40.05125585     2    557   561   562   563
H 1281.77712726 -63.57886219 -41.13547070     6    560    0    0    0
H 1279.66594098 -61.15879868 -41.49575265     6    560    0    0    0
C 1283.29200034 -60.38093750 -39.68191581     2    560   564   565   566
H 1282.74972348 -58.86188179 -38.38992349     6    563    0    0    0
H 1284.74245279 -61.43030465 -38.64068572     6    563    0    0    0
C 1284.16534057 -59.23884056 -42.18647418     2    563   567   568   569
H 1284.80253263 -60.74238110 -43.39670512     6    566    0    0    0
H 1282.59303317 -58.37120354 -43.20590465     6    566    0    0    0
C 1286.28192257 -57.29291544 -41.54115970     2    566   570   571   572
H 1285.42284234 -55.77300024 -40.52641729     6    569    0    0    0
H 1287.58552526 -58.46322250 -40.50553566     6    569    0    0    0
C 1287.49164158 -56.15458614 -43.89139282     2    569   573   574   575
H 1288.29446755 -57.92198307 -44.69195022     6    572    0    0    0
H 1286.08355125 -55.43319400 -45.27275665     6    572    0    0    0
C 1289.57206969 -54.10607858 -43.42107900     2    572   576   577   578
H 1290.85962636 -54.82515480 -42.06255695     6    575    0    0    0
H 1290.85747490 -53.99797676 -45.12073737     6    575    0    0    0
C 1288.29984295 -51.58299671 -42.74285527     1    575   579   580   581
H 1287.21278281 -50.85581166 -44.21570530     6    578    0    0    0
H 1289.70945246 -50.30301001 -42.19987161     6    578    0    0    0
H 1287.09909648 -51.90048878 -41.12596463     6    578    0    0    0
H 1252.04650513 -39.08657980 -35.71063207     6     583    0    0    0 
C 1251.93804411 -38.83296992 -37.75048591     1     582    584    585    586
H 1251.00409230 -40.40216348 -38.58040627     6     583    0    0    0
H 1250.69118146 -37.24477709 -38.04451572     6     583    0    0    0
C 1254.58731761 -38.41793614 -39.02096947     2     583    587    588    589
H 1255.71122745 -37.18291361 -37.80342611     6     586    0    0    0
H 1255.58994850 -40.20504454 -39.18934032     6     586    0    0    0
C 1254.75310018 -37.40839043 -41.81563192     2     586    590   591   592
H 1254.11398355 -38.98329033 -43.08732128     6     589    0    0    0
H 1253.61620890 -35.69394620 -41.99874914     6     589    0    0    0
C 1257.60293867 -36.75066664 -42.59262204     2     589   593   594   595
H 1258.41544196 -35.27567336 -41.43521282     6    592    0    0    0
H 1258.80865406 -38.49543107 -42.45415525     6    592    0    0    0
C 1257.78391295 -35.67998448 -45.38160391     2    592   596   597   598
H 1257.21447815 -37.26086868 -46.51493870     6    595    0    0    0
H 1256.23672690 -34.39749438 -45.47114979     6    595    0    0    0
C 1260.33361152 -34.65910001 -46.17840139     2    595   599   600   601
H 1260.03359133 -33.52813920 -47.83293157     6    598    0    0    0
H 1261.16226507 -33.50584615 -44.71453065     6    598    0    0    0
C 1262.24811574 -36.74009435 -46.94691535     2    598   602   603   604
H 1262.52371385 -38.09587910 -45.37437384     6    601    0    0    0
H 1261.33519423 -37.87387562 -48.39331475     6    601    0    0    0
C 1264.72695571 -35.80007104 -47.55767216     2    601   605   606   607
H 1265.88592379 -37.68733197 -47.35647839     6    604    0    0    0
H 1264.75191832 -35.24657343 -49.48170472     6    604    0    0    0
C 1265.85103144 -33.61145459 -45.80523858     2    604   608   609   610
H 1264.83045305 -32.02918454 -46.60265932     6    607    0    0    0
H 1265.16179434 -33.98778805 -43.79429901     6    607    0    0    0
C 1268.70672507 -33.45427422 -45.99974949     2    607   611   612   613
H 1269.48746951 -34.51834629 -44.53129354     6    610    0    0    0
H 1269.44708144 -34.50838971 -47.52491312     6    610    0    0    0
C 1269.59319388 -30.68498412 -45.71265020     2    610   614   615   616
H 1269.49422107 -29.81593819 -47.58678729     6    613    0    0    0
H 1268.19819247 -29.60936700 -44.48399868     6    613    0    0    0
C 1272.23397815 -30.63968866 -44.74549985     1    613   617   618   619
H 1272.98143804 -28.72435798 -44.50501302     6    616    0    0    0
H 1273.35571812 -31.94273069 -45.96230634     6    616    0    0    0
H 1271.94865030 -31.46045172 -42.84597821     6    616    0    0    0
H 1282.60725910 -45.87271082 -19.06886765     6     621    0    0    0 
C 1282.17363736 -46.92452133 -17.28474598     1     620    622    623    624
H 1281.90493872 -48.88591596 -17.67606415     6     621    0    0    0
H 1283.86613512 -46.93454012 -16.00011651     6     621    0    0    0
C 1279.81051543 -45.90169431 -15.87623822     2     621    625    626    627
H 1279.45905631 -47.56833240 -14.68555542     6     624    0    0    0
H 1280.19923827 -44.19250923 -14.78794006     6     624    0    0    0
C 1277.55840868 -45.13745141 -17.65283504     2     624    628   629   630
H 1277.86091973 -43.41083736 -18.77932534     6     627    0    0    0
H 1277.61875367 -46.62805207 -19.06317037     6     627    0    0    0
C 1275.08417597 -45.43560409 -16.38298487     2     627   631   632   633
H 1273.58973908 -44.43928461 -17.63479090     6    630    0    0    0
H 1274.38200437 -47.31187858 -16.21402287     6    630    0    0    0
C 1274.60160541 -44.11035524 -13.76970838     2    630   634   635   636
H 1275.68626889 -45.03129796 -12.29417694     6    633    0    0    0
H 1275.53182976 -42.19005376 -13.92022524     6    633    0    0    0
C 1271.66861814 -44.01245714 -13.05957580     2    633   637   638   639
H 1270.45509190 -43.65777558 -14.62810406     6    636    0    0    0
H 1271.18605273 -45.98384307 -12.65386749     6    636    0    0    0
C 1271.06749321 -42.28804369 -10.76760497     2    636   640   641   642
H 1272.56132463 -42.71953589 -9.28594707     6    639    0    0    0
H 1271.25966836 -40.30546254 -11.32081968     6    639    0    0    0
C 1268.46370682 -42.93040932 -9.67273000     2    639   643   644   645
H 1266.92495823 -42.84858030 -11.00484825     6    642    0    0    0
H 1268.37326172 -45.02229728 -9.20482951     6    642    0    0    0
C 1267.96624024 -41.40030730 -7.27396579     2    642   646   647   648
H 1266.05462609 -41.98829348 -6.65084476     6    645    0    0    0
H 1269.01495697 -41.96598156 -5.75351657     6    645    0    0    0
C 1268.08148282 -38.47192258 -7.45572396     2    645   649   650   651
H 1268.21700929 -37.65314484 -5.60835631     6    648    0    0    0
H 1269.82320779 -37.81786009 -8.20826591     6    648    0    0    0
C 1265.70251625 -37.26831705 -8.72966734     2    648   652   653   654
H 1265.79814324 -37.87967504 -10.70879180     6    651    0    0    0
H 1263.93981811 -38.07515565 -7.97477436     6    651    0    0    0
C 1265.57095844 -34.37173254 -8.69308006     1    651   655   656   657
H 1267.37876087 -33.45800837 -9.33949305     6    654    0    0    0
H 1265.28189520 -33.51137648 -6.70972764     6    654    0    0    0
H 1264.19647662 -33.64294190 -10.08003064     6    654    0    0    0
H 1263.21059501 -37.84687062 -32.91509194     6     659    0    0    0 
C 1261.83488602 -36.90802775 -34.09431547     1     658    660    661    662
H 1260.38185672 -38.31226951 -34.38819439     6     659    0    0    0
H 1260.62902132 -35.47755704 -33.02912458     6     659    0    0    0
C 1262.97152859 -35.38815948 -36.30510169     2     659    663    664    665
H 1261.61259273 -34.87244308 -37.66924744     6     662    0    0    0
H 1263.49275459 -33.56110206 -35.36952712     6     662    0    0    0
C 1265.09245855 -36.90622649 -37.71937101     2     662    666   667   668
H 1265.82627341 -35.75440544 -39.31219418     6     665    0    0    0
H 1266.65130763 -37.01287198 -36.44759512     6     665    0    0    0
C 1264.48933396 -39.65090463 -38.66766603     2     665   669   670   671
H 1263.99894015 -40.61518635 -36.93458095     6    668    0    0    0
H 1262.80377095 -39.59797976 -39.76003012     6    668    0    0    0
C 1266.65927490 -40.67981949 -40.05417193     2    668   672   673   674
H 1266.82954648 -40.12976762 -42.06283823     6    671    0    0    0
H 1268.35846195 -40.45251686 -38.92325180     6    671    0    0    0
C 1266.56061960 -43.43442610 -40.34807522     2    671   675   676   677
H 1266.45004947 -44.34389485 -38.43253104     6    674    0    0    0
H 1264.69048626 -43.60128954 -41.09365801     6    674    0    0    0
C 1268.56330461 -44.61763641 -41.99061637     2    674   678   679   680
H 1268.01870474 -46.52990384 -42.59703682     6    677    0    0    0
H 1268.22263475 -43.42291619 -43.74809650     6    677    0    0    0
C 1271.34272258 -44.59950256 -41.01838335     2    677   681   682   683
H 1271.81315156 -42.89549275 -39.94355596     6    680    0    0    0
H 1271.54006085 -46.12236874 -39.65929316     6    680    0    0    0
C 1273.18546280 -44.81259176 -43.12681348     2    680   684   685   686
H 1273.01995188 -43.04669695 -44.03788418     6    683    0    0    0
H 1275.02295342 -45.00049621 -42.24812307     6    683    0    0    0
C 1273.08240584 -47.15190915 -44.83458703     2    683   687   688   689
H 1272.90606720 -48.85039169 -43.63924068     6    686    0    0    0
H 1271.23230812 -47.12885662 -45.83530207     6    686    0    0    0
C 1275.27170246 -47.23648847 -46.85102436     2    686   690   691   692
H 1275.11557339 -45.39038316 -47.83670832     6    689    0    0    0
H 1277.16563988 -46.95204282 -45.84172918     6    689    0    0    0
C 1274.96312193 -49.47195362 -48.71803515     1    689   693   694   695
H 1276.12534353 -49.17498356 -50.31232716     6    692    0    0    0
H 1273.13496074 -49.74623142 -49.28783162     6    692    0    0    0
H 1275.34016181 -51.21161077 -47.77660658     6    692    0    0    0
H 1293.44303529 -58.57425044 -41.97397995     6     697    0    0    0 
C 1294.76682792 -59.73875471 -41.08159642     1     696    698    699    700
H 1295.59236870 -60.60376374 -42.62601693     6     697    0    0    0
H 1296.38855593 -58.74090086 -40.29953201     6     697    0    0    0
C 1293.80168649 -61.79091472 -39.11993166     2     697    701    702    703
H 1295.44694696 -62.89338219 -38.42450310     6     700    0    0    0
H 1293.42195672 -60.80425547 -37.33901707     6     700    0    0    0
C 1291.83601234 -63.49754716 -39.97311868     2     700    704   705   706
H 1290.13075986 -62.61747590 -39.47916490     6     703    0    0    0
H 1291.91073437 -63.36408605 -42.00323640     6     703    0    0    0
C 1292.04776716 -66.29270849 -39.02579719     2     703   707   708   709
H 1293.49822940 -67.27100202 -40.20947726     6    706    0    0    0
H 1292.47408890 -66.39283459 -36.97600440     6    706    0    0    0
C 1289.56784986 -67.70947787 -39.62326556     2    706   710   711   712
H 1287.86576597 -66.85251094 -38.63361228     6    709    0    0    0
H 1289.37988704 -67.56878921 -41.70172694     6    709    0    0    0
C 1289.63304982 -70.64268966 -38.96601281     2    709   713   714   715
H 1291.06127360 -71.58554759 -40.14085410     6    712    0    0    0
H 1290.26111390 -70.95467548 -36.98928009     6    712    0    0    0
C 1287.08357241 -71.97721168 -39.53912342     2    712   716   717   718
H 1285.94246399 -72.01433101 -37.75521488     6    715    0    0    0
H 1285.78519824 -70.89194521 -40.91929856     6    715    0    0    0
C 1287.41606112 -74.81283714 -40.14633524     2    715   719   720   721
H 1288.55260916 -74.88897861 -41.90251283     6    718    0    0    0
H 1288.51906466 -75.84518911 -38.79202685     6    718    0    0    0
C 1284.85506932 -75.96638452 -40.58415159     2    718   722   723   724
H 1283.86496796 -76.00386417 -38.78865762     6    721    0    0    0
H 1283.77632214 -74.88625121 -41.93848980     6    721    0    0    0
C 1285.01807206 -78.78268886 -41.59031985     2    721   725   726   727
H 1286.32892251 -78.80427315 -43.19309129     6    724    0    0    0
H 1286.00265724 -79.81431910 -40.18491622     6    724    0    0    0
C 1282.70295802 -80.19993555 -42.64197422     2    724   728   729   730
H 1281.51535115 -79.01062136 -43.89670115     6    727    0    0    0
H 1283.18249107 -81.80426828 -43.82740792     6    727    0    0    0
C 1280.78727293 -81.17377339 -40.65456540     1    727   731   732   733
H 1279.09517849 -81.95145751 -41.66034204     6    730    0    0    0
H 1279.94764602 -79.65156683 -39.41928094     6    730    0    0    0
H 1281.77380950 -82.44400864 -39.43492771     6    730    0    0    0
H 1249.76637373 -61.18717533 -46.89618885     6     735    0    0    0 
C 1247.66416638 -60.95669098 -47.21436899     1     734    736    737    738
H 1247.44999850 -61.37002315 -49.14692144     6     735    0    0    0
H 1246.25730368 -62.21135768 -46.21469142     6     735    0    0    0
C 1247.05536227 -58.14901514 -47.05456096     2     735    739    740    741
H 1247.94802272 -57.29353397 -48.59976994     6     738    0    0    0
H 1245.03931709 -57.92389081 -47.48583593     6     738    0    0    0
C 1248.00090746 -56.93625120 -44.51607885     2     738    742   743   744
H 1247.51755650 -58.20327685 -42.91040893     6     741    0    0    0
H 1250.08585608 -56.84413847 -44.69401775     6     741    0    0    0
C 1246.72675241 -54.31761705 -44.10436295     2     741   745   746   747
H 1247.55063158 -52.77781762 -45.24842439     6    744    0    0    0
H 1244.74956507 -54.57803017 -44.79084238     6    744    0    0    0
C 1246.45269643 -53.32405464 -41.30159968     2    744   748   749   750
H 1248.34010270 -53.45063433 -40.48060730     6    747    0    0    0
H 1246.16758515 -51.27935142 -41.36777555     6    747    0    0    0
C 1244.24945660 -54.50512101 -39.70762588     2    747   751   752   753
H 1242.46751412 -53.82690092 -40.44965146     6    750    0    0    0
H 1244.05478710 -56.53942382 -40.00542248     6    750    0    0    0
C 1244.43677650 -54.12285830 -36.90238432     2    750   754   755   756
H 1246.39186612 -53.91514627 -36.28142723     6    753    0    0    0
H 1243.39089326 -52.53191700 -36.45069703     6    753    0    0    0
C 1243.30799107 -56.24265613 -35.48467879     2    753   757   758   759
H 1241.35855575 -56.57350782 -36.12121700     6    756    0    0    0
H 1244.32096933 -57.87914111 -36.00935104     6    756    0    0    0
C 1243.27700545 -55.78389744 -32.71553654     2    756   760   761   762
H 1245.12722185 -55.39688173 -31.94457242     6    759    0    0    0
H 1242.04351955 -54.08316274 -32.64031618     6    759    0    0    0
C 1241.99508824 -57.90336739 -31.24289382     2    759   763   764   765
H 1243.06057750 -59.60629233 -31.70895102     6    762    0    0    0
H 1242.27933924 -57.28733487 -29.23131272     6    762    0    0    0
C 1239.14652033 -58.29464756 -31.72250385     2    762   766   767   768
H 1238.34564150 -56.48129361 -31.64770300     6    765    0    0    0
H 1238.95785856 -58.89117493 -33.78086229     6    765    0    0    0
C 1237.91299318 -60.25975772 -29.96478322     1    765   769   770   771
H 1238.56050967 -62.25127988 -30.36443275     6    768    0    0    0
H 1235.97800308 -60.28088341 -30.10330859     6    768    0    0    0
H 1238.09618475 -59.63057353 -28.08347661     6    768    0    0    0
H 1273.00248753 -47.07012810 -3.96570154     6     773    0    0    0 
C 1271.62326356 -47.09220639 -5.32530738     1     772    774    775    776
H 1269.94286725 -48.08973498 -4.51476212     6     773    0    0    0
H 1271.22512652 -45.13682076 -5.71432822     6     773    0    0    0
C 1272.66440346 -48.39317430 -7.69763655     2     773    777    778    779
H 1271.39298600 -48.60719947 -9.32884366     6     776    0    0    0
H 1274.26259121 -47.20085385 -8.39274418     6     776    0    0    0
C 1273.82906062 -50.86256491 -6.89327037     2     776    780   781   782
H 1275.49761085 -50.75122306 -5.45206998     6     779    0    0    0
H 1272.33544168 -51.84774187 -5.74828436     6     779    0    0    0
C 1274.45941845 -52.61645494 -9.08387823     2     779   783   784   785
H 1272.79877760 -53.02372618 -10.32726718     6    782    0    0    0
H 1276.07438405 -51.90190773 -10.23539628     6    782    0    0    0
C 1275.35291243 -55.18915108 -8.07786519     2    782   786   787   788
H 1277.40763504 -55.04876244 -7.51415230     6    785    0    0    0
H 1274.02967368 -55.59048672 -6.54754069     6    785    0    0    0
C 1275.16333007 -57.51471945 -9.85260605     2    785   789   790   791
H 1273.38363306 -58.28168491 -9.68092518     6    788    0    0    0
H 1275.40827032 -57.05834820 -11.85163177     6    788    0    0    0
C 1277.14575282 -59.42962683 -9.27127710     2    788   792   793   794
H 1278.92221074 -58.60116107 -8.88288564     6    791    0    0    0
H 1276.53696148 -60.19138192 -7.42451637     6    791    0    0    0
C 1277.45425245 -61.72489542 -11.04760318     2    791   795   796   797
H 1275.81390401 -62.86985615 -11.61632496     6    794    0    0    0
H 1277.88420119 -61.03870203 -12.86643461     6    794    0    0    0
C 1279.62704014 -63.62044038 -10.30519367     2    794   798   799   800
H 1281.49177388 -63.00905995 -10.92675106     6    797    0    0    0
H 1279.83917167 -63.84550798 -8.20037817     6    797    0    0    0
C 1279.14603689 -66.21840885 -11.70511742     2    797   801   802   803
H 1277.59014447 -67.29309131 -10.86666361     6    800    0    0    0
H 1278.33809183 -65.56731348 -13.53620856     6    800    0    0    0
C 1281.42807081 -67.96336181 -11.69097290     2    800   804   805   806
H 1282.87687216 -66.98587436 -12.71975930     6    803    0    0    0
H 1282.36849104 -68.35086509 -9.97863182     6    803    0    0    0
C 1281.01497564 -70.36325986 -13.25154060     1    803   807   808   809
H 1282.69037731 -71.25977864 -13.97653829     6    806    0    0    0
H 1279.83944402 -70.21919107 -14.83144474     6    806    0    0    0
H 1280.19134913 -71.77875426 -12.07000333     6    806    0    0    0
H 1252.16153378 -39.52806772 -30.04654225     6     811    0    0    0 
C 1254.00358118 -40.43024437 -29.78169406     1     810    812    813    814
H 1254.88933564 -40.38398869 -31.73712806     6     811    0    0    0
H 1255.20604133 -39.21805755 -28.75034407     6     811    0    0    0
C 1253.63887940 -43.28389120 -29.06876083     2     811    815    816    817
H 1252.45495027 -44.09867265 -30.50226770     6     814    0    0    0
H 1255.55825245 -44.04193884 -28.95786724     6     814    0    0    0
C 1252.72251688 -43.74434483 -26.35915570     2     814    818   819   820
H 1253.72443652 -42.52532749 -24.86724193     6     817    0    0    0
H 1250.89572356 -42.66193534 -26.17913472     6     817    0    0    0
C 1252.17726611 -46.45185213 -25.68932636     2     817   821   822   823
H 1251.03925599 -47.32264092 -27.16819198     6    820    0    0    0
H 1254.00382672 -47.53333834 -25.72936110     6    820    0    0    0
C 1251.28242945 -46.79617608 -23.10606224     2    820   824   825   826
H 1252.51926980 -45.78792178 -21.78287600     6    823    0    0    0
H 1249.60179138 -45.54898598 -22.94176630     6    823    0    0    0
C 1250.89641750 -49.63121603 -22.58486142     2    823   827   828   829
H 1250.12444249 -50.40650243 -24.30717602     6    826    0    0    0
H 1252.56505212 -50.70623941 -22.28980358     6    826    0    0    0
C 1248.99220672 -50.36435349 -20.38484399     2    826   830   831   832
H 1249.64246005 -49.53393270 -18.72685730     6    829    0    0    0
H 1247.08356174 -49.55167064 -20.58738410     6    829    0    0    0
C 1248.75390654 -53.21441606 -19.95185379     2    829   833   834   835
H 1248.40695585 -54.04923762 -21.76041539     6    832    0    0    0
H 1250.58277950 -54.01028319 -19.63879354     6    832    0    0    0
C 1246.74529901 -53.99577505 -18.08990558     2    832   836   837   838
H 1244.85607194 -53.25945122 -18.64230960     6    835    0    0    0
H 1246.51348770 -55.97182980 -18.01981998     6    835    0    0    0
C 1247.80347153 -53.22114239 -15.54676925     2    835   839   840   841
H 1249.72399734 -53.89048523 -15.41659290     6    838    0    0    0
H 1247.86087246 -51.22448264 -15.30605508     6    838    0    0    0
C 1246.39379799 -54.37668084 -13.28708428     2    838   842   843   844
H 1244.31573457 -53.99869536 -13.19222690     6    841    0    0    0
H 1246.56279690 -56.39397434 -13.74302455     6    841    0    0    0
C 1247.59057320 -53.87718821 -10.75431707     1    841   845   846   847
H 1249.45953894 -54.80104017 -10.71794254     6    844    0    0    0
H 1246.65854817 -54.63201069 -9.14893902     6    844    0    0    0
H 1247.95592925 -51.96980312 -10.37499330     6    844    0    0    0
H 1281.75782802 -41.40840387 -46.28335506     6     849    0    0    0 
C 1281.61570033 -40.35187084 -44.66807568     1     848    850    851    852
H 1282.99624523 -40.92312159 -43.39918750     6     849    0    0    0
H 1282.17689041 -38.33954415 -44.92052989     6     849    0    0    0
C 1278.96159142 -40.46098292 -43.69392563     2     849    853    854    855
H 1277.80834483 -39.74133270 -45.35950660     6     852    0    0    0
H 1278.43873594 -42.30454186 -43.31798006     6     852    0    0    0
C 1278.68024996 -38.69610348 -41.30030645     2     852    856   857   858
H 1280.10424317 -39.35303598 -39.95296690     6     855    0    0    0
H 1279.20914643 -36.76145341 -41.76839804     6     855    0    0    0
C 1276.08090597 -38.57501852 -40.05389442     2     855   859   860   861
H 1274.67809857 -39.27608292 -41.39657612     6    858    0    0    0
H 1276.01933014 -39.87804176 -38.43066823     6    858    0    0    0
C 1275.55448644 -35.79884281 -39.22179768     2    858   862   863   864
H 1277.13405548 -35.07306497 -38.15332760     6    861    0    0    0
H 1275.29647813 -34.40855423 -40.72652436     6    861    0    0    0
C 1273.21274341 -35.39550379 -37.64091470     2    861   865   866   867
H 1271.61646114 -35.86199580 -38.84253263     6    864    0    0    0
H 1272.88438247 -36.75521207 -36.20012088     6    864    0    0    0
C 1272.90478705 -32.65309621 -36.45990856     2    864   868   869   870
H 1274.18883271 -32.51424366 -34.82137307     6    867    0    0    0
H 1273.43658433 -31.26253817 -37.91431861     6    867    0    0    0
C 1270.26057412 -32.02678919 -35.45576621     2    867   871   872   873
H 1268.91547314 -32.38336968 -37.00709789     6    870    0    0    0
H 1269.98669709 -33.49292711 -33.98247034     6    870    0    0    0
C 1270.07461828 -29.35103583 -34.55675423     2    870   874   875   876
H 1268.07631766 -29.01756715 -34.17357604     6    873    0    0    0
H 1270.92067719 -29.37365120 -32.53859514     6    873    0    0    0
C 1270.91586092 -27.14972181 -36.32012184     2    873   877   878   879
H 1273.01645128 -27.34225891 -36.53077952     6    876    0    0    0
H 1270.29516137 -27.34200692 -38.34739417     6    876    0    0    0
C 1270.43143070 -24.56706783 -35.45965910     2    876   880   881   882
H 1268.45277651 -24.27380710 -35.63880977     6    879    0    0    0
H 1270.79185456 -24.11092159 -33.56563443     6    879    0    0    0
C 1271.68627091 -22.56063601 -37.17650098     1    879   883   884   885
H 1272.15697831 -23.37665841 -39.03692789     6    882    0    0    0
H 1273.55427611 -21.85442218 -36.59846512     6    882    0    0    0
H 1270.46442862 -20.97951027 -37.47921535     6    882    0    0    0
H 1255.81505212 -56.29969941 -16.78646006     6     887    0    0    0 
C 1257.87577822 -56.43482961 -17.04461613     1     886    888    889    890
H 1258.74894009 -54.99144674 -15.74429288     6     887    0    0    0
H 1258.56971521 -58.17770397 -16.36202769     6     887    0    0    0
C 1258.68623209 -56.43858193 -19.74507601     2     887    891    892    893
H 1260.84028208 -56.70588022 -19.93279878     6     890    0    0    0
H 1257.84428281 -58.06224896 -20.83117229     6     890    0    0    0
C 1257.97693318 -53.98400301 -21.17022308     2     890    894   895   896
H 1255.98691966 -53.53253237 -21.23115751     6     893    0    0    0
H 1258.85639356 -52.32579100 -20.36655894     6     893    0    0    0
C 1259.03326081 -54.12409521 -23.72476499     2     893   897   898   899
H 1260.93749448 -54.90692450 -23.77143680     6    896    0    0    0
H 1257.93219237 -55.59015232 -24.86208346     6    896    0    0    0
C 1258.67478457 -51.65074627 -25.05759141     2    896   900   901   902
H 1256.65721838 -51.19606938 -24.76722663     6    899    0    0    0
H 1259.82517437 -50.21851197 -24.27892305     6    899    0    0    0
C 1259.09196780 -51.67262917 -27.89963170     2    899   903   904   905
H 1260.89611971 -52.84324563 -28.19250129     6    902    0    0    0
H 1257.43814171 -52.92486687 -28.40429865     6    902    0    0    0
C 1258.91271782 -49.12147841 -29.15105618     2    902   906   907   908
H 1257.05811106 -48.41013287 -28.66645621     6    905    0    0    0
H 1260.27845634 -47.68041244 -28.62893623     6    905    0    0    0
C 1258.96221680 -49.43468604 -32.01403801     2    905   909   910   911
H 1260.90519988 -50.04847342 -32.69421447     6    908    0    0    0
H 1257.53440242 -50.74618933 -32.61604121     6    908    0    0    0
C 1258.72593087 -46.81349198 -33.25222030     2    908   912   913   914
H 1256.88459195 -46.06171410 -32.88885671     6    911    0    0    0
H 1260.14429318 -45.67196684 -32.30092489     6    911    0    0    0
C 1259.32185816 -46.86233384 -36.12197016     2    911   915   916   917
H 1261.09699701 -47.84042773 -36.33495665     6    914    0    0    0
H 1257.86731687 -48.12701968 -36.96553654     6    914    0    0    0
C 1259.08464553 -44.22196601 -37.50154106     2    914   918   919   920
H 1257.65669777 -43.29733689 -36.27662475     6    917    0    0    0
H 1260.86792571 -43.33244877 -37.20209462     6    917    0    0    0
C 1258.24018297 -44.50209741 -40.15739605     1    917   921   922   923
H 1256.31482154 -45.28310703 -40.31934393     6    920    0    0    0
H 1259.64926815 -45.68943665 -40.98953849     6    920    0    0    0
H 1258.41149372 -42.66657922 -41.25576295     6    920    0    0    0
H 1276.86757721 -26.23439521 -22.27849861     6     925    0    0    0 
C 1275.28018015 -26.54391272 -21.06631661     1     924    926    927    928
H 1275.93368550 -26.12827405 -19.16807214     6     925    0    0    0
H 1273.79324326 -25.19439715 -21.29511145     6     925    0    0    0
C 1273.97701562 -29.01307523 -21.13233982     2     925    929    930    931
H 1275.30849217 -30.46843565 -20.60176307     6     928    0    0    0
H 1272.40167784 -28.93076534 -19.67771777     6     928    0    0    0
C 1272.53452758 -29.39982372 -23.72696141     2     928    932   933   934
H 1272.05627841 -27.47753078 -24.13424387     6     931    0    0    0
H 1274.03606968 -29.66603798 -25.06607904     6     931    0    0    0
C 1270.49189428 -31.31061928 -24.17859682     2     931   935   936   937
H 1271.20131248 -33.23065701 -23.87846109     6    934    0    0    0
H 1268.98275378 -30.98099404 -22.75583974     6    934    0    0    0
C 1269.35086631 -31.02276165 -26.82441156     2    934   938   939   940
H 1268.70349929 -29.05374345 -26.98853204     6    937    0    0    0
H 1270.83716329 -31.50524854 -28.15468837     6    937    0    0    0
C 1267.00290175 -32.56991344 -27.21037927     2    937   941   942   943
H 1267.68993266 -34.48763677 -27.12287963     6    940    0    0    0
H 1265.82425806 -32.61789732 -25.55837780     6    940    0    0    0
C 1265.38811417 -31.97924977 -29.61878035     2    940   944   945   946
H 1266.57989537 -30.87409284 -30.79929686     6    943    0    0    0
H 1264.68448300 -33.73170962 -30.46078102     6    943    0    0    0
C 1263.33357654 -30.19328805 -28.90288845     2    943   947   948   949
H 1261.82602669 -31.03086712 -27.71297328     6    946    0    0    0
H 1264.15565800 -28.80131965 -27.68123661     6    946    0    0    0
C 1262.03120586 -28.87542966 -31.16871205     2    946   950   951   952
H 1263.58080212 -27.76367817 -32.16649168     6    949    0    0    0
H 1261.61864013 -30.47666220 -32.51741418     6    949    0    0    0
C 1259.97556306 -27.15593713 -30.24051509     2    949   953   954   955
H 1258.48779407 -28.28194550 -29.40601158     6    952    0    0    0
H 1260.36559819 -26.04708020 -28.64715581     6    952    0    0    0
C 1258.66163897 -25.58747478 -32.35858169     2    952   956   957   958
H 1260.14555610 -24.52833670 -33.29390276     6    955    0    0    0
H 1257.67791517 -26.85238548 -33.53758897     6    955    0    0    0
C 1256.57023499 -23.84013920 -31.37222744     1    955   959   960   961
H 1257.30863448 -22.34919166 -30.13407038     6    958    0    0    0
H 1255.25881567 -24.91819332 -30.40876191     6    958    0    0    0
H 1255.92722803 -22.90820874 -33.04978497     6    958    0    0    0
H 1255.88845823 -69.80272854 -31.64888206     6     963    0    0    0 
C 1256.47602300 -69.21485347 -29.68979507     1     962    964    965    966
H 1256.48573817 -67.19647746 -29.62049757     6     963    0    0    0
H 1255.12119314 -70.10808367 -28.35178057     6     963    0    0    0
C 1259.15675062 -70.13612427 -28.89511524     2     963    967    968    969
H 1259.65330958 -69.14640380 -27.15290964     6     966    0    0    0
H 1259.28203761 -72.20192609 -28.49547827     6     966    0    0    0
C 1261.26951045 -69.93065446 -30.89690060     2     966    970   971   972
H 1260.85509863 -71.25373406 -32.41220876     6     969    0    0    0
H 1261.31698622 -68.06207858 -31.68707213     6     969    0    0    0
C 1263.84766924 -70.75497449 -29.95659797     2     969   973   974   975
H 1264.42395995 -69.99246337 -28.15045839     6    972    0    0    0
H 1263.35434003 -72.66930193 -29.58719921     6    972    0    0    0
C 1265.95828643 -70.79666545 -31.90129434     2    972   976   977   978
H 1265.10099016 -71.62972355 -33.60961050     6    975    0    0    0
H 1266.44377885 -68.81469075 -32.46640920     6    975    0    0    0
C 1268.25815864 -72.33524589 -31.24705532     2    975   979   980   981
H 1269.59135869 -70.95947473 -30.29450190     6    978    0    0    0
H 1267.90139024 -73.93157104 -30.12438904     6    978    0    0    0
C 1269.72765740 -73.26819969 -33.55542197     2    978   982   983   984
H 1268.63459154 -74.46930256 -34.95378435     6    981    0    0    0
H 1270.20088198 -71.48364408 -34.51337025     6    981    0    0    0
C 1271.89955834 -74.91518576 -32.66934458     2    981   985   986   987
H 1273.00042910 -73.92421083 -31.29373614     6    984    0    0    0
H 1270.95431058 -76.40467198 -31.70396205     6    984    0    0    0
C 1273.76179122 -75.71028941 -34.76889219     2    984   988   989   990
H 1274.31383340 -77.63484429 -34.08501933     6    987    0    0    0
H 1272.73399414 -76.05823595 -36.55789606     6    987    0    0    0
C 1275.89303562 -73.66977962 -35.39803224     2    987   991   992   993
H 1274.83343383 -72.04454278 -36.02223730     6    990    0    0    0
H 1276.77338899 -72.94254552 -33.67333155     6    990    0    0    0
C 1278.17700954 -74.38019393 -37.16352869     2    990   994   995   996
H 1279.52134631 -75.70516228 -36.34014168     6    993    0    0    0
H 1277.84391320 -75.22864488 -39.09199596     6    993    0    0    0
C 1279.68292525 -72.13712870 -38.08207220     1    993   997   998   999
H 1278.57574342 -70.48856536 -38.37288405     6    996    0    0    0
H 1280.68001498 -72.43047432 -39.84497137     6    996    0    0    0
H 1281.15362237 -71.52054311 -36.73541736     6    996    0    0    0
H 1239.77917130 -82.19237668 -25.83596297     6     1001    0    0    0 
C 1241.51450023 -81.19402011 -25.58529856     1     1000    1002    1003    1004
H 1241.24959951 -79.99379716 -23.83031400     6     1001    0    0    0
H 1242.89563255 -82.52476535 -25.17510321     6     1001    0    0    0
C 1241.72494160 -79.69375258 -28.02311361     2     1001    1005    1006    1007
H 1240.81102894 -80.77064376 -29.49833941     6     1004    0    0    0
H 1240.95993844 -77.92086464 -27.77615860     6     1004    0    0    0
C 1244.35066051 -79.53681394 -29.12634224     2     1004    1008   1009   1010
H 1245.58052339 -78.72402177 -27.60695872     6     1007    0    0    0
H 1245.21679130 -81.38624502 -29.58086768     6     1007    0    0    0
C 1244.13528777 -77.79871684 -31.53824448     2     1007   1011   1012   1013
H 1243.15617702 -78.53420047 -33.08090698     6    1010    0    0    0
H 1242.82813844 -76.18704778 -31.21807133     6    1010    0    0    0
C 1246.82953506 -76.81728958 -32.35180484     2    1010   1014   1015   1016
H 1247.52103160 -75.08391629 -31.33073837     6    1013    0    0    0
H 1248.09986116 -78.32665151 -31.71614060     6    1013    0    0    0
C 1247.26614166 -76.44553068 -35.14304992     2    1013   1017   1018   1019
H 1246.82969761 -78.15205259 -36.23881791     6    1016    0    0    0
H 1246.01867810 -75.02947189 -35.95986013     6    1016    0    0    0
C 1249.98550152 -75.49593939 -35.76467777     2    1016   1020   1021   1022
H 1250.38996588 -73.77819738 -34.71398037     6    1019    0    0    0
H 1251.26262916 -77.01988367 -35.00461240     6    1019    0    0    0
C 1250.52331355 -75.13128985 -38.64474590     2    1019   1023   1024   1025
H 1250.12463057 -76.85224134 -39.67583379     6    1022    0    0    0
H 1249.29363153 -73.61501068 -39.36997975     6    1022    0    0    0
C 1253.35328283 -74.62691489 -39.23109465     2    1022   1026   1027   1028
H 1253.54889704 -72.58226119 -38.69501747     6    1025    0    0    0
H 1254.54216477 -75.90927874 -38.28182111     6    1025    0    0    0
C 1253.90549732 -74.96506147 -42.03300427     2    1025   1029   1030   1031
H 1253.28633564 -76.95269886 -42.80642088     6    1028    0    0    0
H 1252.93028050 -73.70284363 -43.27665766     6    1028    0    0    0
C 1256.67114248 -74.10036865 -42.66854770     2    1028   1032   1033   1034
H 1256.93072909 -72.06154643 -42.57784428     6    1031    0    0    0
H 1257.86470855 -75.19160409 -41.40701337     6    1031    0    0    0
C 1257.62771544 -74.76361511 -45.26994908     1    1031   1035   1036   1037
H 1259.62990816 -74.37288713 -45.54891334     6    1034    0    0    0
H 1256.58255504 -74.06700371 -46.83907851     6    1034    0    0    0
H 1257.30703561 -76.80398920 -45.58298898     6    1034    0    0    0
H 1266.22017050 -57.79792524 -6.07252041     6     1039    0    0    0 
C 1265.69285796 -57.77327781 -8.06699050     1     1038    1040    1041    1042
H 1267.02162673 -58.85902793 -9.29452647     6     1039    0    0    0
H 1263.75086198 -58.47711425 -8.12883378     6     1039    0    0    0
C 1265.54356793 -55.02792216 -9.24789965     2     1039    1043    1044    1045
[...]
 1803      H    1280.6732447700   -39.4453586300   -28.2981870900
 1804      H    1281.4201960500   -41.7352134000   -26.0962838200
 1805      C    1280.5916920800   -38.1893320100   -24.2830258500
 1806      H    1280.9479275200   -39.3911236400   -22.5620101500
 1807      H    1281.7015285200   -36.3928028400   -23.8447845700
 1808      C    1277.8566395900   -37.4702895400   -24.5883222600
 1809      H    1277.3057706500   -36.1734317400   -23.0637477500
 1810      H    1277.6828574700   -36.4278953500   -26.3667197000
 1811      C    1275.9956981200   -39.7533369700   -24.4337639300
 1812      H    1276.4003040000   -41.3908858200   -25.5020678200
 1813      H    1276.1386001400   -40.2107239900   -22.4945870500
 1814      C    1273.2970964000   -38.8333464700   -24.8502555800
 1815      H    1272.9310747100   -37.3021976200   -23.4317852800
 1816      H    1272.9308263300   -37.8925715500   -26.5951834600
 1817      C    1271.4104722500   -40.9872311200   -24.5547176700
 1818      H    1271.5591863100   -42.6126337400   -25.7257477900
 1819      H    1271.7945499900   -41.8229052600   -22.6716200600
 1820      C    1268.6842313100   -39.9883979400   -24.7283701500
 1821      H    1268.2493485000   -39.0962986800   -23.0384373600
 1822      H    1268.3028983000   -38.8175950500   -26.3940435200
 1823      C    1266.8463687800   -42.1140796400   -24.9969834900
 1824      H    1267.0856906400   -43.3738198600   -26.6328657000
 1825      H    1267.1977778700   -43.2647169000   -23.3614446100
 1826      C    1264.1401562000   -41.2296691900   -24.6819680200
 1827      H    1264.0668724200   -40.3845627000   -22.7578486900
 1828      H    1263.6981514900   -39.7543874000   -26.1934866700
 1829      C    1262.2415602500   -43.4394747500   -25.2445495600
 1830      H    1262.1755331400   -43.8809963200   -27.2826284700
 1831      H    1262.8841780400   -45.2177177700   -24.3548672400
 1832      C    1259.5493125700   -42.8252525700   -24.3358314900
 1833      H    1258.4683065100   -44.6355914600   -24.1382964400
 1834      H    1258.4377494900   -41.6187005600   -25.6459614900
 1835      H    1259.6573083900   -42.0455659100   -22.4383767000
 1836      H    1265.8331004700   -51.7616698000   -31.7508660600
 1837      C    1265.9356702200   -50.2306494900   -30.3469278200
 1838      H    1264.2732611100   -48.9587313800   -30.5093867300
 1839      H    1266.0585600400   -51.0570742700   -28.4969185900
 1840      C    1268.4032233800   -48.5937788800   -30.6134780500
 1841      H    1268.3382369700   -47.3642316900   -28.9810623900
 1842      H    1270.1016946800   -49.6457011900   -30.8312720200
 1843      C    1268.0928115700   -46.7814224300   -32.8799385500
 1844      H    1267.7448732200   -47.9486097900   -34.6137985400
 1845      H    1266.4004177300   -45.7143667400   -32.8505828900
 1846      C    1270.3350163000   -44.9794913000   -33.3612369100
 1847      H    1271.7373522700   -46.3688857300   -34.0641958600
 1848      H    1270.2338400200   -43.7240421100   -34.8938422100
 1849      C    1271.2173274500   -43.7674081900   -30.9012372300
 1850      H    1269.7053606100   -43.4524608400   -29.6149044500
 1851      H    1272.3212967600   -45.0043607700   -29.7773895900
 1852      C    1272.8413064300   -41.4986004200   -31.3393549200
 1853      H    1272.2033676400   -40.0342502400   -32.5242549800
 1854      H    1272.7594581900   -40.7326096900   -29.4020334700
 1855      C    1275.4274507000   -42.1315108500   -32.2252632400
 1856      H    1276.4458328800   -43.0986470700   -30.5841866600
 1857      H    1275.6185103100   -43.2908120700   -33.9138517200
 1858      C    1277.2190012700   -39.8736051300   -32.4596304600
 1859      H    1276.5387848800   -38.5596564300   -33.9069539800
 1860      H    1277.3545057300   -38.7403241200   -30.6291075100
 1861      C    1279.8574785800   -40.7449072100   -33.0525337500
 1862      H    1280.6823041400   -41.9888554300   -31.5725240900
 1863      H    1279.7481275400   -41.9571948800   -34.7127805400
 1864      C    1281.5511657500   -38.4934125600   -33.6003626100
 1865      H    1280.5228668600   -37.3360077900   -35.1338683500
 1866      H    1281.4990752600   -37.2515669600   -31.8710287800
 1867      C    1284.3064298200   -39.1090030500   -34.4773494900
 1868      H    1285.2052596800   -40.5931661400   -33.4495643600
 1869      H    1284.2923379900   -39.5974555500   -36.4258265600
 1870      C    1286.0361447200   -36.8005238500   -33.9734781300
 1871      H    1288.0041309800   -37.2645704900   -34.1540432400
 1872      H    1285.9606035000   -36.2576026600   -31.9642912200
 1873      H    1285.8876533300   -35.1680952900   -35.1635677100
 1874      H    1291.6999725700   -76.1670219900   -32.3806627200
 1875      C    1291.2554996500   -74.1488394600   -32.2637927100
 1876      H    1292.1001793000   -73.5995307200   -30.5320055100
 1877      H    1292.4582757300   -73.0839470200   -33.6510280800
 1878      C    1288.4220048300   -73.8378178200   -32.1634658900
 1879      H    1287.6082489500   -74.7272668300   -33.9799962000
 1880      H    1287.7655918300   -74.8825310800   -30.6644523700
 1881      C    1287.3933170600   -71.0574608600   -32.2223227300
 1882      H    1288.6830358700   -70.0071861400   -31.0806668700
 1883      H    1287.3478716100   -70.1537379600   -34.0787821400
 1884      C    1284.8060846200   -70.9995920700   -31.1240888200
 1885      H    1283.6265041300   -72.0463432000   -32.4872583200
 1886      H    1284.7399826100   -72.1095747200   -29.4016922300
 1887      C    1283.7532687800   -68.5185805600   -30.3744180400
 1888      H    1285.0274015700   -67.6945114700   -28.9675188800
 1889      H    1283.7282460200   -67.4623614800   -32.1802211300
 1890      C    1280.9862220400   -68.4088189100   -29.6818882300
 1891      H    1279.9074043000   -69.4309097200   -31.0864533200
 1892      H    1280.7071479900   -69.5853533800   -27.9094236600
 1893      C    1279.9757487700   -65.5987218200   -29.3313445200
 1894      H    1280.9830346200   -64.5575823800   -27.8320325400
 1895      H    1280.4556893400   -64.5550314100   -31.1153320500
 1896      C    1277.1570414200   -65.3833088900   -28.8864429700
 1897      H    1276.6041169700   -63.4295427700   -28.7797957900
 1898      H    1276.0912727300   -66.3373307900   -30.4424268100
 1899      C    1276.0893998700   -66.6007304700   -26.5365652000
 1900      H    1276.6438939700   -68.6560620400   -26.3574242900
 1901      H    1276.6439076300   -65.5722815800   -24.8322487800
 1902      C    1273.1386764600   -66.7976889800   -26.3392580100
 1903      H    1272.4827936600   -64.8849685900   -26.6925212400
 1904      H    1272.3666697500   -67.8216245500   -27.9757478300
 1905      C    1272.1188070600   -67.5448663300   -23.8607850500
 1906      H    1272.8261082500   -69.3810536600   -23.3766614300
 1907      H    1272.6174468500   -66.4226669000   -22.3026500600
 1908      C    1269.2313956700   -67.8183915800   -23.8332334900
 1909      H    1268.3495892900   -68.7286499600   -25.3846556200
 1910      H    1268.4379064800   -65.9654783400   -24.1308412800
 1911      H    1268.3051157100   -68.8400569600   -22.3062246400
 ----------------------------------------------------------------
 Nuclear Repulsion Energy =           0.00000000 hartrees
 There are     2498 alpha and     2498 beta electrons

 Total QAlloc Memory Limit   2000 MB
 Mega-Array Size       204 MB
 MEM_STATIC part       192 MB
   **** Step 1: MM calculation on the entire system **** 
 OPLSAA force field loaded.
Reading user-defined FF parameters...
 Reading user defined atom types.
 Found 3 user defined AtomTypes
finished.
Determining angles, torsions, etc. from user defined input
Determining VDW/Coulomb pairs... (useList = 0)

 Time req'd to get MM system information: 0.1 s (CPU) 0.3 s (wall)

 ------ MM Energies ------
   Ebond:           562.205205298882
   Eangle:          905.096458211558
   EUreyBrad:         0.000000000000
   Eimptors:          0.000000000000
   Etorsion:        240.673237140585
   Evdw:        1073195.904814240057
   Ecoulomb:        183.563718487633
   Etot:        1075087.443433378823 Kcal/mol (   1713.260903807743 hartree)
 -------------------------
 Time req'd to calc MM energy: 0.1 s (CPU) 0.1 s (wall)
 OPLSAA force field loaded.
Reading user-defined FF parameters...
 Reading user defined atom types.
 Found 3 user defined AtomTypes
finished.
 Time req'd to get MM system information: 0.0 s (CPU) 0.0 s (wall)
 Time req'd to calc MM gradient: 0.2 s (CPU) 0.2 s (wall)
   **** Step 2: MM calculation on the model system **** 
 Reading user defined atom types.
 Found 3 user defined AtomTypes
 ----------------------------------------------------------------
             Standard Nuclear Orientation (Bohr)
    I     Atom           X                Y                Z
 ----------------------------------------------------------------
    1      Fe   1268.8343968900   -59.5174850800   -28.7152842900
    2      C    1267.4552427900   -62.6978868300   -28.7484202500
    3      C    1270.3301074100   -56.4250746600   -28.9191252200
    4      C    1268.7553493000   -59.4296164500   -32.0803898300
    5      C    1265.9065105800   -57.8537149100   -27.7158387600
    6      C    1270.9791162100   -60.1252555500   -26.1955431300
    7      O    1266.4220502600   -64.5282394000   -29.0571584700
    8      O    1271.5816466600   -54.5599223600   -28.9878041500
    9      O    1268.4311930600   -59.6008949700   -34.3330566600
   10      O    1264.4283889400   -56.2924477500   -27.0876304100
   11      O    1272.4174839700   -60.5507335000   -24.5960478000
 ----------------------------------------------------------------
 Nuclear Repulsion Energy =         798.17805362 hartrees
 There are       48 alpha and       48 beta electrons
 OPLSAA force field loaded.
Reading user-defined FF parameters...
 Reading user defined atom types.
 Found 3 user defined AtomTypes
finished.
Determining VDW/Coulomb pairs... (useList = 0)

 No MM bonds in system. Return all possible pairs.
 Time req'd to get MM system information: 0.0 s (CPU) 0.0 s (wall)

 ------ MM Energies ------
   Ebond:             0.000000000000
   Eangle:            0.000000000000
   EUreyBrad:         0.000000000000
   Eimptors:          0.000000000000
   Etorsion:          0.000000000000
   Evdw:        1073622.424889789196
   Ecoulomb:         -6.444783712337
   Etot:        1073615.980106076924 Kcal/mol (   1710.915977722473 hartree)
 -------------------------
 Eold: 1713.2609038 mm_energy: 1710.9159777 Enew:    2.3449261
 Time req'd to calc MM energy: 0.0 s (CPU) 0.0 s (wall)
 OPLSAA force field loaded.
Reading user-defined FF parameters...
 Reading user defined atom types.
 Found 3 user defined AtomTypes
finished.
Determining VDW/Coulomb pairs... (useList = 0)

 No MM bonds in system. Return all possible pairs.
 Time req'd to get MM system information: 0.0 s (CPU) 0.0 s (wall)
 Number of fixed atoms: 0
 Time req'd to calc MM gradient: 0.0 s (CPU) 0.0 s (wall)
   **** Step 3: QM calculation on the model system **** 
 Requested basis set is def2-mSVP
 There are 80 shells and 174 basis functions

                       Distance Matrix (Bohrs)
             Fe(  1)   C (  2)   C (  3)   C (  4)   C (  5)   C (  6)
   C (  2)  3.466716
   C (  3)  3.441178  6.902330
   C (  4)  3.367181  4.844986  4.636888
   C (  5)  3.512768  5.189489  4.801783  5.445058
   C (  6)  3.364268  5.055027  4.640092  6.329334  5.762163
   O (  7)  5.571710  2.124381  8.997402  6.370257  6.827459  6.952838
   O (  8)  5.674423  9.127485  2.247189  6.423859  6.683871  6.255613
   O (  9)  5.632841  6.460031  6.557619  2.282306  7.294809  8.543184
   O ( 10)  5.697634  7.276656  6.180796  7.313827  2.239876  7.641876
   O ( 11)  5.556458  6.817353  6.329866  8.407349  7.707125  2.192788
             O (  7)   O (  8)   O (  9)   O ( 10)
   O (  8) 11.224687
   O (  9)  7.493362  7.994278
   O ( 10)  8.699540  7.601408  8.914284
   O ( 11)  8.465653  7.475023 10.564187  9.389708

 A cutoff of  1.0D-11 yielded   2485 shell pairs
 There are     12821 function pairs (     14679 Cartesian)
 Smallest overlap matrix eigenvalue = 2.62E-03
 Guess MOs from SCF MO coefficient file
 Reading MOs from coefficient file
 Reading MOs from coefficient file
 A restricted Kohn-Sham SCF calculation will be
 performed using Pulay DIIS extrapolation
 Exchange:  B88      Correlation:  P86
 Using SG-1 standard quadrature grid
 SCF converges when DIIS error is below 1.0E-08
 Using Q-Chem read-in guess as SCF_GUESS READ specified.

 using 2 threads for integral computing
 -------------------------------------------------------
 OpenMP Integral computing Module                
 Release: version 1.0, May 2013, Q-Chem Inc. Pittsburgh 
 -------------------------------------------------------
 ---------------------------------------
  Cycle       Energy         DIIS Error
 ---------------------------------------
    1   -1830.5083717114      1.76E-09
    2   -1830.5083717114      1.93E-08
    3   -1830.5083717112      2.17E-09 Convergence criterion met
 ---------------------------------------
 SCF time:  CPU 4.06 s  wall 2.26 s
 E(QM + QM/MM):    -1830.5083717112 E(MM):    2.3449261 E(Tot): -1828.163445625926 
 SCF   energy in the final basis set = -1828.16344563
 Total energy in the final basis set = -1828.16344563

 --------------------------------------------------------------

                    Orbital Energies (a.u.)
 --------------------------------------------------------------

 Alpha MOs
 -- Occupied --
******** -29.6362 -25.5954 -25.5856 -25.5779 -18.8944 -18.8908 -18.8813
-18.8725 -18.8690 -10.0662 -10.0524 -10.0508 -10.0441 -10.0376  -3.3206
 -2.1547  -2.1383  -2.1187  -1.0882  -1.0496  -1.0475  -1.0413  -1.0188
 -0.5776  -0.5295  -0.5205  -0.5167  -0.5155  -0.4583  -0.4506  -0.4466
 -0.4381  -0.4338  -0.4300  -0.4256  -0.4169  -0.4105  -0.4063  -0.4010
 -0.4008  -0.3942  -0.3875  -0.3758  -0.2816  -0.2676  -0.2424  -0.2139
 -- Virtual --
 -0.1120  -0.0988  -0.0875  -0.0836  -0.0741  -0.0700  -0.0672  -0.0620
 -0.0518  -0.0473  -0.0218   0.0145   0.1845   0.2107   0.2216   0.2458
  0.2916   0.3114   0.3659   0.3984   0.4045   0.4107   0.4302   0.4400
  0.4490   0.4740   0.4826   0.5044   0.5258   0.5484   0.5580   0.5794
  0.6076   0.6276   0.6383   0.6561   0.7339   0.7591   0.7604   0.7717
  0.7859   0.8126   0.8325   0.8697   0.8776   0.9008   0.9349   0.9554
  0.9626   0.9791   0.9922   1.0053   1.0159   1.0238   1.0358   1.0569
  1.1669   1.2062   1.2490   1.3154   1.3920   1.4018   1.4067   1.4127
  1.4151   1.4218   1.4280   1.4351   1.4491   1.4523   1.4816   1.4963
  1.5179   1.5287   1.5419   1.5643   1.5832   1.6417   1.6581   1.6668
  1.7087   1.8021   1.8266   1.8313   1.8335   1.8417   1.8446   1.8526
  1.8565   1.8606   1.8812   1.8847   1.8948   1.9076   1.9213   1.9536
  2.3516   2.3741   2.3988   2.4230   2.4394   2.4459   2.4672   2.4929
  2.5120   2.5375   2.6142   2.6221   2.6270   2.6782   2.6886   2.8113
  2.8173   2.8441   2.8794   3.0082  13.2546  13.2717  13.3206  13.3337
 13.4254  24.9020  24.9165  24.9363  24.9847  25.0194
 --------------------------------------------------------------

          Ground-State Mulliken Net Atomic Charges

     Atom                 Charge (a.u.)
  ----------------------------------------
      1 Fe                   -0.516426
      2 C                     0.199995
      3 C                     0.221837
      4 C                     0.228453
      5 C                     0.262443
      6 C                     0.194228
      7 O                    -0.067451
      8 O                    -0.123353
      9 O                    -0.156578
     10 O                    -0.125556
     11 O                    -0.117592
  ----------------------------------------
  Sum of atomic charges =     0.000000

 -----------------------------------------------------------------
                    Cartesian Multipole Moments
 -----------------------------------------------------------------
    Charge (ESU x 10^10)
                -0.0000
    Dipole Moment (Debye)
         X      -0.4012777166      Y      -0.2753483229      Z       0.3874072068
       Tot       0.6220328357
    Quadrupole Moments (Debye-Ang)
        XX    -608.4510     XY    -171.5271     YY     -50.9277
        XZ     265.2046     YZ      -8.7269     ZZ     -83.2408
    Octopole Moments (Debye-Ang^2)
       XXX -682875.6765    XXY -104025.9842    XYY  -34631.6592
       YYY    5600.4158    XXZ  182536.2684    XYZ   -6027.0490
       YYZ    1203.9341    XZZ  -55951.0902    YZZ    2572.3203
       ZZZ    3541.5741
    Hexadecapole Moments (Debye-Ang^3)
      XXXX ************   XXXY ************   XXYY ************
      XYYY 3774350.9384   YYYY -368842.6754   XXXZ ************
      XXYZ ************   XYYZ  813767.4217   YYYZ  -99427.3454
      XXZZ ************   XYZZ 1729096.4388   YYZZ  -95494.1887
      XZZZ 2378503.3281   YZZZ -110735.8387   ZZZZ -106105.8739
 -----------------------------------------------------------------
 Calculating MO derivatives via CPSCF
 Full subspace dimension requested for CIS/TDDFT
 MAX_CIS_SUBSPACE fits in available memory
    1     0    36    0.0450729  
    2     0    36    0.0063172  
    3     0    36    0.0007787  
    4     0    36    0.0000727  
    5    33     3    0.0000023  
    6    36     0    0.0000001  Converged
 Time for AOints: 6.4 s (CPU) 3.3 s (wall)
 ------------------------------------------------------------------------------
                     AOints        : Timing summary (seconds)
 ------------------------------------------------------------------------------
     job step          cpu (% of tot)      sys (% of tot)     wall (% of tot)
 ------------------------------------------------------------------------------
  AOints            0.6433E+01 ( 3.6)   0.1100E-04 (11.1)   0.3278E+01 ( 3.6)
 ------------------------------------------------------------------------------
   Grand Totals     0.1791E+03          0.9900E-04          0.9040E+02
 ------------------------------------------------------------------------------
 Polarizability Matrix (a.u.)
            1           2           3
    1 -86.1502446  -6.3282636  -8.6652953
    2  -6.3282636 -98.3901998  -1.0327023
    3  -8.6652952  -1.0327023 -92.8138076
 Derivative of Dipole Moment Matrix (a.u.)
            1           2           3
    1  -1.6647762   0.0530650  -0.0889699
    2  -0.1176850  -1.8817292  -0.0147769
    3  -0.0860132   0.0301776  -1.8729979
    4   0.7414731   0.7992623   0.0141421
    5   0.5582994   2.0463441   0.0808172
    6   0.0572923   0.1815103   0.4288737
    7   0.8274635   0.7421215  -0.0612215
    8   0.7736901   1.6863651  -0.0236026
    9  -0.0549957  -0.0712493   0.3919424
   10   0.3747277  -0.0072180   0.2610787
   11   0.0316282   0.3337344   0.0385866
   12   0.0145889   0.1920996   2.2701065
   13   1.3857487  -0.5984098  -0.3869526
   14  -1.0706114   0.9944014   0.4113887
   15  -0.3859772   0.2322611   0.5611022
   16   1.2506096  -0.3631391   0.9631587
   17  -0.1796249   0.4854829  -0.2738200
   18   0.9919154  -0.4111341   1.5162246
   19  -0.4368079  -0.7080338  -0.0172608
   20  -0.5119754  -1.4078425  -0.0409602
   21  -0.0788588  -0.2012305  -0.1391164
   22  -0.5181452  -0.6570536   0.0422448
   23  -0.5805284  -1.1635229   0.0443640
   24   0.0314231   0.0450786  -0.1458063
   25  -0.1799810   0.0001789  -0.2400361
   26  -0.0007457  -0.1611946  -0.0839094
   27  -0.0287645  -0.0818080  -1.6587899
   28  -0.9263985   0.4777852   0.2915972
   29   0.9129949  -0.7073094  -0.3505049
   30   0.3158807  -0.1998551  -0.3051703
   31  -0.8539138   0.2614415  -0.7777805
   32   0.1845583  -0.2247294   0.2124174
   33  -0.7764910   0.2841499  -1.0463686
 -----------------------------------------
 Net:   0.00000  -0.00000  -0.00000
 -----------------------------------------

 Calculating analytic Hessian of the SCF energy
