                  Welcome to Q-Chem
     A Quantum Leap Into The Future Of Chemistry


 Q-Chem 5.4 (devel), Q-Chem, Inc., Pleasanton, CA (2021)

 E. Epifanovsky,  A. T. B. Gilbert,  Xintian Feng,  Joonho Lee,  Yuezhi Mao,  
 N. Mardirossian,  P. Pokhilko,  A. White,  M. Wormit,  M. P. Coons,  
 A. L. Dempwolff,  Zhengting Gan,  D. Hait,  P. R. Horn,  L. D. Jacobson,  
 I. Kaliman,  J. Kussmann,  A. W. Lange,  Ka Un Lao,  D. S. Levine,  Jie Liu,  
 S. C. McKenzie,  A. F. Morrison,  K. Nanda,  F. Plasser,  D. R. Rehn,  
 M. L. Vidal,  Zhi-Qiang You,  Ying Zhu,  B. Alam,  B. Albrecht,  
 A. Aldossary,  E. Alguire,  J. H. Andersen,  D. Barton,  K. Begam,  A. Behn,  
 Y. A. Bernard,  E. J. Berquist,  H. Burton,  A. Carreras,  K. Carter-Fenk,  
 R. Chakraborty,  A. D. Chien,  K. D. Closser,  V. Cofer-Shabica,  
 S. Dasgupta,  Jia Deng,  M. de Wergifosse,  M. Diedenhofen,  Hainam Do,  
 S. Ehlert,  Po-Tung Fang,  S. Fatehi,  Qingguo Feng,  T. Friedhoff,  
 J. Gayvert,  Qinghui Ge,  G. Gidofalvi,  M. Goldey,  J. Gomes,  
 C. Gonzalez-Espinoza,  S. Gulania,  A. Gunina,  M. W. D. Hanson-Heine,  
 P. H. P. Harbach,  A. W. Hauser,  M. F. Herbst,  M. Hernandez Vera,  
 M. Hodecker,  Z. C. Holden,  S. Houck,  Xunkun Huang,  Kerwin Hui,  
 B. C. Huynh,  M. Ivanov,  Hyunjun Ji,  Hanjie Jiang,  B. Kaduk,  S. Kaehler,  
 K. Khistyaev,  Jaehoon Kim,  P. Klunzinger,  Z. Koczor-Benda,  
 Joong Hoon Koh,  D. Kosenkov,  L. Koulias,  T. Kowalczyk,  C. M. Krauter,  
 K. Kue,  A. Kunitsa,  T. Kus,  A. Landau,  K. V. Lawler,  D. Lefrancois,  
 S. Lehtola,  Rain Li,  Yi-Pei Li,  Jiashu Liang,  M. Liebenthal,  
 Hung-Hsuan Lin,  You-Sheng Lin,  Fenglai Liu,  Kuan-Yu Liu,  
 M. Loipersberger,  A. Luenser,  A. Manjanath,  P. Manohar,  E. Mansoor,  
 S. F. Manzer,  Shan-Ping Mao,  A. V. Marenich,  T. Markovich,  S. Mason,  
 S. A. Maurer,  P. F. McLaughlin,  M. F. S. J. Menger,  J.-M. Mewes,  
 S. A. Mewes,  P. Morgante,  J. W. Mullinax,  K. J. Oosterbaan,  G. Paran,  
 Alexander C. Paul,  Suranjan K. Paul,  F. Pavosevic,  Zheng Pei,  S. Prager,  
 E. I. Proynov,  E. Ramos,  B. Rana,  A. E. Rask,  A. Rettig,  R. M. Richard,  
 F. Rob,  E. Rossomme,  T. Scheele,  M. Scheurer,  M. Schneider,  
 N. Sergueev,  S. M. Sharada,  W. Skomorowski,  D. W. Small,  C. J. Stein,  
 Yu-Chuan Su,  E. J. Sundstrom,  Zhen Tao,  J. Thirman,  T. Tsuchimochi,  
 N. M. Tubman,  S. P. Veccham,  O. Vydrov,  J. Wenzel,  J. Witte,  A. Yamada,  
 Kun Yao,  S. Yeganeh,  S. R. Yost,  A. Zech,  Igor Ying Zhang,  Xing Zhang,  
 Yu Zhang,  D. Zuev,  A. Aspuru-Guzik,  A. T. Bell,  N. A. Besley,  
 K. B. Bravaya,  B. R. Brooks,  D. Casanova,  Jeng-Da Chai,  S. Coriani,  
 C. J. Cramer,  A. E. DePrince, III,  R. A. DiStasio Jr.,  A. Dreuw,  
 B. D. Dunietz,  T. R. Furlani,  W. A. Goddard III,  S. Grimme,  
 S. Hammes-Schiffer,  T. Head-Gordon,  W. J. Hehre,  Chao-Ping Hsu,  
 T.-C. Jagau,  Yousung Jung,  A. Klamt,  Jing Kong,  D. S. Lambrecht,  
 WanZhen Liang,  N. J. Mayhall,  C. W. McCurdy,  J. B. Neaton,  
 C. Ochsenfeld,  J. A. Parkhill,  R. Peverati,  V. A. Rassolov,  Yihan Shao,  
 L. V. Slipchenko,  T. Stauch,  R. P. Steele,  J. E. Subotnik,  
 A. J. W. Thom,  A. Tkatchenko,  D. G. Truhlar,  T. Van Voorhis,  
 T. A. Wesolowski,  K. B. Whaley,  H. L. Woodcock III,  P. M. Zimmerman,  
 S. Faraji,  P. M. W. Gill,  M. Head-Gordon,  J. M. Herbert,  A. I. Krylov

 Additional authors for Version 5.4.1: 
 S. Kotaru,  Shaozhi Li,  Xiangyuan Li,  F. Matz,  A. Molle,  Haisheng Ren,  
 Yingli Su,  Hung-Yi Tsai,  C. Utku,  Fang Wang

 Contributors to earlier versions of Q-Chem not listed above: 
 R. D. Adamson,  B. Austin,  R. Baer,  J. Baker,  G. J. O. Beran,  
 K. Brandhorst,  S. T. Brown,  E. F. C. Byrd,  A. K. Chakraborty,  
 G. K. L. Chan,  Chun-Min Chang,  Yunqing Chen,  C.-L. Cheng,  
 Siu Hung Chien,  D. M. Chipman,  D. L. Crittenden,  H. Dachsel,  
 R. J. Doerksen,  A. D. Dutoi,  R. G. Edgar,  J. Fosso-Tande,  
 L. Fusti-Molnar,  D. Ghosh,  A. Ghysels,  A. Golubeva-Zadorozhnaya,  
 J. Gonthier,  M. S. Gordon,  S. R. Gwaltney,  G. Hawkins,  J. E. Herr,  
 A. Heyden,  S. Hirata,  E. G. Hohenstein,  G. Kedziora,  F. J. Keil,  
 C. Kelley,  Jihan Kim,  R. A. King,  R. Z. Khaliullin,  P. P. Korambath,  
 W. Kurlancheek,  A. Laurent,  A. M. Lee,  M. S. Lee,  S. V. Levchenko,  
 Ching Yeh Lin,  D. Liotard,  E. Livshits,  R. C. Lochan,  I. Lotan,  
 L. A. Martinez-Martinez,  P. E. Maslen,  N. Nair,  D. P. O'Neill,  
 D. Neuhauser,  E. Neuscamman,  C. M. Oana,  R. Olivares-Amaya,  R. Olson,  
 T. M. Perrine,  B. Peters,  P. A. Pieniazek,  A. Prociuk,  Y. M. Rhee,  
 J. Ritchie,  M. A. Rohrdanz,  E. Rosta,  N. J. Russ,  H. F. Schaefer III,  
 M. W. Schmidt,  N. E. Schultz,  S. Sharma,  N. Shenvi,  C. D. Sherrill,  
 A. C. Simmonett,  A. Sodt,  T. Stein,  D. Stuck,  K. S. Thanthiriwatte,  
 V. Vanovschi,  L. Vogt,  Tao Wang,  A. Warshel,  M. A. Watson,  
 C. F. Williams,  Q. Wu,  X. Xu,  Jun Yang,  W. Zhang,  Yan Zhao

 Please cite Q-Chem as follows:
 Y. Shao et al., Mol. Phys. 113, 184-215 (2015)
 DOI: 10.1080/00268976.2014.952696

 Q-Chem 5.4.1 for Intel X86 EM64T Linux

 Parts of Q-Chem use Armadillo 9.900.5 (Nocturnal Misbehaviour).
 http://arma.sourceforge.net/

 Q-Chem begins on Wed Jun 22 08:05:25 2022  

 Host: p09r16n04.grace.hpc.yale.internal
0

     Scratch files written to /home/tl686/scratch60/qchem_dev/scratch/qchem69463//
 Processing $rem in /home/tl686/qchem_dev/qchem/config/preferences:
 Processing $rem in /home/tl686/.qchemrc:
Applying user defined connections for MM calculations

 Checking the input file for inconsistencies... 	...done.

--------------------------------------------------------------
User input:
--------------------------------------------------------------
$molecule
0   1
 Fe 1270.48226110 -59.85383085 -32.02031121    -1  0   0   0   0
C 1268.76648401 -62.81885311 -31.38605172    -2  0   0   0   0 
C 1272.58130055 -57.30040121 -32.35851923    -2  0   0   0   0
C 1270.18049876 -60.20092201 -35.54484812    -2  0   0   0   0
C 1268.04442062 -58.23294973 -30.25016530    -2  0   0   0   0
C 1272.78487404 -61.34723400 -30.75783633    -2  0   0   0   0
O 1267.44925526 -64.44974000 -30.85281373    -3  0   0   0   0
O 1273.84121441 -55.51136224 -32.52401656    -3  0   0   0   0 
O 1269.87050700 -60.66156524 -37.66059126    -3  0   0   0   0
O 1266.53853944 -57.44035526 -28.92594726    -3  0   0   0   0 
O 1275.07819296 -62.58214558 -29.65826389    -3  0   0   0   0
H 1250.08632439 -73.88092238 -50.29345005      6     13    0    0    0 
C 1249.77213731 -75.22649185 -48.89481780     1     12    14    15    16
H 1248.72303307 -76.84933293 -49.66189656     6     13    0    0    0
H 1251.58577530 -75.84874077 -48.33609058     6     13    0    0    0
C 1248.10349597 -74.26564365 -46.65595200     2     13    17    18    19
H 1246.35201041 -73.82459928 -47.42146792     6     16    0    0    0
H 1247.56742498 -75.94283102 -45.51004320     6     16    0    0    0
C 1249.17582061 -71.90085089 -45.34424137     2     16    20   21   22
H 1250.88239304 -72.36558710 -44.23066104     6     19    0    0    0
H 1249.80883421 -70.38570878 -46.55984533     6     19    0    0    0
C 1247.20952522 -70.82195196 -43.38141028     2     19   23   24   25
H 1245.94791302 -69.49690077 -44.28587220     6    22    0    0    0
H 1245.79118366 -72.41949908 -43.05945882     6    22    0    0    0
C 1248.63066601 -69.80909958 -41.14918486     2    22   26   27   28
H 1249.84815451 -71.38140980 -40.62936705     6    25    0    0    0
H 1249.91564149 -68.30031490 -41.92027526     6    25    0    0    0
C 1246.91695824 -68.72787445 -39.05148979     2    25   29   30   31
H 1245.50441058 -67.45221124 -39.80135890     6    28    0    0    0
H 1245.76804641 -70.18637822 -38.27443970     6    28    0    0    0
C 1248.39365801 -67.52929028 -36.97910217     2    28   32   33   34
H 1249.80999057 -68.90881665 -36.37231700     6    31    0    0    0
H 1249.47962099 -65.94251032 -37.79397408     6    31    0    0    0
C 1246.78896943 -66.80208296 -34.64960405     2    31   35   36   37
H 1245.47812745 -65.23670367 -35.01099840     6    34    0    0    0
H 1245.69232499 -68.51407162 -34.17791167     6    34    0    0    0
C 1248.38209053 -65.90054901 -32.36542858     2    34   38   39   40
H 1249.81030686 -67.33265760 -32.26867161     6    37    0    0    0
H 1249.51190223 -64.30721339 -32.82516611     6    37    0    0    0
C 1246.91306618 -65.90064657 -29.91620457     2    37   41   42   43
H 1245.26192022 -64.68572130 -30.23964242     6    40    0    0    0
H 1246.19632111 -67.92504749 -29.78028609     6    40    0    0    0
C 1248.41720613 -65.24428869 -27.55819697     2    40   44   45   46
H 1249.89396507 -66.60811305 -27.30493449     6    43    0    0    0
H 1249.24442714 -63.40576970 -27.99134258     6    43    0    0    0
C 1246.88018100 -65.22671264 -24.89675998     1    43   47   48   49
H 1245.40162573 -63.81311968 -24.73331761     6    46    0    0    0
H 1248.19777053 -64.49491589 -23.52467080     6    46    0    0    0
H 1246.25596594 -67.22975757 -24.53162890     6    46    0    0    0
H 1262.29676385 -61.05910595 -23.12407401     6     51    0    0    0 
C 1263.46195185 -61.07275066 -24.82375659     1     50    52    53    54
H 1263.74022712 -59.09109130 -25.24485730     6     51    0    0    0
H 1265.37517163 -61.85285976 -24.39236160     6     51    0    0    0
C 1262.27023028 -62.30890188 -27.15091135     2     51    55    56    57
H 1263.40112881 -62.18163010 -28.72970712     6     54    0    0    0
H 1262.18514665 -64.30666511 -26.55096630     6     54    0    0    0
C 1259.62654171 -61.30832664 -27.72089826     2     54    58   59   60
H 1259.71438579 -59.18968307 -27.77008292     6     57    0    0    0
H 1258.99749394 -61.84015467 -29.62642094     6     57    0    0    0
C 1257.66222687 -61.81100523 -25.57878733     2     57   61   62   63
H 1257.55937698 -63.78478951 -24.85274730     6    60    0    0    0
H 1258.06469323 -60.67832332 -24.04085225     6    60    0    0    0
C 1255.18665548 -60.77133912 -26.42160000     2    60   64   65   66
H 1255.35403592 -58.71076604 -27.00113324     6    63    0    0    0
H 1254.68332993 -61.52558019 -28.29585873     6    63    0    0    0
C 1253.26769688 -61.70467429 -24.48828141     2    63   67   68   69
H 1251.35107066 -61.25692413 -25.21074716     6    66    0    0    0
H 1253.51673703 -63.65174880 -24.43107887     6    66    0    0    0
C 1253.21472676 -60.66672915 -21.79610288     2    66   70   71   72
H 1255.00858499 -61.02312631 -21.17553721     6    69    0    0    0
H 1252.87281130 -58.59018765 -21.91882330     6    69    0    0    0
C 1251.10771252 -61.66227505 -20.01541603     2    69   73   74   75
H 1249.32891289 -60.80566925 -20.78754195     6    72    0    0    0
H 1250.98594177 -63.68776484 -20.22861203     6    72    0    0    0
C 1251.53286639 -61.10516096 -17.16181166     2    72   76   77   78
H 1253.53674849 -61.15125962 -16.84097476     6    75    0    0    0
H 1251.11736578 -59.14811307 -16.57730067     6    75    0    0    0
C 1250.37302873 -62.87428611 -15.26020404     2    75   79   80   81
H 1248.38841070 -62.90484882 -15.89920885     6    78    0    0    0
H 1250.72801618 -64.94919288 -15.44402780     6    78    0    0    0
C 1250.76722549 -61.97623050 -12.60315747     2    78   82   83   84
H 1252.72938150 -61.52745927 -12.41988324     6    81    0    0    0
H 1249.76636911 -60.17729372 -12.37773467     6    81    0    0    0
C 1250.16742517 -64.09357776 -10.61431512     1    81   85   86   87
H 1250.48895805 -63.26789744 -8.72592268     6    84    0    0    0
H 1251.49466627 -65.69004635 -11.00185441     6    84    0    0    0
H 1248.13631106 -64.65500815 -10.83360902     6    84    0    0    0
H 1237.00406416 -46.26885000 -48.82548427     6     89    0    0    0 
C 1238.06741456 -44.59886105 -48.63970460     1     88    90    91    92
H 1237.66276446 -43.51376916 -50.24629270     6     89    0    0    0
H 1237.32205749 -43.44540789 -46.99060693     6     89    0    0    0
C 1240.79648041 -45.20543427 -48.25970411     2     89    93    94    95
H 1241.59289644 -46.43865624 -49.64641535     6     92    0    0    0
H 1241.94909422 -43.54271915 -48.46139532     6     92    0    0    0
C 1241.35386394 -46.19619389 -45.62821054     2     92    96   97   98
H 1243.40455269 -46.36649255 -45.32458049     6     95    0    0    0
H 1240.67898506 -44.95832443 -44.12979989     6     95    0    0    0
C 1240.18624568 -48.97458414 -45.13059851     2     95   99   100   101
H 1238.43659027 -49.14184679 -46.04804209     6    98    0    0    0
H 1241.73156259 -50.22743657 -45.95144021     6    98    0    0    0
C 1240.06535069 -49.37788278 -42.28100301     2    98   102   103   104
H 1241.92030460 -49.35700478 -41.36699191     6    101    0    0    0
H 1238.87697791 -48.07605813 -41.23244856     6    101    0    0    0
C 1239.03436590 -52.08113115 -41.73191927     2    101   105   106   107
H 1237.24072218 -52.20769786 -42.62394788     6    104    0    0    0
H 1240.37578578 -53.28481770 -42.71700427     6    104    0    0    0
C 1238.85728059 -52.69180398 -38.88975616     2    104   108   109   110
H 1240.71227067 -53.10957278 -38.12459032     6    107    0    0    0
H 1238.17685080 -50.94267069 -38.00732667     6    107    0    0    0
C 1237.26613829 -55.06805987 -38.16803912     2    107   111   112   113
H 1236.13544524 -55.87750711 -39.80145790     6    110    0    0    0
H 1238.48424300 -56.71047516 -37.66715446     6    110    0    0    0
C 1235.40406945 -54.56409496 -36.09367818     2    110   114   115   116
H 1236.46910345 -53.80546509 -34.53925287     6    113    0    0    0
H 1234.18944461 -53.05376067 -36.69549054     6    113    0    0    0
C 1233.70790431 -56.77352073 -35.32353408     2    113   117   118   119
H 1232.57102099 -57.43818170 -36.91512271     6    116    0    0    0
H 1234.90017563 -58.37940071 -34.63902200     6    116    0    0    0
C 1232.05515097 -56.18114240 -32.99060474     2    116   120   121   122
H 1231.36539614 -58.02846367 -32.25270659     6    119    0    0    0
H 1233.25155983 -55.37302010 -31.54086030     6    119    0    0    0
C 1229.67672122 -54.41656210 -33.39282007     1    119   123   124   125
H 1228.07377173 -54.69249858 -32.14600027     6    122    0    0    0
H 1228.83082618 -54.53719643 -35.15445274     6    122    0    0    0
H 1230.03518342 -52.40369780 -32.99931937     6    122    0    0    0
H 1258.96328227 -41.53751882 -49.23543496     6     127    0    0    0 
C 1260.06200918 -42.82967203 -50.38029213     1     126    128    129    130
H 1258.76514390 -43.35782700 -51.76421641     6     127    0    0    0
H 1261.63423030 -41.74402578 -51.23123399     6     127    0    0    0
C 1261.15955841 -45.06541459 -48.79331634     2     127    131    132    133
H 1262.28162001 -44.26276523 -47.32878186     6     130    0    0    0
H 1259.73147215 -46.01202620 -47.84624403     6     130    0    0    0
C 1262.62313086 -46.94546164 -50.50216150     2     130    134   135   136
H 1261.35822564 -47.77005086 -51.82422600     6     133    0    0    0
H 1263.93287623 -45.93607267 -51.68601550     6     133    0    0    0
C 1263.83446369 -48.99991449 -48.84993839     2     133   137   138   139
H 1264.65743489 -48.15252598 -47.07624022     6    136    0    0    0
H 1262.35074457 -50.21960926 -48.27832599     6    136    0    0    0
C 1266.01374275 -50.29315403 -50.20598350     2    136   140   141   142
H 1265.47079744 -51.58719686 -51.61604873     6    139    0    0    0
H 1267.23065696 -48.80267433 -51.05359161     6    139    0    0    0
C 1267.68916494 -51.62926053 -48.29806019     2    139   143   144   145
H 1268.38581495 -50.42096522 -46.88673923     6    142    0    0    0
H 1266.45663562 -52.76001159 -47.10478796     6    142    0    0    0
C 1269.68168441 -53.39496958 -49.51101653     2    142   146   147   148
H 1269.02015847 -54.86275442 -50.90935029     6    145    0    0    0
H 1271.04066212 -52.41612674 -50.60391194     6    145    0    0    0
C 1271.24672231 -54.92057287 -47.48539118     2    145   149   150   151
H 1271.86735129 -53.74210814 -45.96352764     6    148    0    0    0
H 1269.83633609 -56.32540987 -46.67754125     6    148    0    0    0
C 1273.66434253 -56.23790774 -48.32612382     2    148   152   153   154
H 1273.37584325 -56.98388470 -50.20202718     6    151    0    0    0
H 1274.95404052 -54.60484807 -48.54038894     6    151    0    0    0
C 1274.82896449 -58.16747095 -46.51747062     2    151   155   156   157
H 1276.59649917 -58.60489526 -47.46594229     6    154    0    0    0
H 1275.13420684 -57.35072302 -44.54506937     6    154    0    0    0
C 1273.26106375 -60.50428955 -46.21522679     2    154   158   159   160
H 1271.39614394 -59.91965667 -45.60804455     6    157    0    0    0
H 1273.02825572 -61.35467808 -48.00303031     6    157    0    0    0
C 1274.93279968 -62.10459847 -44.49079584     1    157   161   162   163
H 1274.10712153 -63.97420844 -44.32153678     6    160    0    0    0
H 1275.14848671 -61.36417570 -42.58305586     6    160    0    0    0
H 1276.85615770 -62.17450706 -45.14942797     6    160    0    0    0
H 1239.68830808 -32.45243334 -36.65398387     6     165    0    0    0 
C 1241.60707356 -32.65766709 -37.10807760     1     164    166    167    168
H 1242.32751473 -32.34606458 -35.22739532     6     165    0    0    0
H 1241.89720131 -34.56474909 -37.58370775     6     165    0    0    0
C 1242.70366516 -30.94521211 -39.14040598     2     165    169    170    171
H 1242.52769471 -31.89716696 -40.94967542     6     168    0    0    0
H 1241.47615146 -29.28500518 -39.27505151     6     168    0    0    0
C 1245.33038710 -29.91116107 -38.57016009     2     168    172   173   174
H 1245.15363286 -28.73590073 -37.06393273     6     171    0    0    0
H 1246.43521970 -31.48188865 -37.87723986     6     171    0    0    0
C 1246.65518474 -28.69430322 -40.86974409     2     171   175   176   177
H 1246.22042122 -29.82671909 -42.65657455     6    174    0    0    0
H 1245.76953721 -26.94411731 -41.20602440     6    174    0    0    0
C 1249.61244685 -28.22786406 -40.54927182     2    174   178   179   180
H 1250.22715706 -27.27739326 -38.84128956     6    177    0    0    0
H 1250.27017192 -30.16897631 -40.43812921     6    177    0    0    0
C 1250.92517655 -26.88425842 -42.78938498     2    177   181   182   183
H 1250.60622280 -28.00341423 -44.52437547     6    180    0    0    0
H 1249.99967756 -24.99551524 -43.10524226     6    180    0    0    0
C 1253.78567556 -26.53368146 -42.20032069     2    180   184   185   186
H 1254.26676328 -25.22247916 -40.51670948     6    183    0    0    0
H 1254.64476032 -28.38039963 -42.18872730     6    183    0    0    0
C 1255.16542157 -25.14372443 -44.30308169     2    183   187   188   189
H 1254.12857871 -25.55226378 -46.11043953     6    186    0    0    0
H 1254.84259463 -23.09970893 -43.94059780     6    186    0    0    0
C 1257.99261086 -25.87620040 -44.50056813     2    186   190   191   192
H 1258.92127910 -26.16527475 -42.73554649     6    189    0    0    0
H 1258.00881473 -27.75059628 -45.45134810     6    189    0    0    0
C 1259.54349465 -23.90339520 -46.01462335     2    189   193   194   195
H 1258.74605143 -23.13286149 -47.78284629     6    192    0    0    0
H 1259.80943470 -22.28165982 -44.59658798     6    192    0    0    0
C 1262.08928025 -25.09798388 -47.00348701     2    192   196   197   198
H 1263.38500354 -25.45103187 -45.43581251     6    195    0    0    0
H 1261.75289088 -26.95389418 -47.60075026     6    195    0    0    0
C 1263.11171617 -23.44535257 -49.28069033     1    195   199   200   201
H 1264.68274727 -24.44484533 -50.30488790     6    198    0    0    0
H 1263.75630611 -21.61838541 -48.57575933     6    198    0    0    0
H 1261.66404336 -23.12869791 -50.76313842     6    198    0    0    0
H 1252.46740823 -33.21268841 -33.58439800     6     203    0    0    0 
C 1250.90419764 -31.93962294 -33.61449248     1     202    204    205    206
H 1251.26589637 -30.09258516 -32.71936783     6     203    0    0    0
H 1251.12565667 -31.71827081 -35.68842282     6     203    0    0    0
C 1248.35764872 -33.00016262 -32.58360416     2     203    207    208    209
H 1246.83655834 -31.66063615 -32.83148269     6     206    0    0    0
H 1247.77964637 -34.88503416 -33.33785206     6     206    0    0    0
C 1248.80928535 -33.58889253 -29.74001895     2     206    210   211   212
H 1247.24176296 -34.37167942 -28.75973438     6     209    0    0    0
H 1250.33123181 -34.76134534 -29.42713366     6     209    0    0    0
C 1249.42622174 -31.20059588 -28.18738573     2     209   213   214   215
H 1251.22814435 -30.45350784 -28.73571207     6    212    0    0    0
H 1248.09437496 -29.69343872 -28.33134688     6    212    0    0    0
C 1249.74256832 -31.74895070 -25.47641005     2    212   216   217   218
H 1247.92298135 -32.56621891 -24.93628144     6    215    0    0    0
H 1251.20860328 -33.04099188 -25.32141557     6    215    0    0    0
C 1250.52233584 -29.56194032 -23.63785485     2    215   219   220   221
H 1252.40171088 -28.73906573 -24.11932660     6    218    0    0    0
H 1249.16886117 -28.06405186 -23.98227282     6    218    0    0    0
C 1250.08829177 -30.41912159 -20.84232581     2    218   222   223   224
H 1248.16078510 -29.83093055 -20.27157017     6    221    0    0    0
H 1249.80211108 -32.34464857 -20.51383282     6    221    0    0    0
C 1251.93957867 -29.09550605 -19.20026585     2    221   225   226   227
H 1253.65662430 -30.11651209 -19.33616135     6    224    0    0    0
H 1252.04142047 -27.18360212 -19.76648564     6    224    0    0    0
C 1251.13906273 -29.06470626 -16.33835412     2    224   228   229   230
H 1249.22204071 -28.27849525 -16.06858462     6    227    0    0    0
H 1251.14234065 -30.99960326 -15.75807793     6    227    0    0    0
C 1253.14288936 -27.76648672 -14.53348663     2    227   231   232   233
H 1254.89067571 -28.77588700 -14.40461998     6    230    0    0    0
H 1253.47824836 -25.90919411 -15.22301596     6    230    0    0    0
C 1252.16031611 -27.42590444 -11.80007732     2    230   234   235   236
H 1250.50608030 -26.34785011 -11.51902809     6    233    0    0    0
H 1252.02220929 -29.17032187 -10.78631475     6    233    0    0    0
C 1254.25378458 -26.14932409 -10.32876745     1    233   237   238   239
H 1254.43724515 -24.22332371 -11.12276866     6    236    0    0    0
H 1256.01659601 -27.14595290 -10.58415226     6    236    0    0    0
H 1254.14864214 -26.00498406 -8.25927329     6    236    0    0    0
H 1241.49000331 -59.96631220 -13.43976130     6     241    0    0    0 
C 1240.14186809 -59.07268113 -14.65815927     1     240    242    243    244
H 1238.43659441 -58.60325509 -13.57760256     6     241    0    0    0
H 1240.85973394 -57.28472393 -15.34877592     6     241    0    0    0
C 1239.35991537 -60.78011464 -16.85600559     2     241    245    246    247
H 1237.79101558 -61.93862106 -16.16330474     6     244    0    0    0
H 1238.33231903 -59.71229574 -18.21752533     6     244    0    0    0
C 1241.66112472 -62.31320529 -17.91446400     2     244    248   249   250
H 1241.24011223 -62.81362741 -19.78307517     6     247    0    0    0
H 1243.21460806 -61.03146779 -18.24823051     6     247    0    0    0
C 1242.76636754 -64.43647157 -16.15490864     2     247   251   252   253
H 1244.37563823 -65.20364326 -17.18054684     6    250    0    0    0
H 1243.34914867 -63.63504049 -14.24265058     6    250    0    0    0
C 1240.93299480 -66.70424206 -15.53011967     2    250   254   255   256
H 1239.66762274 -65.95986151 -14.20219126     6    253    0    0    0
H 1240.11356711 -67.54176475 -17.21336814     6    253    0    0    0
C 1242.40410981 -69.03969798 -14.26727781     2    253   257   258   259
H 1241.12910428 -70.63257058 -14.41286248     6    256    0    0    0
H 1244.27867701 -69.65133877 -15.20837220     6    256    0    0    0
C 1242.77936226 -68.72755424 -11.46074236     2    256   260   261   262
H 1243.76993261 -66.91914230 -11.22273494     6    259    0    0    0
H 1240.90572364 -68.60654691 -10.41080663     6    259    0    0    0
C 1244.42070332 -70.82665434 -10.26504053     2    259   263   264   265
H 1243.36835110 -72.69111693 -10.54723449     6    262    0    0    0
H 1246.44846210 -71.00787923 -10.92122179     6    262    0    0    0
C 1244.89188088 -70.54062109 -7.48770873     2    262   266   267   268
H 1245.98998013 -68.73529041 -7.14409411     6    265    0    0    0
H 1243.20465022 -70.32194428 -6.58667346     6    265    0    0    0
C 1246.13136085 -72.90082083 -6.26322542     2    265   269   270   271
H 1245.39228079 -74.61972125 -7.28258526     6    268    0    0    0
H 1248.21419446 -72.63769092 -6.46746474     6    268    0    0    0
C 1245.57729590 -73.18622994 -3.45911852     2    268   272   273   274
H 1246.02003309 -71.41118357 -2.48128103     6    271    0    0    0
H 1243.49386314 -73.42081447 -3.00208210     6    271    0    0    0
C 1247.04943540 -75.49355538 -2.31876296     1    271   275   276   277
H 1246.43068251 -77.37103028 -3.20516545     6    274    0    0    0
H 1246.26695407 -75.64318680 -0.26411072     6    274    0    0    0
H 1249.18068018 -75.30870049 -2.07526952     6    274    0    0    0
H 1236.37453492 -35.29346294 -30.90502822     6     279    0    0    0 
C 1236.81372114 -36.52701668 -29.46722488     1     278    280    281    282
H 1235.87765735 -35.90572968 -27.73373686     6     279    0    0    0
H 1235.84228008 -38.37138951 -29.84432851     6     279    0    0    0
C 1239.59886261 -36.73957165 -28.91982864     2     279    283    284    285
H 1240.62061574 -36.87141753 -30.76373688     6     282    0    0    0
H 1240.25361567 -34.85672043 -28.11342551     6     282    0    0    0
C 1240.11811870 -38.91172250 -27.21467843     2     282    286   287   288
H 1239.31470817 -38.94609846 -25.32017546     6     285    0    0    0
H 1239.39492888 -40.61015912 -28.07997285     6     285    0    0    0
C 1243.05784484 -39.12243092 -26.97593858     2     285   289   290   291
H 1243.88599589 -39.09229413 -28.83054684     6    288    0    0    0
H 1243.68722710 -37.33138998 -26.09825968     6    288    0    0    0
C 1244.05121496 -41.34283763 -25.24090914     2    288   292   293   294
H 1243.32541770 -43.23995090 -25.74476229     6    291    0    0    0
H 1246.03480093 -41.28378770 -25.71237031     6    291    0    0    0
C 1243.56460136 -40.55357785 -22.56825424     2    291   295   296   297
H 1244.74980675 -39.07760428 -21.95286070     6    294    0    0    0
H 1241.70765222 -39.92042668 -22.37922624     6    294    0    0    0
C 1243.99873330 -42.83054440 -20.87735341     2    294   298   299   300
H 1242.43423623 -44.12707980 -21.08082279     6    297    0    0    0
H 1245.80907827 -43.73392504 -21.53335593     6    297    0    0    0
C 1244.50981586 -42.16084662 -18.12031520     2    297   301   302   303
H 1245.90088317 -40.64163598 -18.14434639     6    300    0    0    0
H 1243.06370129 -41.28386182 -17.05791344     6    300    0    0    0
C 1245.64797741 -44.33305272 -16.60900732     2    300   304   305   306
H 1244.49919692 -46.06594555 -17.11700150     6    303    0    0    0
H 1247.65748180 -44.72581519 -17.18332790     6    303    0    0    0
C 1245.72100497 -43.98137518 -13.70038076     2    303   307   308   309
H 1246.44384528 -42.22911725 -13.03124907     6    306    0    0    0
H 1243.83366575 -44.06288900 -13.13139061     6    306    0    0    0
C 1246.89086829 -46.16942737 -12.12530313     2    306   310   311   312
H 1246.30221175 -47.88084554 -13.05048824     6    309    0    0    0
H 1248.85709166 -46.00812769 -12.09110354     6    309    0    0    0
C 1246.14217878 -46.17536106 -9.27215722     1    309   313   314   315
H 1244.02483647 -46.54015280 -9.15215050     6    312    0    0    0
H 1246.51839116 -44.33714499 -8.39346117     6    312    0    0    0
H 1247.17928135 -47.57158458 -8.11579939     6    312    0    0    0
H 1252.55258195 -53.29334088 -40.64486102     6     317    0    0    0 
C 1253.65440326 -51.67615824 -41.02183918     1     316    318    319    320
H 1252.67180516 -50.68489139 -42.79201893     6     317    0    0    0
H 1253.50180534 -50.31296837 -39.56358536     6     317    0    0    0
C 1256.41676731 -52.18836951 -41.57249074     2     317    321    322    323
H 1257.40213454 -50.37496972 -41.94039856     6     320    0    0    0
H 1257.46621197 -52.72323050 -39.89341320     6     320    0    0    0
C 1256.90530393 -53.67744299 -43.90420922     2     320    324   325   326
H 1256.37564608 -55.62770809 -43.48701220     6     323    0    0    0
H 1255.62106557 -53.14364642 -45.52437529     6     323    0    0    0
C 1259.64772815 -53.60620483 -44.67260149     2     323   327   328   329
H 1260.21036932 -51.68413034 -45.11156178     6    326    0    0    0
H 1260.72233550 -54.01742104 -42.99590466     6    326    0    0    0
C 1260.26736897 -55.41091653 -46.80066650     2    326   330   331   332
H 1258.91242030 -54.98937558 -48.40946141     6    329    0    0    0
H 1261.94703784 -54.66583028 -47.88305721     6    329    0    0    0
C 1260.58940605 -58.21317926 -46.04165288     2    329   333   334   335
H 1258.97009641 -58.88364613 -44.81998438     6    332    0    0    0
H 1260.56117311 -59.37208922 -47.79069144     6    332    0    0    0
C 1263.13614560 -58.76161907 -44.86181458     2    332   336   337   338
H 1264.71471048 -57.43788397 -45.47915778     6    335    0    0    0
H 1263.22077622 -58.28133196 -42.81988075     6    335    0    0    0
C 1263.98624048 -61.48190598 -45.04524995     2    335   339   340   341
H 1262.26421546 -62.37853540 -44.34435705     6    338    0    0    0
H 1264.16605201 -62.17063035 -47.03293843     6    338    0    0    0
C 1266.08115877 -62.20268018 -43.22734754     2    338   342   343   344
H 1267.72843997 -60.95571111 -43.44067910     6    341    0    0    0
H 1265.45689132 -61.90802690 -41.17590915     6    341    0    0    0
C 1266.99172751 -64.97453669 -43.47127304     2    341   345   346   347
H 1268.46043498 -65.24193343 -41.99167881     6    344    0    0    0
H 1265.34503636 -65.91837958 -42.87672037     6    344    0    0    0
C 1267.96141398 -65.99263985 -45.99294328     2    344   348   349   350
H 1266.60416454 -65.53680195 -47.36368451     6    347    0    0    0
H 1269.75248676 -64.91066885 -46.23682194     6    347    0    0    0
C 1268.37865511 -68.88522520 -46.11552998     1    347   351   352   353
H 1268.93099104 -69.65082171 -47.99222531     6    350    0    0    0
H 1266.58366488 -69.85293975 -46.00883523     6    350    0    0    0
H 1269.30433808 -69.97682783 -44.57643515     6    350    0    0    0
H 1240.47535012 -51.59513105 -23.97390092     6     355    0    0    0 
C 1241.40950030 -51.96353942 -25.90539307     1     354    356    357    358
H 1242.33216678 -53.81656103 -25.83659332     6     355    0    0    0
H 1239.73492695 -52.22782087 -26.99884095     6     355    0    0    0
C 1243.15069998 -49.93981757 -26.92592790     2     355    359    360    361
H 1242.04661934 -48.08992109 -27.04063426     6     358    0    0    0
H 1244.85156304 -49.64225887 -25.75267500     6     358    0    0    0
C 1243.91854061 -50.67677509 -29.65243973     2     358    362   363   364
H 1245.50652377 -52.12542522 -29.62307678     6     361    0    0    0
H 1242.46538032 -51.68334363 -30.60474401     6     361    0    0    0
C 1244.79310341 -48.45932905 -31.30057454     2     361   365   366   367
H 1243.30095769 -47.27835225 -32.03526982     6    364    0    0    0
H 1246.01119816 -47.14797669 -30.44108397     6    364    0    0    0
C 1246.23178833 -49.14174219 -33.68779849     2    364   368   369   370
H 1248.12531162 -50.04841030 -33.36038471     6    367    0    0    0
H 1245.36513184 -50.79629752 -34.57685204     6    367    0    0    0
C 1246.67482718 -46.92608278 -35.49679485     2    367   371   372   373
H 1244.81643018 -46.30875713 -36.25242576     6    370    0    0    0
H 1247.41962609 -45.33605237 -34.25163410     6    370    0    0    0
C 1248.42181304 -47.59863484 -37.70512062     2    370   374   375   376
H 1250.22848641 -47.53761369 -37.10722564     6    373    0    0    0
H 1247.91877536 -49.57003169 -38.49556618     6    373    0    0    0
C 1248.17411144 -45.62532966 -39.81579518     2    373   377   378   379
H 1246.24009190 -45.23355731 -40.31974956     6    376    0    0    0
H 1248.98832627 -43.90724741 -39.12015014     6    376    0    0    0
C 1249.79423460 -46.31836810 -42.19237822     2    376   380   381   382
H 1251.44901371 -47.12476191 -41.47391950     6    379    0    0    0
H 1248.88662182 -47.63669655 -43.34974631     6    379    0    0    0
C 1250.18378810 -44.15384006 -43.93924215     2    379   383   384   385
H 1248.32421122 -43.81476912 -44.94092796     6    382    0    0    0
H 1250.30672935 -42.40439737 -42.78799388     6    382    0    0    0
C 1252.50516207 -44.52156763 -45.64656826     2    382   386   387   388
H 1253.29723326 -42.70730204 -46.29877694     6    385    0    0    0
H 1254.06716690 -45.32372315 -44.58380854     6    385    0    0    0
C 1252.06884134 -46.22213384 -47.96933824     1    385   389   390   391
H 1250.77191334 -45.35673557 -49.38410134     6    388    0    0    0
H 1251.16979210 -48.01793803 -47.43601402     6    388    0    0    0
H 1253.87682272 -46.42314716 -48.79599707     6    388    0    0    0
H 1285.05674752 -81.78611490 -30.70464852     6     393    0    0    0 
C 1283.28877932 -82.90171757 -30.84391674     1     392    394    395    396
H 1283.45144382 -83.61315856 -32.74503457     6     393    0    0    0
H 1283.52633480 -84.37916105 -29.32387905     6     393    0    0    0
C 1280.94921309 -81.39033075 -30.62537734     2     393    397    398    399
H 1280.97120373 -80.18739741 -32.32472202     6     396    0    0    0
H 1279.19992647 -82.68019620 -30.76171976     6     396    0    0    0
C 1281.00127001 -79.62299627 -28.37066508     2     396    400   401   402
H 1281.07592271 -80.88508474 -26.69136696     6     399    0    0    0
H 1282.65763159 -78.45353743 -28.24014332     6     399    0    0    0
C 1278.52671279 -77.97102631 -28.18972239     2     399   403   404   405
H 1278.44323353 -76.55845271 -29.78019746     6    402    0    0    0
H 1276.99349775 -79.33453762 -28.42055192     6    402    0    0    0
C 1278.40103576 -76.41017747 -25.74747968     2    402   406   407   408
H 1279.26743674 -77.52806826 -24.31901250     6    405    0    0    0
H 1279.54059200 -74.62976470 -25.88272687     6    405    0    0    0
C 1275.63473373 -76.02154158 -25.10471851     2    405   409   410   411
H 1274.75553854 -74.63016711 -26.49011001     6    408    0    0    0
H 1274.68283429 -77.78474358 -25.37663169     6    408    0    0    0
C 1275.09454029 -75.02711031 -22.44897035     2    408   412   413   414
H 1275.77363591 -76.20345666 -20.84444673     6    411    0    0    0
H 1276.32553464 -73.37484040 -22.32616039     6    411    0    0    0
C 1272.32065798 -74.41144962 -21.94957417     2    411   415   416   417
H 1271.30174536 -73.60045347 -23.49906165     6    414    0    0    0
H 1271.45226064 -76.14223334 -21.36014608     6    414    0    0    0
C 1272.33002829 -72.78101399 -19.61605080     2    414   418   419   420
H 1273.54609900 -73.80332949 -18.18606349     6    417    0    0    0
H 1273.10116074 -70.91063509 -20.31035963     6    417    0    0    0
C 1269.77515334 -72.05809441 -18.69646017     2    417   421   422   423
H 1268.56265843 -70.88538893 -19.95104459     6    420    0    0    0
H 1268.61812584 -73.85180234 -18.70411371     6    420    0    0    0
C 1269.70521191 -70.91741908 -16.02899402     2    420   424   425   426
H 1267.66382172 -70.70949214 -15.65127243     6    423    0    0    0
H 1270.86755696 -71.85572330 -14.66396686     6    423    0    0    0
C 1270.68135373 -68.09677067 -16.03148406     1    423   427   428   429
H 1270.07833960 -67.17216337 -14.18586035     6    426    0    0    0
H 1270.19211343 -66.86937984 -17.57855634     6    426    0    0    0
H 1272.69309878 -68.17890294 -16.11388134     6    426    0    0    0
H 1253.32531356 -78.27205958 -25.35842847     6     431    0    0    0 
C 1253.84799348 -77.58244692 -27.08283387     1     430    432    433    434
H 1252.22600189 -77.64385917 -28.37847839     6     431    0    0    0
H 1254.02454295 -75.56769173 -26.61884085     6     431    0    0    0
C 1256.17156162 -78.66975347 -28.32156333     2     431    435    436    437
H 1257.68202011 -78.86570002 -26.92465868     6     434    0    0    0
H 1255.81815548 -80.52816051 -28.98108700     6     434    0    0    0
C 1257.41275048 -77.18969842 -30.55337565     2     434    438   439   440
H 1256.29307991 -77.78101586 -32.18041508     6     437    0    0    0
H 1257.37403656 -75.16992069 -30.29505093     6     437    0    0    0
C 1260.21894629 -78.02279360 -31.12304953     2     437   441   442   443
H 1261.40961347 -76.68165774 -32.12180896     6    440    0    0    0
H 1261.07379156 -78.52672961 -29.34238308     6    440    0    0    0
C 1260.47429215 -80.51271768 -32.70720006     2    440   444   445   446
H 1260.06358423 -82.15243293 -31.44657438     6    443    0    0    0
H 1259.00588114 -80.80224338 -34.14934750     6    443    0    0    0
C 1263.20026607 -80.97995784 -33.82747750     2    443   447   448   449
H 1263.68347285 -79.26188703 -35.03997854     6    446    0    0    0
H 1264.52254280 -80.80208675 -32.23986459     6    446    0    0    0
C 1263.83235044 -83.40467740 -35.28429186     2    446   450   451   452
H 1263.21715421 -85.03576490 -34.22054074     6    449    0    0    0
H 1262.82848008 -83.44036860 -37.07716397     6    449    0    0    0
C 1266.67212176 -83.19530282 -36.15899462     2    449   453   454   455
H 1266.99556561 -81.24713609 -36.94692329     6    452    0    0    0
H 1267.86662277 -83.32783524 -34.36389420     6    452    0    0    0
C 1267.38309945 -85.28945131 -37.93912790     2    452   456   457   458
H 1267.62053996 -87.03235226 -36.94206653     6    455    0    0    0
H 1265.75252527 -85.28820246 -39.24340746     6    455    0    0    0
C 1269.81673176 -84.88135157 -39.40901901     2    455   459   460   461
H 1269.78151541 -85.79007952 -41.19513496     6    458    0    0    0
H 1269.92792739 -82.94650799 -40.16077090     6    458    0    0    0
C 1272.14072427 -85.36724329 -37.66257485     2    458   462   463   464
H 1271.99161702 -84.07936532 -36.02583263     6    461    0    0    0
H 1271.80606762 -87.20218185 -36.89177953     6    461    0    0    0
C 1274.77195603 -85.41410185 -39.20356403     1    461   465   466   467
H 1275.54367589 -83.56320713 -39.51939697     6    464    0    0    0
H 1274.56340447 -86.40966065 -40.89636588     6    464    0    0    0
H 1276.18534552 -86.36576049 -38.00917685     6    464    0    0    0
H 1238.76175301 -38.26509438 -39.12428915     6     469    0    0    0 
C 1239.91425852 -39.75049894 -40.23433847     1     468    470    471    472
H 1238.43222310 -40.61311363 -41.19882763     6     469    0    0    0
H 1240.89234794 -38.77034100 -41.83698726     6     469    0    0    0
C 1241.59783255 -41.56136054 -38.78776062     2     469    473    474    475
H 1241.83381139 -43.32560073 -39.88002591     6     472    0    0    0
H 1243.52656700 -40.87648557 -38.65653590     6     472    0    0    0
C 1240.59276863 -42.13433477 -36.05389015     2     472    476   477   478
H 1241.97343711 -42.00071022 -34.53232820     6     475    0    0    0
H 1239.35314743 -40.60068939 -35.64928710     6     475    0    0    0
C 1239.23005845 -44.61073985 -35.74283506     2     475   479   480   481
H 1238.03285189 -44.91108560 -37.41168884     6    478    0    0    0
H 1240.21906006 -46.27608609 -35.71848408     6    478    0    0    0
C 1237.69142557 -44.70912419 -33.24471257     2    478   482   483   484
H 1239.06908199 -44.40036629 -31.74482084     6    481    0    0    0
H 1236.43284231 -43.11105461 -33.18797014     6    481    0    0    0
C 1236.32622296 -47.25618087 -32.85968537     2    481   485   486   487
H 1234.69141051 -47.19430313 -34.18509516     6    484    0    0    0
H 1237.72670162 -48.80709911 -33.41986680     6    484    0    0    0
C 1235.42239189 -47.49447693 -30.11368669     2    484   488   489   490
H 1237.06163043 -47.67799712 -28.84180266     6    487    0    0    0
H 1234.33871107 -45.80911569 -29.38552150     6    487    0    0    0
C 1233.68017391 -49.82219350 -29.73729344     2    487   491   492   493
H 1232.05564339 -49.57939732 -30.96324779     6    490    0    0    0
H 1234.45156759 -51.43448498 -30.64703860     6    490    0    0    0
C 1233.25868346 -50.36376324 -26.89726342     2    490   494   495   496
H 1235.13629888 -50.97630743 -26.19373829     6    493    0    0    0
H 1232.78246082 -48.64487103 -25.99758410     6    493    0    0    0
C 1231.22876583 -52.45359851 -26.49300240     2    493   497   498   499
H 1229.74077549 -52.49446591 -27.82019009     6    496    0    0    0
H 1232.29596538 -54.21466356 -26.72263314     6    496    0    0    0
C 1230.06093344 -52.54779622 -23.79165270     2    496   500   501   502
H 1230.98312905 -54.08600698 -23.03846605     6    499    0    0    0
H 1230.60970721 -50.79021696 -22.83237070     6    499    0    0    0
C 1227.18219766 -52.98962971 -23.42188815     1    499   503   504   505
H 1226.73144936 -52.66746778 -21.40123619     6    502    0    0    0
H 1226.46973526 -54.82831955 -24.01241908     6    502    0    0    0
H 1226.06265544 -51.55273870 -24.40325909     6    502    0    0    0
H 1250.57308279 -80.06209557 -10.59029263     6     507    0    0    0 
C 1251.01285814 -78.06202626 -10.49363764     1     506    508    509    510
H 1249.35204711 -76.90203249 -10.01758197     6     507    0    0    0
H 1252.11051544 -77.84355552 -8.86094872     6     507    0    0    0
C 1252.21173274 -77.07684958 -13.03233761     2     507    511    512    513
H 1250.84883221 -76.62639045 -14.47602068     6     510    0    0    0
H 1253.05612153 -75.22020966 -12.63062025     6     510    0    0    0
C 1254.33447665 -78.89011678 -14.05832413     2     510    514   515   516
H 1256.02084858 -78.93147326 -12.80650708     6     513    0    0    0
H 1253.46400132 -80.77304297 -14.19036399     6     513    0    0    0
C 1255.09489674 -78.16930800 -16.83613350     2     513   517   518   519
H 1253.50400858 -77.92226648 -18.04890579     6    516    0    0    0
H 1256.12841593 -76.33922095 -16.79569158     6    516    0    0    0
C 1256.76715046 -80.12380955 -17.93454616     2    516   520   521   522
H 1258.26720267 -80.43176945 -16.57023861     6    519    0    0    0
H 1255.56549374 -81.66501113 -18.20853657     6    519    0    0    0
C 1257.91100799 -79.51690525 -20.53739493     2    519   523   524   525
H 1256.52962452 -79.89824072 -22.13407771     6    522    0    0    0
H 1258.15274803 -77.51351285 -20.69747248     6    522    0    0    0
C 1260.37010883 -80.82742672 -21.02611010     2    522   526   527   528
H 1261.66461598 -79.72850294 -19.70113193     6    525    0    0    0
H 1260.26667335 -82.82858703 -20.48058023     6    525    0    0    0
C 1261.58536903 -80.59788943 -23.66094153     2    525   529   530   531
H 1260.52111095 -81.78898783 -24.98446821     6    528    0    0    0
H 1261.42748206 -78.58126438 -24.41037986     6    528    0    0    0
C 1264.40853789 -81.60273755 -23.66015100     2    528   532   533   534
H 1265.46237235 -80.74909371 -22.06976946     6    531    0    0    0
H 1264.59064013 -83.64605533 -23.02649733     6    531    0    0    0
C 1265.72637693 -81.06341940 -26.16305868     2    531   535   536   537
H 1264.32178502 -81.27464072 -27.70110773     6    534    0    0    0
H 1266.08000896 -78.99305830 -26.52081125     6    534    0    0    0
C 1268.27361378 -82.56650720 -26.51342738     2    534   538   539   540
H 1269.63204359 -81.50791107 -27.77709344     6    537    0    0    0
H 1269.08697667 -82.85237094 -24.59501379     6    537    0    0    0
C 1267.70421438 -85.13603756 -27.79768796     1    537   541   542   543
H 1269.49668295 -86.16033061 -28.00144260     6    540    0    0    0
H 1266.67924200 -85.04763188 -29.63263504     6    540    0    0    0
H 1266.68333405 -86.37815238 -26.43306314     6    540    0    0    0
H 1270.32814373 -67.70062885 -36.03362741     6     545    0    0    0 
C 1272.22049594 -67.57969182 -35.42757658     1     544    546    547    548
H 1272.37235698 -65.92733598 -34.21727746     6     545    0    0    0
H 1272.56216050 -69.17965586 -34.13505929     6     545    0    0    0
C 1274.09695231 -67.50264386 -37.55317275     2     545    549    550    551
H 1274.13392004 -69.39118404 -38.33415852     6     548    0    0    0
H 1273.62495785 -66.27366757 -39.13188214     6     548    0    0    0
C 1276.56760050 -66.62735843 -36.32198956     2     548    552   553   554
H 1276.05454396 -64.80553877 -35.25549965     6     551    0    0    0
H 1277.09630109 -67.95280878 -34.88893865     6     551    0    0    0
C 1278.71456783 -66.04783191 -38.18441873     2     551   555   556   557
H 1279.71972925 -67.84439253 -38.55865658     6    554    0    0    0
H 1277.69173595 -65.21202148 -39.73663598     6    554    0    0    0
C 1280.57222923 -63.96619071 -37.24177586     2    554   558   559   560
H 1279.99395503 -62.63315020 -35.86363533     6    557    0    0    0
H 1282.30165491 -64.97115501 -36.58919245     6    557    0    0    0
C 1281.36939951 -62.28674152 -39.54983968     2    557   561   562   563
H 1282.15000676 -63.52646947 -41.01386093     6    560    0    0    0
H 1279.57387115 -61.64996603 -40.28276492     6    560    0    0    0
C 1282.79863875 -59.76561928 -38.81181125     2    560   564   565   566
H 1281.53929308 -58.37634821 -37.96392235     6    563    0    0    0
H 1284.11840754 -60.54769950 -37.40203355     6    563    0    0    0
C 1284.21329416 -58.27755871 -40.88944458     2    563   567   568   569
H 1285.62676263 -59.54821899 -41.78551525     6    566    0    0    0
H 1282.88292438 -57.48830161 -42.25968761     6    566    0    0    0
C 1285.71414263 -56.13453891 -39.79212707     2    566   570   571   572
H 1284.36628112 -54.62631322 -39.35205440     6    569    0    0    0
H 1286.36797219 -56.53819778 -37.90372835     6    569    0    0    0
C 1287.67290733 -54.61281065 -41.49178427     2    569   573   574   575
H 1289.14827700 -55.56621706 -42.54678103     6    572    0    0    0
H 1286.54709985 -53.78879614 -42.95330051     6    572    0    0    0
C 1288.97258891 -52.42368985 -39.88249724     2    572   576   577   578
H 1289.85218014 -53.30998011 -38.29813308     6    575    0    0    0
H 1290.42544980 -51.57900953 -40.93004900     6    575    0    0    0
C 1287.22800740 -50.36382698 -39.32548805     1    575   579   580   581
H 1286.09888576 -49.78000231 -40.98310451     6    578    0    0    0
H 1287.89652549 -48.64423666 -38.43678253     6    578    0    0    0
H 1285.73856795 -51.05037607 -38.06308771     6    578    0    0    0
H 1247.99292075 -39.47940736 -39.85925151     6     583    0    0    0 
C 1249.60809699 -38.44044463 -38.90871404     1     582    584    585    586
H 1248.84357161 -37.32871899 -37.43039953     6     583    0    0    0
H 1250.54713666 -40.07482125 -38.15896289     6     583    0    0    0
C 1250.86055260 -37.06070359 -41.02639286     2     583    587    588    589
H 1250.69271529 -38.46414225 -42.57279495     6     586    0    0    0
H 1249.68325161 -35.34291934 -41.36224486     6     586    0    0    0
C 1253.44922240 -36.30459736 -40.36667502     2     586    590   591   592
H 1253.36293104 -35.30904767 -38.54842987     6     589    0    0    0
H 1254.46654259 -37.99325186 -39.92929911     6     589    0    0    0
C 1255.02002020 -34.71658146 -42.11521571     2     589   593   594   595
H 1254.97012853 -35.35881797 -43.90918862     6    592    0    0    0
H 1254.41137365 -32.76366494 -42.16521557     6    592    0    0    0
C 1257.84560486 -34.62005722 -41.21607429     2    592   596   597   598
H 1258.24741550 -33.85536921 -39.25890652     6    595    0    0    0
H 1258.53360136 -36.58596463 -41.13036578     6    595    0    0    0
C 1259.65301520 -33.29344644 -43.09214770     2    595   599   600   601
H 1259.76509312 -34.42232346 -44.72922770     6    598    0    0    0
H 1258.80158131 -31.61984164 -43.80959537     6    598    0    0    0
C 1262.31461530 -32.68522574 -42.08043363     2    598   602   603   604
H 1262.36914950 -31.14802622 -40.63552183     6    601    0    0    0
H 1262.86955000 -34.48000372 -41.19978251     6    601    0    0    0
C 1264.38477410 -32.40334779 -44.02510389     2    601   605   606   607
H 1264.96823764 -34.09772843 -44.97147480     6    604    0    0    0
H 1263.59236620 -31.19247621 -45.58795012     6    604    0    0    0
C 1266.87314899 -31.21599741 -43.30228665     2    604   608   609   610
H 1266.38083051 -29.46709964 -42.42083911     6    607    0    0    0
H 1267.85085753 -32.38783037 -42.04544615     6    607    0    0    0
C 1268.65236736 -30.95030714 -45.62863322     2    607   611   612   613
H 1270.38005528 -29.91395907 -45.23012829     6    610    0    0    0
H 1269.16552633 -32.84033249 -46.24469403     6    610    0    0    0
C 1267.74215946 -29.71541473 -48.09337908     2    610   614   615   616
H 1265.90963278 -30.57313584 -48.48055105     6    613    0    0    0
H 1267.15007097 -27.86988902 -47.82238855     6    613    0    0    0
C 1269.53601654 -30.07009158 -50.33987121     1    613   617   618   619
H 1268.77847950 -28.99560619 -51.99164846     6    616    0    0    0
H 1269.89840587 -32.02264855 -50.80704449     6    616    0    0    0
H 1271.54659154 -29.64236561 -49.83756521     6    616    0    0    0
H 1279.44525283 -51.65407068 -15.66517118     6     621    0    0    0 
C 1278.07550707 -51.42469557 -17.12710295     1     620    622    623    624
H 1278.91092023 -50.09219464 -18.52374381     6     621    0    0    0
H 1277.90009705 -53.26196467 -18.01770644     6     621    0    0    0
C 1275.53620359 -50.63665511 -16.06733972     2     621    625    626    627
H 1274.35747116 -50.12400157 -17.59719861     6     624    0    0    0
H 1274.73732302 -52.34264304 -15.14140761     6     624    0    0    0
C 1275.70391251 -48.27468549 -14.41198064     2     624    628   629   630
H 1276.94045817 -48.64162132 -12.74317300     6     627    0    0    0
H 1276.72963807 -46.89626743 -15.39668796     6     627    0    0    0
C 1273.10016059 -47.33370801 -13.80683246     2     627   631   632   633
H 1271.86854583 -46.83679741 -15.40313860     6    630    0    0    0
H 1272.20978805 -48.78703156 -12.74243458     6    630    0    0    0
C 1273.29188403 -45.04354688 -12.04811352     2    630   634   635   636
H 1274.58819349 -45.18040334 -10.45922962     6    633    0    0    0
H 1274.08193086 -43.58367458 -13.04827939     6    633    0    0    0
C 1270.73365489 -43.89513444 -11.49820573     2    633   637   638   639
H 1269.65167923 -43.26658708 -13.12356354     6    636    0    0    0
H 1269.57533470 -45.43900057 -10.77330425     6    636    0    0    0
C 1270.71630719 -41.75093378 -9.48548706     2    636   640   641   642
H 1271.64207334 -42.46591096 -7.79743774     6    639    0    0    0
H 1271.87352108 -40.24645828 -10.11333728     6    639    0    0    0
C 1268.13204137 -40.66961081 -8.92172341     2    639   643   644   645
H 1267.26687651 -39.82840943 -10.58368332     6    642    0    0    0
H 1266.79320674 -42.12810206 -8.43216259     6    642    0    0    0
C 1268.25539835 -38.73229217 -6.73611830     2    642   646   647   648
H 1267.00071756 -39.12067185 -5.27035748     6    645    0    0    0
H 1269.97653723 -39.00076709 -5.63736576     6    645    0    0    0
C 1267.90962575 -35.91838830 -7.30777694     2    645   649   650   651
H 1269.15914768 -34.79209526 -5.93990341     6    648    0    0    0
H 1268.47343926 -35.11542815 -9.17827232     6    648    0    0    0
C 1265.07078632 -35.23326668 -7.22563900     2    648   652   653   654
H 1263.65638221 -36.71512871 -7.52733654     6    651    0    0    0
H 1264.60202257 -34.62162132 -5.35002011     6    651    0    0    0
C 1264.28943141 -33.02061537 -9.00496857     1    651   655   656   657
H 1264.57456977 -33.24868827 -10.98744711     6    654    0    0    0
H 1265.34793201 -31.49182979 -8.27214845     6    654    0    0    0
H 1262.35455706 -32.44380281 -8.50454680     6    654    0    0    0
H 1262.26467785 -38.33089194 -30.21133579     6     659    0    0    0 
C 1260.96810329 -38.85644864 -31.80156813     1     658    660    661    662
H 1261.61596846 -40.74471650 -32.49262609     6     659    0    0    0
H 1259.26829923 -39.02453562 -30.67447122     6     659    0    0    0
C 1260.68817332 -37.19038941 -34.24685319     2     659    663    664    665
H 1259.32307472 -38.26207915 -35.53254071     6     662    0    0    0
H 1259.83764052 -35.38960463 -33.83017394     6     662    0    0    0
C 1263.48468613 -36.72123572 -35.40817919     2     662    666   667   668
H 1263.59582951 -34.82734554 -36.11240959     6     665    0    0    0
H 1264.97016425 -37.02704745 -34.08568128     6     665    0    0    0
C 1264.19200979 -38.62977591 -37.45770839     2     665   669   670   671
H 1263.45534839 -40.35444004 -36.72284352     6    668    0    0    0
H 1263.23644342 -37.89112213 -39.14133296     6    668    0    0    0
C 1267.04398624 -38.63555040 -37.79910122     2    668   672   673   674
H 1267.87167422 -36.81353822 -38.09966233     6    671    0    0    0
H 1267.80844299 -39.08234368 -35.91774908     6    671    0    0    0
C 1267.79243233 -40.66855184 -39.77432125     2    671   675   676   677
H 1267.55350432 -42.51751433 -39.04590040     6    674    0    0    0
H 1266.53917519 -40.25624037 -41.38103598     6    674    0    0    0
C 1270.47843945 -40.40712639 -40.84405267     2    674   678   679   680
H 1270.51973990 -38.64079020 -41.83443230     6    677    0    0    0
H 1271.81182832 -40.31560335 -39.31842339     6    677    0    0    0
C 1271.04120823 -42.61335780 -42.49968944     2    677   681   682   683
H 1269.87615122 -44.35350336 -42.28013285     6    680    0    0    0
H 1270.48623478 -41.89171892 -44.39942050     6    680    0    0    0
C 1273.86508323 -43.26976593 -42.34067165     2    680   684   685   686
H 1275.01658774 -41.49240685 -42.56256532     6    683    0    0    0
H 1274.19684997 -44.07364604 -40.48872977     6    683    0    0    0
C 1274.34506413 -45.38424565 -44.38217368     2    683   687   688   689
H 1272.94401220 -46.93218223 -44.30093008     6    686    0    0    0
H 1274.42889341 -44.80676759 -46.35935121     6    686    0    0    0
C 1276.97784108 -46.54711287 -43.88406930     2    686   690   691   692
H 1278.64609080 -45.30259032 -44.29291101     6    689    0    0    0
H 1277.08676644 -46.97870385 -41.87446581     6    689    0    0    0
C 1277.29882954 -49.07291927 -45.33562682     1    689   693   694   695
H 1278.97523308 -50.16648706 -44.58046304     6    692    0    0    0
H 1277.48686338 -48.54972408 -47.46250796     6    692    0    0    0
H 1275.72499262 -50.45992160 -45.10963735     6    692    0    0    0
H 1294.17631926 -61.36487946 -40.78783852     6     697    0    0    0 
C 1292.17257221 -61.15475806 -40.49196514     1     696    698    699    700
H 1291.91797431 -61.06609407 -38.54193611     6     697    0    0    0
H 1291.90674548 -59.37145064 -41.29309610     6     697    0    0    0
C 1290.66168811 -63.11791511 -41.78330080     2     697    701    702    703
H 1288.99070752 -62.04866202 -42.11666458     6     700    0    0    0
H 1291.55810144 -63.38624128 -43.59725842     6     700    0    0    0
C 1290.09261681 -65.56979898 -40.28899491     2     700    704   705   706
H 1292.02111937 -66.59350503 -39.98743877     6     703    0    0    0
H 1289.50796239 -65.08445333 -38.34175753     6     703    0    0    0
C 1287.91710984 -67.13424665 -41.58922930     2     703   707   708   709
H 1286.22547295 -66.09130873 -41.61558291     6    706    0    0    0
H 1288.43719137 -67.18944231 -43.58071109     6    706    0    0    0
C 1287.67559838 -69.91749133 -40.50631993     2    706   710   711   712
H 1289.47006370 -70.71210887 -40.53838096     6    709    0    0    0
H 1287.51212985 -69.79796844 -38.36609194     6    709    0    0    0
C 1285.80818644 -71.57803689 -41.98096612     2    709   713   714   715
H 1284.04877373 -70.48836399 -42.57615413     6    712    0    0    0
H 1286.56603770 -71.99844518 -43.96922999     6    712    0    0    0
C 1284.76211140 -73.71871222 -40.52932884     2    712   716   717   718
H 1286.02386292 -74.31856614 -39.07845161     6    715    0    0    0
H 1283.36328027 -72.77886033 -39.29685539     6    715    0    0    0
C 1283.39541294 -75.86910106 -42.08020559     2    715   719   720   721
H 1281.66587720 -75.11967954 -43.08735411     6    718    0    0    0
H 1284.58650268 -76.42132232 -43.62429962     6    718    0    0    0
C 1282.96145712 -78.16929480 -40.52433959     2    718   722   723   724
H 1284.88907629 -78.90705525 -40.14487885     6    721    0    0    0
H 1282.24077991 -77.84464347 -38.60359271     6    721    0    0    0
C 1281.24228707 -80.04265694 -41.82365514     2    721   725   726   727
H 1279.21832744 -79.53299756 -41.40865023     6    724    0    0    0
H 1281.50096275 -79.90202824 -43.90893936     6    724    0    0    0
C 1281.72426692 -82.72649716 -40.67501749     2    724   728   729   730
H 1281.98215047 -82.75231787 -38.66472957     6    727    0    0    0
H 1280.17602954 -83.96390263 -41.24113121     6    727    0    0    0
C 1284.02183812 -84.01453637 -42.00389931     1    727   731   732   733
H 1284.34814145 -85.97082351 -41.58904605     6    730    0    0    0
H 1285.64243457 -82.97216083 -41.38759380     6    730    0    0    0
H 1283.77077746 -84.00974317 -44.05329669     6    730    0    0    0
H 1254.63753969 -57.16760865 -47.76670809     6     735    0    0    0 
C 1253.36094669 -58.26693017 -48.82430773     1     734    736    737    738
H 1254.17399262 -58.11077614 -50.80090382     6     735    0    0    0
H 1253.66472091 -60.13176382 -47.97209412     6     735    0    0    0
C 1250.65253560 -57.29461131 -48.76215862     2     735    739    740    741
H 1250.43397342 -55.50890791 -49.95217773     6     738    0    0    0
H 1249.37362521 -58.82892406 -49.41236855     6     738    0    0    0
C 1249.75889801 -56.57911531 -45.91998272     2     738    742   743   744
H 1249.91131978 -58.26655892 -44.83447741     6     741    0    0    0
H 1250.88216005 -55.13194477 -44.95796753     6     741    0    0    0
C 1246.89072053 -55.89074674 -45.37882774     2     741   745   746   747
H 1246.72652235 -54.14859425 -46.42601173     6    744    0    0    0
H 1245.60837138 -57.12746730 -46.28114069     6    744    0    0    0
C 1246.27723696 -55.25655280 -42.57120805     2    744   748   749   750
H 1247.64614348 -53.90043070 -41.74251559     6    747    0    0    0
H 1244.56380241 -54.05676651 -42.70000768     6    747    0    0    0
C 1245.61108326 -57.61854133 -40.88185930     2    747   751   752   753
H 1244.09909732 -58.61850273 -41.72302465     6    750    0    0    0
H 1247.18422435 -58.94476592 -40.69960472     6    750    0    0    0
C 1245.16860037 -56.75255499 -38.31336031     2    750   754   755   756
H 1246.74252219 -56.02263652 -37.39842491     6    753    0    0    0
H 1244.20471664 -55.01608206 -38.33997703     6    753    0    0    0
C 1243.92562775 -58.66692665 -36.55196773     2    753   757   758   759
H 1242.25467648 -59.27750077 -37.46446531     6    756    0    0    0
H 1245.16215733 -60.38824950 -36.24792734     6    756    0    0    0
C 1243.44971935 -57.22377524 -34.06241026     2    756   760   761   762
H 1245.33598707 -56.83717747 -33.23277452     6    759    0    0    0
H 1242.61145001 -55.44762362 -34.47965356     6    759    0    0    0
C 1241.50874175 -58.84521115 -32.31572120     2    759   763   764   765
H 1239.73694318 -59.01242353 -33.42305048     6    762    0    0    0
H 1242.19230688 -60.73144654 -32.00149680     6    762    0    0    0
C 1240.69530241 -57.57560284 -29.83698923     2    762   766   767   768
H 1242.45108875 -57.22583285 -28.85077162     6    765    0    0    0
H 1239.75446644 -55.99792746 -30.55061261     6    765    0    0    0
C 1239.06887032 -59.05257051 -27.93310628     1    765   769   770   771
H 1237.26153388 -59.64810716 -28.76786608     6    768    0    0    0
H 1238.81816827 -57.69334883 -26.24235816     6    768    0    0    0
H 1240.02792578 -60.75353756 -27.37353934     6    768    0    0    0
H 1273.23221994 -45.61657261 0.56650109     6     773    0    0    0 
C 1271.84671628 -45.11400185 -1.02351042     1     772    774    775    776
H 1269.95385682 -45.52339652 -0.33246585     6     773    0    0    0
H 1271.97957195 -43.12632665 -1.21170129     6     773    0    0    0
C 1272.26785072 -46.64042816 -3.51461744     2     773    777    778    779
H 1271.14536860 -45.92291882 -5.01307298     6     776    0    0    0
H 1274.14946753 -46.10086086 -3.84312921     6     776    0    0    0
C 1272.12008230 -49.46811646 -3.30519824     2     776    780   781   782
H 1273.17155638 -50.07076201 -1.71517392     6     779    0    0    0
H 1270.14072736 -49.97072780 -2.94763424     6     779    0    0    0
C 1273.14965815 -50.70890878 -5.76725823     2     779   783   784   785
H 1272.37098896 -49.73459586 -7.40077146     6    782    0    0    0
H 1275.24500492 -50.50199290 -5.76438498     6    782    0    0    0
C 1272.49385680 -53.47990654 -6.00692479     2    782   786   787   788
H 1272.01678835 -54.06879567 -4.10155400     6    785    0    0    0
H 1270.73146086 -53.65401694 -7.15712087     6    785    0    0    0
C 1274.42854877 -55.02014935 -7.33400391     2    785   789   790   791
H 1274.37780111 -54.39687567 -9.34675866     6    788    0    0    0
H 1276.42868493 -54.83172867 -6.65048906     6    788    0    0    0
C 1273.92349617 -57.80658249 -7.33433048     2    788   792   793   794
H 1273.75420663 -58.26438099 -5.30323858     6    791    0    0    0
H 1272.09690937 -58.25896235 -8.17276754     6    791    0    0    0
C 1275.91485604 -59.40970883 -8.55614822     2    791   795   796   797
H 1276.20364122 -58.88186786 -10.49705227     6    794    0    0    0
H 1277.76329904 -59.13028480 -7.53504134     6    794    0    0    0
C 1275.01712494 -62.16090896 -8.40981704     2    794   798   799   800
H 1274.49749454 -62.82502342 -6.49379107     6    797    0    0    0
H 1273.30616484 -62.36548632 -9.57556179     6    797    0    0    0
C 1277.08006316 -63.96622056 -9.34643983     2    797   801   802   803
H 1277.61031605 -63.26076191 -11.25217087     6    800    0    0    0
H 1278.64392197 -63.38219511 -8.15530719     6    800    0    0    0
C 1276.40653213 -66.85145142 -9.37048938     2    800   804   805   806
H 1275.74793088 -67.42404524 -7.51463350     6    803    0    0    0
H 1274.55383237 -67.19564788 -10.41015698     6    803    0    0    0
C 1278.43633001 -68.66935558 -10.32684504     1    803   807   808   809
H 1278.03691009 -70.63715470 -9.84712270     6    806    0    0    0
H 1280.30761003 -68.13056192 -9.50453329     6    806    0    0    0
H 1278.63011815 -68.50872056 -12.37669727     6    806    0    0    0
H 1252.05183458 -38.34551917 -32.72688909     6     811    0    0    0 
C 1251.67937672 -40.35287747 -32.45159978     1     810    812    813    814
H 1249.73875091 -40.82472856 -32.90134211     6     811    0    0    0
H 1252.46949685 -41.45746822 -33.91561491     6     811    0    0    0
C 1252.34069186 -40.95818165 -29.69248974     2     811    815    816    817
H 1254.35289936 -41.17086307 -29.69239271     6     814    0    0    0
H 1251.85444728 -39.38897344 -28.58299918     6     814    0    0    0
C 1250.96977107 -43.30886787 -28.79245995     2     814    818   819   820
H 1248.95038459 -42.71397991 -28.98909528     6     817    0    0    0
H 1251.38146548 -44.92858807 -30.08017450     6     817    0    0    0
C 1251.61649502 -44.11310336 -26.21300947     2     817   821   822   823
H 1253.60593159 -44.62358692 -26.04813654     6    820    0    0    0
H 1251.50962003 -42.49752891 -24.97831503     6    820    0    0    0
C 1249.94475657 -46.40404847 -25.47616009     2    820   824   825   826
H 1248.12227753 -45.83652792 -25.12489335     6    823    0    0    0
H 1249.98230996 -47.78375154 -26.93070544     6    823    0    0    0
C 1250.79277804 -47.47782594 -22.98105051     2    823   827   828   829
H 1252.58626449 -48.35765450 -23.33442332     6    826    0    0    0
H 1250.99840256 -45.97746235 -21.47994669     6    826    0    0    0
C 1248.95844046 -49.45937723 -21.80031200     2    826   830   831   832
H 1247.30155791 -48.47678508 -21.73462247     6    829    0    0    0
H 1248.97845741 -50.97308003 -22.91679498     6    829    0    0    0
C 1249.66172529 -50.32973106 -19.11717960     2    829   833   834   835
H 1251.66188719 -50.80531162 -18.82412865     6    832    0    0    0
H 1249.25102074 -48.69188985 -17.83111647     6    832    0    0    0
C 1248.10874535 -52.54650485 -18.15529503     2    832   836   837   838
H 1246.22692268 -52.00453342 -18.28205507     6    835    0    0    0
H 1248.52990408 -54.07693148 -19.43446106     6    835    0    0    0
C 1248.40637159 -53.25156875 -15.37793417     2    835   839   840   841
H 1250.32471336 -53.68490691 -14.96177937     6    838    0    0    0
H 1248.15737730 -51.71117255 -14.06228251     6    838    0    0    0
C 1246.87355052 -55.62181978 -14.74876004     2    838   842   843   844
H 1245.08742991 -55.62269816 -15.41283251     6    841    0    0    0
H 1247.61665550 -57.29943530 -15.71616291     6    841    0    0    0
C 1246.65538694 -56.05083719 -11.92009207     1    841   845   846   847
H 1248.48639648 -56.12479625 -11.01247915     6    844    0    0    0
H 1245.66019363 -57.78388648 -11.43265617     6    844    0    0    0
H 1245.62647460 -54.50315012 -11.11800952     6    844    0    0    0
H 1282.64752881 -39.25430727 -49.05209514     6     849    0    0    0 
C 1281.15975083 -38.72672670 -47.84977417     1     848    850    851    852
H 1280.28340402 -36.94090970 -48.17225805     6     849    0    0    0
H 1279.75149617 -40.08336826 -48.33425053     6     849    0    0    0
C 1282.23336365 -39.06954409 -45.18241992     2     849    853    854    855
H 1282.47844897 -40.97795695 -44.87796793     6     852    0    0    0
H 1284.03447129 -38.04453114 -45.16493446     6     852    0    0    0
C 1280.67054308 -37.89984086 -43.15305112     2     852    856   857   858
H 1280.51151292 -35.88929909 -43.35265854     6     855    0    0    0
H 1278.81402705 -38.85507630 -43.14006102     6     855    0    0    0
C 1281.69889368 -38.64618695 -40.48634888     2     855   859   860   861
H 1281.35980346 -40.74909067 -40.10844844     6    858    0    0    0
H 1283.72711202 -38.56784045 -40.22613343     6    858    0    0    0
C 1280.36301088 -36.94558677 -38.43741904     2    858   862   863   864
H 1281.11200185 -37.33343949 -36.52540806     6    861    0    0    0
H 1280.95607653 -35.01722567 -38.63723015     6    861    0    0    0
C 1277.47530604 -36.94716674 -38.32311842     2    861   865   866   867
H 1276.72413607 -36.91668351 -40.18489587     6    864    0    0    0
H 1276.80643360 -38.74154927 -37.50997164     6    864    0    0    0
C 1276.21324837 -34.70215413 -36.86361908     2    864   868   869   870
H 1277.01908790 -34.65188331 -34.96413981     6    867    0    0    0
H 1276.94222592 -33.00731054 -37.64967347     6    867    0    0    0
C 1273.36041969 -34.71505354 -36.85835615     2    867   871   872   873
H 1272.62809258 -35.05499998 -38.73600770     6    870    0    0    0
H 1272.90261140 -36.40861600 -35.94402498     6    870    0    0    0
C 1272.00171723 -32.34881711 -35.58837870     2    870   874   875   876
H 1270.05567361 -32.99280410 -35.10143242     6    873    0    0    0
H 1272.98588307 -31.60088039 -34.03371974     6    873    0    0    0
C 1271.71471996 -29.95827152 -37.31687008     2    873   877   878   879
H 1273.51338412 -29.18582521 -37.71679140     6    876    0    0    0
H 1270.81920718 -30.49164810 -39.16645331     6    876    0    0    0
C 1270.03690810 -28.11887303 -35.88587476     2    876   880   881   882
H 1269.43339530 -26.95112697 -37.43288023     6    879    0    0    0
H 1268.31502238 -29.01279080 -35.01701947     6    879    0    0    0
C 1271.45604131 -26.31089699 -34.10942006     1    879   883   884   885
H 1272.90528666 -25.16770471 -35.19691492     6    882    0    0    0
H 1272.22125825 -27.41137799 -32.42320815     6    882    0    0    0
H 1270.18895713 -24.92128212 -33.17753031     6    882    0    0    0
H 1258.15539446 -53.77711261 -15.23524500     6     887    0    0    0 
C 1258.84932688 -55.55059744 -16.04846425     1     886    888    889    890
H 1260.88502886 -55.56355397 -16.08934236     6     887    0    0    0
H 1258.15390332 -57.32560107 -15.04877960     6     887    0    0    0
C 1258.12686499 -55.67193975 -18.93019938     2     887    891    892    893
H 1258.66177134 -57.51860662 -19.60658152     6     890    0    0    0
H 1256.20395146 -55.88147193 -19.09513292     6     890    0    0    0
C 1258.89860882 -53.38591052 -20.55217361     2     890    894   895   896
H 1258.05854705 -51.66805656 -19.72589098     6     893    0    0    0
H 1260.87201058 -52.87409727 -20.36948859     6     893    0    0    0
C 1257.78936956 -53.41425636 -23.15547514     2     893   897   898   899
H 1258.23017969 -55.16423113 -24.22770163     6    896    0    0    0
H 1255.82822528 -53.46768330 -22.96773123     6    896    0    0    0
C 1258.60405452 -51.15377938 -24.69768278     2    896   900   901   902
H 1257.98977672 -49.45338156 -23.76032199     6    899    0    0    0
H 1260.66446380 -50.88291630 -24.80336593     6    899    0    0    0
C 1257.84292643 -51.10293863 -27.58147626     2    899   903   904   905
H 1258.10041259 -52.98900978 -28.38524463     6    902    0    0    0
H 1255.81675697 -50.82829523 -27.63944994     6    902    0    0    0
C 1259.06784708 -49.04981856 -29.16569708     2    902   906   907   908
H 1259.12356504 -47.32083344 -28.00808968     6    905    0    0    0
H 1261.06707638 -49.22381209 -29.58293083     6    905    0    0    0
C 1257.67591995 -48.78319456 -31.64776123     2    905   909   910   911
H 1258.07132341 -50.39972879 -32.72624679     6    908    0    0    0
H 1255.65398744 -48.92168497 -31.10957019     6    908    0    0    0
C 1258.30794203 -46.33117339 -33.13115009     2    908   912   913   914
H 1257.95118298 -44.66090560 -32.18974067     6    911    0    0    0
H 1260.30905400 -46.04799973 -33.42198177     6    911    0    0    0
C 1257.09106863 -46.63708374 -35.65119333     2    911   915   916   917
H 1257.57999628 -48.33216802 -36.76899927     6    914    0    0    0
H 1255.09432059 -46.99734163 -35.29368862     6    914    0    0    0
C 1257.54130116 -44.37540741 -37.37713272     2    914   918   919   920
H 1256.96041014 -42.74076639 -36.33221025     6    917    0    0    0
H 1259.68889460 -44.09537057 -37.60225263     6    917    0    0    0
C 1256.43824487 -44.30672890 -40.13053631     1    917   921   922   923
H 1254.40489455 -43.87547327 -40.10958970     6    920    0    0    0
H 1256.77370441 -46.08622609 -41.12057408     6    920    0    0    0
H 1257.02688644 -42.84485189 -41.51760058     6    920    0    0    0
H 1276.49890434 -28.54749086 -26.18676775     6     925    0    0    0 
C 1276.83148786 -30.28827389 -25.08522616     1     924    926    927    928
H 1277.82647904 -31.59142097 -26.12739192     6     925    0    0    0
H 1277.91374056 -29.76592722 -23.35708859     6     925    0    0    0
C 1274.19341274 -31.50373083 -24.69739622     2     925    929    930    931
H 1274.27061466 -33.56667530 -24.37702890     6     928    0    0    0
H 1273.04865332 -30.78644036 -23.11985367     6     928    0    0    0
C 1272.42377962 -31.06498227 -26.79872620     2     928    932   933   934
H 1272.36405177 -28.94899590 -27.16145524     6     931    0    0    0
H 1273.10653112 -31.91476084 -28.49843551     6     931    0    0    0
C 1269.94929691 -32.27350464 -26.38596534     2     931   935   936   937
H 1270.04740434 -34.42926114 -26.38270289     6    934    0    0    0
H 1269.36629094 -31.61269531 -24.48476643     6    934    0    0    0
C 1268.00870477 -31.22000596 -28.41728907     2    934   938   939   940
H 1268.04717383 -29.17452793 -28.53827312     6    937    0    0    0
H 1268.57155131 -31.77117491 -30.42526536     6    937    0    0    0
C 1265.25096868 -32.22424654 -27.66660481     2    937   941   942   943
H 1265.15425543 -34.12631897 -26.87479133     6    940    0    0    0
H 1264.64580058 -31.16472752 -26.03324899     6    940    0    0    0
C 1263.35669243 -32.00304637 -29.78600042     2    940   944   945   946
H 1264.27503793 -32.56141142 -31.54988500     6    943    0    0    0
H 1261.76793451 -33.19715666 -29.47709966     6    943    0    0    0
C 1262.53922961 -29.21095920 -30.02958691     2    943   947   948   949
H 1261.19716073 -28.80892294 -28.57094535     6    946    0    0    0
H 1263.98553979 -27.80790696 -29.58418938     6    946    0    0    0
C 1261.31504512 -28.79643440 -32.57888324     2    946   950   951   952
H 1262.63393046 -28.95079691 -34.07977279     6    949    0    0    0
H 1260.21307150 -30.42422174 -33.00110500     6    949    0    0    0
C 1259.97256865 -26.19334577 -32.67317702     2    949   953   954   955
H 1259.62212052 -25.39691247 -30.82913006     6    952    0    0    0
H 1261.28190227 -24.87982444 -33.75162571     6    952    0    0    0
C 1257.52577401 -26.37722904 -34.19776142     2    952   956   957   958
H 1257.95055470 -27.28005259 -36.00325999     6    955    0    0    0
H 1256.21961829 -27.54515531 -33.10803697     6    955    0    0    0
C 1256.24851245 -23.80347735 -34.72566034     1    955   959   960   961
H 1254.24613331 -24.20404376 -34.99426158     6    958    0    0    0
H 1256.77088885 -22.86858010 -36.60158721     6    958    0    0    0
H 1256.19308630 -22.39695603 -33.26584772     6    958    0    0    0
H 1255.16115549 -69.19120331 -30.53631767     6     963    0    0    0 
C 1255.73207025 -67.88776569 -29.12776166     1     962    964    965    966
H 1256.01255953 -65.87444746 -29.93645943     6     963    0    0    0
H 1254.13786201 -67.93377004 -27.78378804     6     963    0    0    0
C 1258.02995215 -68.97080023 -27.73173496     2     963    967    968    969
H 1258.59123992 -67.67033386 -26.35842503     6     966    0    0    0
H 1257.44335487 -70.68900609 -26.82951949     6     966    0    0    0
C 1260.21888991 -69.31561712 -29.51039701     2     966    970   971   972
H 1259.61261141 -69.80912945 -31.41493954     6     969    0    0    0
H 1261.12691434 -67.44660533 -29.65175471     6     969    0    0    0
C 1261.91919337 -71.54737844 -28.52396229     2     969   973   974   975
H 1262.12654959 -71.29173783 -26.46663696     6    972    0    0    0
H 1261.00534682 -73.39140640 -28.81451662     6    972    0    0    0
C 1264.59444110 -71.63867397 -29.63056139     2    972   976   977   978
H 1264.54535804 -71.40801940 -31.76751114     6    975    0    0    0
H 1265.55316065 -69.89964402 -29.02949265     6    975    0    0    0
C 1266.15767681 -73.91942037 -29.25151131     2    975   979   980   981
H 1266.84939863 -73.82482445 -27.40258162     6    978    0    0    0
H 1264.92438928 -75.68909846 -29.31503630     6    978    0    0    0
C 1268.15764330 -74.25829517 -31.31720201     2    978   982   983   984
H 1267.52134773 -74.82894991 -33.14885487     6    981    0    0    0
H 1269.10831891 -72.43592034 -31.71657419     6    981    0    0    0
C 1270.24800724 -76.17119950 -30.62192585     2    981   985   986   987
H 1271.23869094 -75.30797276 -28.94873241     6    984    0    0    0
H 1269.06989181 -77.74088881 -29.87984095     6    984    0    0    0
C 1271.88169827 -77.11724846 -32.77265880     2    984   988   989   990
H 1273.14152243 -78.38237592 -31.76301730     6    987    0    0    0
H 1270.91157995 -78.11956151 -34.13192358     6    987    0    0    0
C 1273.58173725 -75.10835720 -34.14921140     2    987   991   992   993
H 1272.37113555 -73.97665981 -35.51683619     6    990    0    0    0
H 1274.80472566 -74.00506930 -32.83311673     6    990    0    0    0
C 1275.46107902 -76.40358184 -35.91557436     2    990   994   995   996
H 1276.56028230 -77.51188824 -34.57114550     6    993    0    0    0
H 1274.46071030 -77.58581293 -37.23312701     6    993    0    0    0
C 1276.99982826 -74.36764031 -37.29996798     1    993   997   998   999
H 1275.90962340 -73.00452447 -38.45920521     6    996    0    0    0
H 1278.43555259 -75.28720400 -38.50818983     6    996    0    0    0
H 1278.03226166 -73.39121954 -36.02477738     6    996    0    0    0
H 1238.10880335 -70.74619937 -28.66171884     6     1001    0    0    0 
C 1240.11241966 -71.34572543 -28.69308515     1     1000    1002    1003    1004
H 1241.11956448 -69.61576454 -28.48546279     6     1001    0    0    0
H 1240.62494607 -72.56049293 -26.97453850     6     1001    0    0    0
C 1240.83383923 -72.64486299 -31.10102056     2     1001    1005    1006    1007
H 1239.63433398 -74.28866480 -31.34890344     6     1004    0    0    0
H 1240.47202373 -71.18870609 -32.67883058     6     1004    0    0    0
C 1243.66125504 -73.66673615 -30.63700472     2     1004    1008   1009   1010
H 1244.66238742 -72.07126710 -29.94532988     6     1007    0    0    0
H 1243.74778305 -74.91292344 -28.96571821     6     1007    0    0    0
C 1244.84127564 -74.81943784 -32.90435160     2     1007   1011   1012   1013
H 1244.36246441 -76.87898032 -32.94001573     6    1010    0    0    0
H 1244.02512787 -74.00688770 -34.76530093     6    1010    0    0    0
C 1247.82052225 -74.52742559 -33.20791054     2    1010   1014   1015   1016
H 1248.34879262 -72.56669865 -32.90905239     6    1013    0    0    0
H 1248.79740333 -75.36548276 -31.63030319     6    1013    0    0    0
C 1248.89791926 -75.44249627 -35.75741008     2    1013   1017   1018   1019
H 1248.31709067 -77.32246233 -36.29426893     6    1016    0    0    0
H 1248.28853803 -74.19767995 -37.23194933     6    1016    0    0    0
C 1251.75353659 -75.71635513 -35.83198384     2    1016   1020   1021   1022
H 1252.76227775 -73.87293898 -35.32376799     6    1019    0    0    0
H 1252.47009146 -76.99575626 -34.39555549     6    1019    0    0    0
C 1252.72799273 -76.36820853 -38.49750626     2    1019   1023   1024   1025
H 1251.76416740 -77.92042376 -39.35463919     6    1022    0    0    0
H 1252.32161523 -74.70498763 -39.66126386     6    1022    0    0    0
C 1255.59936093 -76.91360504 -38.30808793     2    1022   1026   1027   1028
H 1256.40679142 -75.26818666 -37.34546737     6    1025    0    0    0
H 1255.82498776 -78.68718694 -37.14133226     6    1025    0    0    0
C 1256.71214575 -77.56496474 -40.89061958     2    1025   1029   1030   1031
H 1255.51944813 -78.82038173 -41.70334736     6    1028    0    0    0
H 1256.73991269 -75.87292647 -42.02988619     6    1028    0    0    0
C 1259.39415751 -78.65514531 -40.72094783     2    1028   1032   1033   1034
H 1260.50863556 -77.65486506 -39.33695216     6    1031    0    0    0
H 1259.41546795 -80.66013329 -40.06621271     6    1031    0    0    0
C 1260.63111546 -78.68802074 -43.43426418     1    1031   1035   1036   1037
H 1262.40106631 -79.66965027 -43.50824242     6    1034    0    0    0
H 1261.09489946 -76.73434751 -44.01518236     6    1034    0    0    0
H 1259.56104701 -79.60531538 -44.92136088     6    1034    0    0    0
H 1266.40996882 -57.43202306 -3.23182600     6     1039    0    0    0 
C 1265.42492258 -58.32720675 -4.69852097     1     1038    1040    1041    1042
H 1265.95015830 -60.26067755 -5.00260081     6     1039    0    0    0
H 1263.43597808 -58.40169039 -4.09123443     6     1039    0    0    0
C 1265.78943651 -56.62209347 -7.04260010     2     1039    1043    1044    1045
[...]
 1619      H    1278.3655415800   -72.0199803900    -1.3903648700
 1620      H    1279.8559598100   -70.8942301600    -4.1312052600
 1621      C    1282.2031348800   -73.5950964400    -1.8633681800
 1622      H    1283.4506127200   -73.2667453000    -3.4400795600
 1623      H    1283.0955088500   -73.3435338800    -0.0188820400
 1624      C    1280.9176878100   -76.2103480700    -2.4107638800
 1625      H    1279.5360668200   -76.6254577700    -0.9734725600
 1626      H    1279.6204639100   -76.0038245700    -4.1198687500
 1627      C    1282.5371673800   -78.5664362000    -2.4625456000
 1628      H    1283.9716756900   -78.2606038700    -3.8516010500
 1629      H    1283.4570339500   -78.5027316600    -0.7342204800
 1630      C    1281.0855385200   -81.0420317200    -2.9318152900
 1631      H    1279.8460512700   -81.4552670600    -1.3450639800
 1632      H    1279.8459824600   -80.6815447600    -4.5691012900
 1633      C    1282.8503813000   -83.2493630800    -3.5351931000
 1634      H    1283.9693595400   -82.9126617100    -5.2272111800
 1635      H    1284.1918471200   -83.2717810700    -1.9566372200
 1636      C    1281.1910802500   -85.5442582100    -3.9280775200
 1637      H    1280.5527152900   -86.4474627300    -2.1100123800
 1638      H    1279.4236903300   -85.2161180600    -4.9524180100
 1639      C    1282.7571929800   -87.6417796100    -5.1832332400
 1640      H    1283.7158970200   -86.9307586400    -7.0020783300
 1641      H    1284.3047122900   -88.3208317800    -3.8889393800
 1642      C    1281.1147510600   -90.0920143600    -5.8464281700
 1643      H    1280.4114019300   -91.0169378200    -4.0712557500
 1644      H    1282.1408413700   -91.3745729600    -7.0626968500
 1645      H    1279.3742735900   -89.5085681900    -7.0627061500
 1646      H    1253.6685048400   -77.3347558000    -5.1798098100
 1647      C    1255.1883718700   -78.1029103700    -4.0553689100
 1648      H    1256.0368716900   -76.4679429300    -3.1637574100
 1649      H    1254.4872405000   -79.2099661600    -2.4536652300
 1650      C    1256.9790756400   -79.5936381000    -5.6536736900
 1651      H    1258.1875458800   -81.0506711800    -4.7140884200
 1652      H    1255.9458789000   -81.0035382100    -6.9307949500
 1653      C    1258.5316873200   -78.1472859500    -7.5096612000
 1654      H    1257.4316660100   -77.3603487800    -9.0112101300
 1655      H    1259.3842809000   -76.6271601800    -6.4149768300
 1656      C    1260.7356798100   -79.7260552000    -8.5955461600
 1657      H    1261.7674824500   -80.6104508000    -6.9985497800
 1658      H    1259.8004898200   -81.2256051100    -9.5914680000
 1659      C    1262.3534982700   -78.4154277000   -10.4519882800
 1660      H    1261.2710351600   -77.3396849500   -11.8969300300
 1661      H    1263.4766825900   -76.9577425200    -9.4920384400
 1662      C    1264.1792845400   -80.1917615400   -11.7393720900
 1663      H    1265.3790956600   -81.1195407600   -10.2567230400
 1664      H    1263.2045471500   -81.8775821600   -12.6567370600
 1665      C    1265.8176465700   -79.2631230400   -13.8479184800
 1666      H    1264.6558659500   -79.3514691400   -15.5761687600
 1667      H    1266.1875370400   -77.3647579700   -13.4474215100
 1668      C    1268.3512397000   -80.4643624800   -14.0165694300
 1669      H    1269.5417426800   -79.8277741500   -12.3745116800
 1670      H    1267.9828535000   -82.5282555500   -13.8475464800
 1671      C    1269.7000572400   -80.1672217800   -16.5550947900
 1672      H    1268.1510691400   -80.5425219600   -18.0197453700
 1673      H    1270.1616169600   -78.1455374600   -16.8121499800
 1674      C    1272.0282103300   -81.8070914800   -16.9659102400
 1675      H    1273.2962731400   -81.5570552900   -15.3595672400
 1676      H    1271.1848897300   -83.7071262700   -17.0541872800
 1677      C    1273.5140109700   -81.3416637600   -19.4714501200
 1678      H    1272.2281145300   -81.5250481400   -21.0780128600
 1679      H    1274.1901355300   -79.4896182400   -19.4048429300
 1680      C    1275.6209261900   -83.0739698000   -19.9566983700
 1681      H    1274.7486395000   -84.9705454400   -20.3670509700
 1682      H    1276.8187095800   -83.4423179100   -18.1842718600
 1683      H    1276.6580364300   -82.5543550800   -21.6521929900
 1684      H    1244.3563831900   -73.2516662500   -22.6555288500
 1685      C    1246.1079659500   -73.9466333600   -21.8817111800
 1686      H    1245.9267837100   -74.2444973800   -19.8495688500
 1687      H    1246.5480520100   -75.9502167600   -22.7200340600
 1688      C    1248.4746225400   -72.3247218300   -22.7209216600
 1689      H    1248.4381804400   -72.3360108700   -24.8261389800
 1690      H    1248.1452345700   -70.3912050800   -22.1703799600
 1691      C    1250.9548074200   -73.3998641900   -21.8995940500
 1692      H    1250.8470049000   -73.7070449700   -19.8822637500
 1693      H    1251.1117975500   -75.3918271400   -22.5430835800
 1694      C    1253.3194277100   -72.0810635500   -22.8967972300
 1695      H    1254.7968991100   -73.4017564300   -22.8184199700
 1696      H    1253.2689913400   -71.3657448000   -24.8876814100
 1697      C    1253.4643449200   -69.6579736500   -21.2478443700
 1698      H    1251.8370962300   -68.3324802900   -21.6852126500
 1699      H    1253.1668527900   -70.0411299700   -19.2279316800
 1700      C    1256.1170254000   -68.5690752400   -21.2395886900
 1701      H    1257.4828171300   -70.0743963800   -21.1653389900
 1702      H    1256.5787717300   -67.5438322100   -22.9833086700
 1703      C    1256.6660758900   -66.8018635400   -19.1961655000
 1704      H    1255.2346347400   -65.1341527000   -19.1153321400
 1705      H    1256.6636833300   -67.7234941700   -17.3712246800
 1706      C    1259.4067509400   -65.5618841500   -19.3521607600
 1707      H    1260.8924581300   -66.9627176000   -20.0278570900
 1708      H    1259.1809495100   -64.1748761300   -20.7959024600
 1709      C    1260.4886862700   -64.2917348700   -16.9231500800
 1710      H    1259.3943688100   -62.6469195400   -16.5992634200
 1711      H    1260.1109275200   -65.4269211000   -15.2680817200
 1712      C    1263.2822096500   -63.6234189800   -17.1745287500
 1713      H    1264.4263474600   -65.2782130700   -17.0107472200
 1714      H    1263.4304615000   -62.5544577900   -18.8860803700
 1715      C    1264.3850304100   -61.9511290900   -14.9740904500
 1716      H    1263.2267179600   -60.2733448300   -14.7831862400
 1717      H    1264.2545746800   -62.7064366300   -13.0369245400
 1718      C    1267.2070577700   -61.0563709900   -15.3532151900
 1719      H    1267.7691354500   -59.6054360000   -13.9565760100
 1720      H    1267.1674413100   -60.3303078100   -17.2858303900
 1721      H    1268.6109381700   -62.6224453000   -15.4798330300
 1722      H    1268.2258611200   -75.6888878600   -45.0844992300
 1723      C    1268.4612060400   -76.9266046200   -43.5528198700
 1724      H    1266.7829641900   -78.3268949600   -43.3322908600
 1725      H    1270.2503720600   -77.9685102200   -43.6632192200
 1726      C    1268.4260428600   -74.9676329200   -41.3345889100
 1727      H    1269.3490671000   -75.4888881100   -39.5281872800
 1728      H    1269.6936849100   -73.5162818000   -41.9143210100
 1729      C    1265.8024935000   -74.1103522600   -40.4650147800
 1730      H    1264.7117508100   -73.5647014400   -42.2144274700
 1731      H    1264.8552322700   -75.6070888300   -39.2427746200
 1732      C    1265.9293588800   -71.5744854700   -38.9915505700
 1733      H    1266.6630010000   -72.1560515800   -37.2322927800
 1734      H    1267.5204146300   -70.4539867100   -39.8920991300
 1735      C    1263.5603616400   -69.8878381300   -38.7764393600
 1736      H    1262.9918409300   -69.0424541400   -40.5563060500
 1737      H    1261.7375020900   -70.8673681000   -38.3163903100
 1738      C    1264.2355188300   -67.6356438800   -37.0164012400
 1739      H    1264.7333325600   -68.2724364100   -35.1338226300
 1740      H    1265.8026204200   -66.5011763600   -37.6809885500
 1741      C    1262.0743323300   -65.6314924000   -36.8018408300
 1742      H    1261.6786694400   -64.8839368200   -38.7174603600
 1743      H    1260.3939546400   -66.3531119900   -35.9383269600
 1744      C    1262.9419131300   -63.2577599900   -35.4175426300
 1745      H    1262.7088355500   -63.5577224900   -33.4387971900
 1746      H    1264.8785931300   -62.9172288900   -35.5756865100
 1747      C    1261.6178017300   -60.7754790000   -36.0537610400
 1748      H    1261.9482377200   -60.0933034000   -37.9683594100
 1749      H    1259.6083577000   -60.8688791800   -35.8624772100
 1750      C    1262.4848718900   -58.5782790800   -34.2500573600
 1751      H    1261.8090446100   -59.0228563200   -32.3399222400
 1752      H    1264.5238522000   -58.6332337200   -34.2721154200
 1753      C    1261.5999842100   -56.0791191800   -35.2742919600
 1754      H    1262.2175968900   -55.9015476200   -37.1907961200
 1755      H    1259.5592823700   -55.8078721000   -35.5111762600
 1756      C    1262.5568595500   -53.8109038300   -33.7005708900
 1757      H    1264.5846839100   -53.7050971200   -33.7929430900
 1758      H    1262.0090547200   -54.0530361100   -31.7595103900
 1759      H    1261.8009652400   -52.1374995900   -34.4956426100
 1760      H    1266.2988355300   -58.1834073100   -52.3838723000
 1761      C    1267.1873264900   -59.2766136500   -53.8825708300
 1762      H    1265.6326506500   -59.7491688900   -55.1130036100
 1763      H    1268.5000749200   -58.2593700100   -54.9893361200
 1764      C    1268.3684511500   -61.4676903100   -52.3257014200
 1765      H    1269.7999396500   -60.9273079700   -51.0129763200
 1766      H    1266.8370696200   -62.4438324900   -51.2680030000
 1767      C    1269.3687801700   -63.5804825600   -53.9486228600
 1768      H    1267.7461646700   -64.3118961100   -55.0962566400
 1769      H    1270.9093949000   -62.8163567800   -54.9915152000
 1770      C    1270.4680849700   -65.8675486400   -52.4636171700
 1771      H    1271.5729468400   -65.0555286500   -50.9114387600
 1772      H    1268.8768992000   -66.6584162200   -51.4315674900
 1773      C    1271.6461266900   -67.8699443400   -54.3190594400
 1774      H    1270.1319087400   -68.8333645500   -55.1544995100
 1775      H    1273.0030421000   -67.2718189100   -55.8095465700
 1776      C    1273.2265318100   -69.8688647800   -52.6515404300
 1777      H    1274.8478622100   -68.7805216700   -51.9531032800
 1778      H    1272.1773020600   -70.2706427600   -50.9084565900
 1779      C    1274.2925872000   -72.1722312300   -54.1604157900
 1780      H    1272.7425945900   -73.2249047400   -54.7475967400
 1781      H    1274.9275452900   -71.4547295500   -56.0152834200
 1782      C    1276.3250161100   -73.8396638800   -52.8382482400
 1783      H    1275.8575681800   -73.7904292500   -50.7517387800
 1784      H    1276.1501078500   -75.7921520600   -53.4315747100
 1785      C    1279.0545752500   -73.1732388500   -53.4682822700
 1786      H    1279.4763588000   -73.3196544900   -55.4279349900
 1787      H    1279.3048137600   -71.2144182200   -52.9165983400
 1788      C    1281.0331072200   -74.6829680300   -51.9030789900
 1789      H    1280.6164395000   -74.8193655600   -49.8921949800
 1790      H    1280.8558670900   -76.7156771500   -52.4593491400
 1791      C    1283.7422138400   -73.5545585700   -52.4607809600
 1792      H    1284.1080276600   -73.5975550200   -54.4408228200
 1793      H    1283.5906716800   -71.6482906200   -51.7219352000
 1794      C    1285.7553716700   -75.1297068300   -51.1542210500
 1795      H    1286.3395757100   -76.8240331900   -51.9893548400
 1796      H    1285.1303276300   -75.5981307900   -49.2895809900
 1797      H    1287.5502139400   -73.8996660400   -51.2831751800
 1798      H    1284.4960469400   -46.4862572100   -25.8496709200
 1799      C    1284.0561690500   -45.0980659800   -24.3200374700
 1800      H    1284.0525324500   -46.1803961800   -22.5959208900
 1801      H    1285.6818988100   -43.7454654500   -23.9800453800
 1802      C    1281.5421785300   -43.7979590000   -24.6409609200
 1803      H    1281.5048785100   -43.1703427000   -26.5639591100
 1804      H    1280.0020197600   -45.1625347800   -24.6559669100
 1805      C    1280.7490897500   -41.8352667400   -22.5828912200
 1806      H    1280.9414792500   -42.8627645800   -20.7799347700
 1807      H    1282.2693718400   -40.4894035900   -22.6818624400
 1808      C    1278.1685945300   -40.5335861600   -22.9594973500
 1809      H    1277.8433282400   -39.0386670100   -21.5347610100
 1810      H    1278.0357554400   -39.6907655600   -24.7271492300
 1811      C    1275.8616890800   -42.4451254700   -22.8564721900
 1812      H    1275.9813955300   -43.8131118600   -24.3049418300
 1813      H    1275.8894950000   -43.7646837000   -21.1509203900
 1814      C    1273.3292882300   -40.9306897400   -22.9141916300
 1815      H    1273.5327152700   -39.4965818000   -21.5030358500
 1816      H    1273.2061984500   -39.8530887900   -24.6943761100
 1817      C    1270.9622931800   -42.5407179200   -22.3393745000
 1818      H    1270.5618646100   -44.0485122000   -23.7495527100
 1819      H    1270.9298046300   -43.6996615100   -20.5013744600
 1820      C    1268.5893751700   -40.8480087500   -22.4635852100
 1821      H    1268.5211599800   -39.8526744900   -20.6352643300
 1822      H    1268.9645298700   -39.3536025900   -23.8979414900
 1823      C    1266.2534459900   -42.4551480400   -23.0452553100
 1824      H    1266.4111895300   -43.4587941600   -24.8026411400
 1825      H    1265.9992487100   -44.0311497700   -21.5813281400
 1826      C    1263.7472544800   -41.0723110100   -23.1295239000
 1827      H    1263.2543901400   -40.3553735600   -21.1875319500
 1828      H    1263.7821721100   -39.2197326700   -24.1330856600
 1829      C    1261.7488270400   -42.7810868500   -24.5268003400
 1830      H    1262.3916572000   -43.1042223700   -26.4382158800
 1831      H    1261.7386353800   -44.6487845700   -23.6948603800
 1832      C    1259.0832196800   -41.5351161000   -24.6526680200
 1833      H    1257.8425599300   -42.9918087900   -25.4492347300
 1834      H    1259.0334531700   -39.7249397500   -25.7132997300
 1835      H    1258.1863514700   -41.1988669700   -22.8849614500
 1836      H    1264.4141250600   -47.2743139200   -38.7368412300
 1837      C    1265.4080234900   -48.3898516600   -37.4154295900
 1838      H    1264.1189879200   -48.5916009000   -35.9355859700
 1839      H    1265.7956334900   -50.0492719500   -38.6235890400
 1840      C    1267.7221662900   -47.1891836100   -36.2177763800
 1841      H    1268.9523431200   -48.4401907800   -35.3323636800
 1842      H    1268.8217915800   -46.0718480700   -37.6869919400
 1843      C    1266.8327601900   -45.1608112600   -34.3390196200
 1844      H    1265.7360209000   -43.7681202800   -35.4601185600
 1845      H    1265.8030780400   -45.9185131500   -32.5526294800
 1846      C    1269.1785977300   -43.5634046300   -33.4512360400
 1847      H    1270.5499254300   -44.9121267100   -32.7954351900
 1848      H    1270.1488134300   -42.5505436600   -35.0280230800
 1849      C    1268.5957949400   -41.9151692300   -31.1431730300
 1850      H    1267.0156939700   -40.7137076700   -31.7690202800
 1851      H    1268.1878098600   -43.0058751800   -29.4677375100
 1852      C    1270.7702392000   -40.0532833100   -30.4669008300
 1853      H    1271.0115995400   -38.5537415300   -31.9020972700
 1854      H    1270.3316704700   -38.9415336400   -28.7822031700
 1855      C    1273.4072041200   -41.0152372400   -30.3271903400
 1856      H    1273.6352498300   -42.1910037900   -28.7318097600
 1857      H    1274.0062571400   -42.3517426200   -31.8397328100
 1858      C    1275.4172722700   -39.0008476800   -29.8930122500
 1859      H    1275.3942164700   -37.4113740600   -31.2326494600
 1860      H    1275.2769805100   -38.1336211900   -28.0776395100
 1861      C    1278.0516470700   -40.1349182100   -30.3398456700
 1862      H    1278.3836138600   -41.5003590900   -28.9050263600
 1863      H    1278.3684613200   -40.9440438000   -32.1606309400
 1864      C    1280.1799856900   -38.2267510600   -29.9345087300
 1865      H    1280.0617568200   -36.8768243200   -31.4326259400
 1866      H    1280.0082117300   -37.2773144900   -28.1359813500
 1867      C    1282.9005228200   -39.2796625200   -30.0781766300
 1868      H    1283.4638158200   -40.7190222400   -28.6465775800
 1869      H    1283.1159702000   -40.1341509600   -31.8062607900
 1870      C    1284.8713304800   -37.2254846000   -29.7064163400
 1871      H    1286.6663219600   -38.2548359100   -29.8224181000
 1872      H    1284.9628050800   -36.4102199200   -27.9388045600
 1873      H    1284.9389285000   -35.6706051800   -30.9677108100
 1874      H    1294.3694037900   -71.3616308900   -34.1796394300
 1875      C    1292.8508017900   -70.1989868700   -33.2179250600
 1876      H    1293.6667518500   -69.3833374000   -31.5054251100
 1877      H    1292.3729329900   -68.5499667100   -34.4466014400
 1878      C    1290.3132834900   -71.6498145500   -33.3722265200
 1879      H    1290.0002951400   -71.9208337100   -35.3651956200
 1880      H    1290.8067551100   -73.4247152600   -32.4052897200
 1881      C    1288.2659712300   -70.1717046100   -32.1221892100
 1882      H    1288.7900952400   -70.0431014300   -30.1496873200
 1883      H    1287.9625745600   -68.4086584600   -32.9790818600
 1884      C    1285.5999963300   -71.4925992600   -32.1638301400
 1885      H    1284.7067546600   -71.7457531300   -34.0242539200
 1886      H    1285.5749753800   -73.2558022800   -30.9932198900
 1887      C    1283.8803452600   -69.6944697400   -30.7904145800
 1888      H    1284.6573352100   -69.2692557200   -28.8883903700
 1889      H    1283.9023056500   -67.8745035300   -31.6197649400
 1890      C    1281.1423191200   -70.5547080900   -30.4614726400
 1891      H    1280.4481929100   -70.3726711700   -32.3380415000
 1892      H    1280.9601346100   -72.5655565600   -30.1997940900
 1893      C    1279.4664772100   -69.1126746400   -28.5285551600
 1894      H    1280.3896243300   -69.8815735200   -26.8274458000
 1895      H    1280.0819426100   -67.1555038800   -28.4836278000
 1896      C    1276.6035300700   -69.4591300800   -28.6368289400
 1897      H    1275.7375079800   -68.9398808100   -30.4909722400
 1898      H    1276.3239947300   -71.4310569900   -28.6098386400
 1899      C    1275.1557609100   -68.2360988700   -26.4799872800
 1900      H    1275.3144704900   -69.3553566300   -24.6535002500
 1901      H    1275.8637833800   -66.1705270300   -26.0532396300
 1902      C    1272.2926747900   -68.1590583400   -27.0753792900
 1903      H    1272.0532285200   -67.3270911600   -28.9157380400
 1904      H    1271.3923318200   -70.0120934200   -26.8155753200
 1905      C    1271.1131249900   -66.3914532600   -25.0113255000
 1906      H    1272.0343783100   -66.8320380600   -23.1753008000
 1907      H    1271.5201131000   -64.3830222600   -25.2679231700
 1908      C    1268.2829639000   -66.7923627800   -24.8106001200
 1909      H    1267.7643758600   -68.8072584700   -24.5262330700
 1910      H    1267.1691765600   -65.8187710800   -26.4424398700
 1911      H    1267.6380727300   -65.9406223800   -23.0562037700
 ----------------------------------------------------------------
 Nuclear Repulsion Energy =           0.00000000 hartrees
 There are       48 alpha and       48 beta electrons
 Total job time:  121.73s(wall), 240.48s(cpu) 
 Wed Jun 22 08:07:44 2022

        *************************************************************
        *                                                           *
        *  Thank you very much for using Q-Chem.  Have a nice day.  *
        *                                                           *
        *************************************************************


