                  Welcome to Q-Chem
     A Quantum Leap Into The Future Of Chemistry


 Q-Chem 5.4 (devel), Q-Chem, Inc., Pleasanton, CA (2021)

 E. Epifanovsky,  A. T. B. Gilbert,  Xintian Feng,  Joonho Lee,  Yuezhi Mao,  
 N. Mardirossian,  P. Pokhilko,  A. White,  M. Wormit,  M. P. Coons,  
 A. L. Dempwolff,  Zhengting Gan,  D. Hait,  P. R. Horn,  L. D. Jacobson,  
 I. Kaliman,  J. Kussmann,  A. W. Lange,  Ka Un Lao,  D. S. Levine,  Jie Liu,  
 S. C. McKenzie,  A. F. Morrison,  K. Nanda,  F. Plasser,  D. R. Rehn,  
 M. L. Vidal,  Zhi-Qiang You,  Ying Zhu,  B. Alam,  B. Albrecht,  
 A. Aldossary,  E. Alguire,  J. H. Andersen,  D. Barton,  K. Begam,  A. Behn,  
 Y. A. Bernard,  E. J. Berquist,  H. Burton,  A. Carreras,  K. Carter-Fenk,  
 R. Chakraborty,  A. D. Chien,  K. D. Closser,  V. Cofer-Shabica,  
 S. Dasgupta,  Jia Deng,  M. de Wergifosse,  M. Diedenhofen,  Hainam Do,  
 S. Ehlert,  Po-Tung Fang,  S. Fatehi,  Qingguo Feng,  T. Friedhoff,  
 J. Gayvert,  Qinghui Ge,  G. Gidofalvi,  M. Goldey,  J. Gomes,  
 C. Gonzalez-Espinoza,  S. Gulania,  A. Gunina,  M. W. D. Hanson-Heine,  
 P. H. P. Harbach,  A. W. Hauser,  M. F. Herbst,  M. Hernandez Vera,  
 M. Hodecker,  Z. C. Holden,  S. Houck,  Xunkun Huang,  Kerwin Hui,  
 B. C. Huynh,  M. Ivanov,  Hyunjun Ji,  Hanjie Jiang,  B. Kaduk,  S. Kaehler,  
 K. Khistyaev,  Jaehoon Kim,  P. Klunzinger,  Z. Koczor-Benda,  
 Joong Hoon Koh,  D. Kosenkov,  L. Koulias,  T. Kowalczyk,  C. M. Krauter,  
 K. Kue,  A. Kunitsa,  T. Kus,  A. Landau,  K. V. Lawler,  D. Lefrancois,  
 S. Lehtola,  Rain Li,  Yi-Pei Li,  Jiashu Liang,  M. Liebenthal,  
 Hung-Hsuan Lin,  You-Sheng Lin,  Fenglai Liu,  Kuan-Yu Liu,  
 M. Loipersberger,  A. Luenser,  A. Manjanath,  P. Manohar,  E. Mansoor,  
 S. F. Manzer,  Shan-Ping Mao,  A. V. Marenich,  T. Markovich,  S. Mason,  
 S. A. Maurer,  P. F. McLaughlin,  M. F. S. J. Menger,  J.-M. Mewes,  
 S. A. Mewes,  P. Morgante,  J. W. Mullinax,  K. J. Oosterbaan,  G. Paran,  
 Alexander C. Paul,  Suranjan K. Paul,  F. Pavosevic,  Zheng Pei,  S. Prager,  
 E. I. Proynov,  E. Ramos,  B. Rana,  A. E. Rask,  A. Rettig,  R. M. Richard,  
 F. Rob,  E. Rossomme,  T. Scheele,  M. Scheurer,  M. Schneider,  
 N. Sergueev,  S. M. Sharada,  W. Skomorowski,  D. W. Small,  C. J. Stein,  
 Yu-Chuan Su,  E. J. Sundstrom,  Zhen Tao,  J. Thirman,  T. Tsuchimochi,  
 N. M. Tubman,  S. P. Veccham,  O. Vydrov,  J. Wenzel,  J. Witte,  A. Yamada,  
 Kun Yao,  S. Yeganeh,  S. R. Yost,  A. Zech,  Igor Ying Zhang,  Xing Zhang,  
 Yu Zhang,  D. Zuev,  A. Aspuru-Guzik,  A. T. Bell,  N. A. Besley,  
 K. B. Bravaya,  B. R. Brooks,  D. Casanova,  Jeng-Da Chai,  S. Coriani,  
 C. J. Cramer,  A. E. DePrince, III,  R. A. DiStasio Jr.,  A. Dreuw,  
 B. D. Dunietz,  T. R. Furlani,  W. A. Goddard III,  S. Grimme,  
 S. Hammes-Schiffer,  T. Head-Gordon,  W. J. Hehre,  Chao-Ping Hsu,  
 T.-C. Jagau,  Yousung Jung,  A. Klamt,  Jing Kong,  D. S. Lambrecht,  
 WanZhen Liang,  N. J. Mayhall,  C. W. McCurdy,  J. B. Neaton,  
 C. Ochsenfeld,  J. A. Parkhill,  R. Peverati,  V. A. Rassolov,  Yihan Shao,  
 L. V. Slipchenko,  T. Stauch,  R. P. Steele,  J. E. Subotnik,  
 A. J. W. Thom,  A. Tkatchenko,  D. G. Truhlar,  T. Van Voorhis,  
 T. A. Wesolowski,  K. B. Whaley,  H. L. Woodcock III,  P. M. Zimmerman,  
 S. Faraji,  P. M. W. Gill,  M. Head-Gordon,  J. M. Herbert,  A. I. Krylov

 Additional authors for Version 5.4.1: 
 S. Kotaru,  Shaozhi Li,  Xiangyuan Li,  F. Matz,  A. Molle,  Haisheng Ren,  
 Yingli Su,  Hung-Yi Tsai,  C. Utku,  Fang Wang

 Contributors to earlier versions of Q-Chem not listed above: 
 R. D. Adamson,  B. Austin,  R. Baer,  J. Baker,  G. J. O. Beran,  
 K. Brandhorst,  S. T. Brown,  E. F. C. Byrd,  A. K. Chakraborty,  
 G. K. L. Chan,  Chun-Min Chang,  Yunqing Chen,  C.-L. Cheng,  
 Siu Hung Chien,  D. M. Chipman,  D. L. Crittenden,  H. Dachsel,  
 R. J. Doerksen,  A. D. Dutoi,  R. G. Edgar,  J. Fosso-Tande,  
 L. Fusti-Molnar,  D. Ghosh,  A. Ghysels,  A. Golubeva-Zadorozhnaya,  
 J. Gonthier,  M. S. Gordon,  S. R. Gwaltney,  G. Hawkins,  J. E. Herr,  
 A. Heyden,  S. Hirata,  E. G. Hohenstein,  G. Kedziora,  F. J. Keil,  
 C. Kelley,  Jihan Kim,  R. A. King,  R. Z. Khaliullin,  P. P. Korambath,  
 W. Kurlancheek,  A. Laurent,  A. M. Lee,  M. S. Lee,  S. V. Levchenko,  
 Ching Yeh Lin,  D. Liotard,  E. Livshits,  R. C. Lochan,  I. Lotan,  
 L. A. Martinez-Martinez,  P. E. Maslen,  N. Nair,  D. P. O'Neill,  
 D. Neuhauser,  E. Neuscamman,  C. M. Oana,  R. Olivares-Amaya,  R. Olson,  
 T. M. Perrine,  B. Peters,  P. A. Pieniazek,  A. Prociuk,  Y. M. Rhee,  
 J. Ritchie,  M. A. Rohrdanz,  E. Rosta,  N. J. Russ,  H. F. Schaefer III,  
 M. W. Schmidt,  N. E. Schultz,  S. Sharma,  N. Shenvi,  C. D. Sherrill,  
 A. C. Simmonett,  A. Sodt,  T. Stein,  D. Stuck,  K. S. Thanthiriwatte,  
 V. Vanovschi,  L. Vogt,  Tao Wang,  A. Warshel,  M. A. Watson,  
 C. F. Williams,  Q. Wu,  X. Xu,  Jun Yang,  W. Zhang,  Yan Zhao

 Please cite Q-Chem as follows:
 Y. Shao et al., Mol. Phys. 113, 184-215 (2015)
 DOI: 10.1080/00268976.2014.952696

 Q-Chem 5.4.1 for Intel X86 EM64T Linux

 Parts of Q-Chem use Armadillo 9.900.5 (Nocturnal Misbehaviour).
 http://arma.sourceforge.net/

 Q-Chem begins on Wed Jun  1 23:30:22 2022  

 Host: p09r14n13.grace.hpc.yale.internal
0

     Scratch files written to /home/tl686/scratch60/qchem_dev/scratch/qchem244003//
 Processing $rem in /home/tl686/qchem_dev/qchem/config/preferences:
 Processing $rem in /home/tl686/.qchemrc:
Applying user defined connections for MM calculations

 Checking the input file for inconsistencies... 	...done.

--------------------------------------------------------------
User input:
--------------------------------------------------------------
$molecule
0   1
 Fe -96.18502821 -56.64536053 -55.63325149    -1  0   0   0   0
C -93.33654043 -54.63998876 -55.48259127    -2  0   0   0   0 
C -99.19338263 -58.49628666 -55.94497228    -2  0   0   0   0
C -98.21907352 -54.10226635 -54.95296508    -2  0   0   0   0
C -95.35370925 -56.75604631 -58.93740483    -2  0   0   0   0
C -95.00133952 -58.30433885 -52.77950655    -2  0   0   0   0
O -91.63486377 -53.54242598 -55.42005224    -3  0   0   0   0
O -101.13166969 -59.36694370 -56.11153030    -3  0   0   0   0 
O -99.36883740 -52.21835102 -54.46409878    -3  0   0   0   0
O -95.14616923 -56.34816446 -61.13391843    -3  0   0   0   0 
O -94.11552775 -59.63072611 -51.15786810    -3  0   0   0   0
H -73.84491767 -44.12140698 -55.62572381      6     13    0    0    0 
C -72.47767107 -43.28959699 -56.96738716     1     12    14    15    16
H -71.70374716 -41.57125545 -56.16536524     6     13    0    0    0
H -70.88466890 -44.53985602 -57.14432516     6     13    0    0    0
C -73.69808024 -42.74165943 -59.59245420     2     13    17    18    19
H -75.07478958 -41.38269039 -59.45637298     6     16    0    0    0
H -72.47411481 -41.94020949 -60.97723271     6     16    0    0    0
C -75.08206310 -44.99416326 -60.69887887     2     16    20   21   22
H -73.75759704 -46.56645912 -60.68604306     6     19    0    0    0
H -76.36612153 -45.41635596 -59.21714396     6     19    0    0    0
C -76.08391675 -44.43034237 -63.48263249     2     19   23   24   25
H -77.20241303 -42.64504157 -63.57569808     6    22    0    0    0
H -74.55414092 -44.11626026 -64.72838767     6    22    0    0    0
C -77.57698601 -46.68843733 -64.47346545     2    22   26   27   28
H -76.30157833 -48.29004668 -64.55770207     6    25    0    0    0
H -79.18085318 -47.17940539 -63.27728222     6    25    0    0    0
C -78.56578941 -46.56274542 -67.21673009     2    25   29   30   31
H -79.60202424 -44.77275705 -67.53833424     6    28    0    0    0
H -76.77379451 -46.73157208 -68.30252851     6    28    0    0    0
C -80.49401223 -48.67533949 -67.84771946     2    28   32   33   34
H -79.66857113 -50.53368374 -67.40438600     6    31    0    0    0
H -82.05894790 -48.51648969 -66.52031057     6    31    0    0    0
C -81.18923974 -48.66744441 -70.70631342     2    31   35   36   37
H -81.94891897 -47.02896965 -71.42296828     6    34    0    0    0
H -79.50051483 -49.17018483 -71.74027518     6    34    0    0    0
C -82.86784682 -50.74732201 -71.48593147     2    34   38   39   40
H -81.92146236 -52.41614280 -70.60859006     6    37    0    0    0
H -84.63558410 -50.60706369 -70.47242426     6    37    0    0    0
C -83.39799411 -51.11531849 -74.39601970     2    37   41   42   43
H -84.52204348 -49.55292092 -75.03404421     6    40    0    0    0
H -81.71282409 -51.35838788 -75.47677330     6    40    0    0    0
C -85.02877404 -53.38407901 -74.68701742     2    40   44   45   46
H -84.10872596 -55.09368556 -73.87913028     6    43    0    0    0
H -86.74833869 -53.38033927 -73.61616871     6    43    0    0    0
C -85.57826669 -53.85585660 -77.58240671     1    43   47   48   49
H -86.46909603 -52.21426806 -78.30072735     6    46    0    0    0
H -87.07394239 -55.36177096 -77.63528208     6    46    0    0    0
H -83.90654170 -54.29154621 -78.80587803     6    46    0    0    0
H -84.91418519 -58.44421286 -61.58889515     6     51    0    0    0 
C -85.82551473 -58.75665844 -63.36290358     1     50    52    53    54
H -85.47027059 -60.85703225 -63.73285296     6     51    0    0    0
H -87.82750269 -58.21378484 -63.45634379     6     51    0    0    0
C -84.18468319 -57.34312999 -65.17139102     2     51    55    56    57
H -84.45204335 -55.25906468 -65.07357750     6     54    0    0    0
H -82.25589247 -57.70565814 -64.99157956     6     54    0    0    0
C -84.79864158 -58.05756617 -67.96753794     2     54    58   59   60
H -86.71537526 -58.78374527 -68.14334592     6     57    0    0    0
H -84.50315234 -56.36937056 -69.08806779     6     57    0    0    0
C -83.11242745 -60.13459447 -68.93999927     2     57   61   62   63
H -81.36681661 -59.41343534 -69.37537937     6    60    0    0    0
H -82.93603769 -61.52323245 -67.45299035     6    60    0    0    0
C -84.30137637 -61.25081254 -71.41355689     2    60   64   65   66
H -85.95788707 -62.24153036 -70.98524533     6    63    0    0    0
H -84.61330216 -59.55188631 -72.84500878     6    63    0    0    0
C -82.54584842 -63.25006728 -72.71593131     2    63   67   68   69
H -83.17120660 -63.63552333 -74.72340588     6    66    0    0    0
H -80.66170942 -62.52890773 -73.27159346     6    66    0    0    0
C -82.41853493 -65.62567991 -71.29518279     2    66   70   71   72
H -81.47360097 -65.33060229 -69.56377086     6    69    0    0    0
H -84.20076116 -66.22566793 -70.82870346     6    69    0    0    0
C -80.96661699 -67.58721496 -72.94047767     2    69   73   74   75
H -82.13226667 -68.29168678 -74.49141805     6    72    0    0    0
H -79.34609431 -66.62821209 -73.79660711     6    72    0    0    0
C -80.27504023 -69.78736349 -71.27227560     2    72   76   77   78
H -79.32294021 -69.03717971 -69.62709562     6    75    0    0    0
H -81.92509563 -70.78783948 -70.48303690     6    75    0    0    0
C -78.45812026 -71.66477719 -72.52892024     2    75   79   80   81
H -79.40794181 -72.41874607 -74.32317473     6    78    0    0    0
H -76.67886818 -70.75012619 -73.10124639     6    78    0    0    0
C -77.85061319 -73.91870347 -70.62677834     2    78   82   83   84
H -76.97260825 -73.10366963 -68.94819301     6    81    0    0    0
H -79.49251994 -74.78382495 -69.88026696     6    81    0    0    0
C -76.27795195 -76.01971779 -71.81454585     1    81   85   86   87
H -75.73510925 -77.41784471 -70.51930579     6    84    0    0    0
H -74.59807204 -75.49260764 -72.61098875     6    84    0    0    0
H -77.32537382 -76.93938767 -73.52996782     6    84    0    0    0
H -83.49998834 -29.88116388 -84.02046520     6     89    0    0    0 
C -83.14463833 -30.63610838 -85.85366439     1     88    90    91    92
H -84.94164794 -30.91079812 -86.78816365     6     89    0    0    0
H -81.95682009 -29.25442201 -86.89582592     6     89    0    0    0
C -81.65071106 -33.14043364 -85.26036618     2     89    93    94    95
H -79.90640919 -32.68447107 -84.49005322     6     92    0    0    0
H -82.68194101 -34.21632360 -83.88576376     6     92    0    0    0
C -80.78376615 -34.77143837 -87.57116354     2     92    96   97   98
H -82.42787450 -34.68023289 -88.86755741     6     95    0    0    0
H -79.24181156 -33.83430251 -88.55076224     6     95    0    0    0
C -80.06733237 -37.45012860 -86.65745020     2     95   99   100   101
H -78.77599282 -37.04586605 -85.03733577     6    98    0    0    0
H -81.84600201 -38.32186038 -86.02121632     6    98    0    0    0
C -78.75557985 -38.90193522 -88.74071443     2    98   102   103   104
H -79.95243031 -39.09794225 -90.48355708     6    101    0    0    0
H -76.87015632 -38.04893730 -89.11012733     6    101    0    0    0
C -78.18804516 -41.52959439 -87.90840760     2    101   105   106   107
H -76.73045253 -41.48207263 -86.36062131     6    104    0    0    0
H -79.94625003 -42.32659540 -87.19793300     6    104    0    0    0
C -77.60634791 -43.57675104 -89.91841416     2    104   108   109   110
H -79.28702761 -43.63232751 -91.00680123     6    107    0    0    0
H -76.06740804 -42.97983492 -91.08569626     6    107    0    0    0
C -77.30140163 -46.26990048 -88.67783282     2    107   111   112   113
H -75.80107383 -46.18598957 -87.22425460     6    110    0    0    0
H -78.94071781 -46.85215833 -87.59456593     6    110    0    0    0
C -76.80268803 -48.25378331 -90.64890053     2    110   114   115   116
H -78.46035085 -49.21901801 -91.39851517     6    113    0    0    0
H -76.22404703 -47.46531637 -92.48582576     6    113    0    0    0
C -74.77334404 -50.06311568 -89.55834047     2    113   117   118   119
H -73.35963258 -48.85539472 -88.56599196     6    116    0    0    0
H -75.48673234 -51.22207720 -88.03816358     6    116    0    0    0
C -73.54537055 -51.50699409 -91.78894394     2    116   120   121   122
H -75.12047544 -52.30190626 -92.91951643     6    119    0    0    0
H -72.24061596 -50.17889168 -92.79841189     6    119    0    0    0
C -72.00488301 -53.77156226 -91.03970660     1    119   123   124   125
H -71.84907901 -54.88733091 -92.81034207     6    122    0    0    0
H -73.26528888 -54.93511165 -89.83973908     6    122    0    0    0
H -70.26422128 -53.47585391 -89.99079086     6    122    0    0    0
H -110.22144510 -38.70821274 -80.43773668     6     127    0    0    0 
C -110.26045812 -39.92595526 -78.73844308     1     126    128    129    130
H -112.26000411 -40.05993173 -78.10252599     6     127    0    0    0
H -109.49995836 -41.91943892 -79.01753307     6     127    0    0    0
C -108.58216853 -38.66658995 -76.63008066     2     127    131    132    133
H -106.70415995 -37.97974353 -77.26809708     6     130    0    0    0
H -109.63028187 -36.96375715 -75.74354390     6     130    0    0    0
C -107.92410172 -40.62391054 -74.46614020     2     130    134   135   136
H -109.53687379 -41.92983207 -74.03809892     6     133    0    0    0
H -106.24638529 -41.61707494 -75.16622863     6     133    0    0    0
C -107.26140156 -39.39293259 -71.98104124     2     133   137   138   139
H -105.53418698 -38.32918499 -72.26446206     6    136    0    0    0
H -108.83669223 -38.23165579 -71.46314893     6    136    0    0    0
C -106.69838433 -41.25165792 -69.90145131     2    136   140   141   142
H -108.28871974 -42.53377443 -69.65800904     6    139    0    0    0
H -105.07917988 -42.46004337 -70.37536320     6    139    0    0    0
C -106.07324123 -39.80724026 -67.36010703     2    139   143   144   145
H -104.74039284 -38.21777588 -67.63726004     6    142    0    0    0
H -107.86715109 -39.07545870 -66.77493735     6    142    0    0    0
C -105.34540930 -41.58509792 -65.06219208     2    142   146   147   148
H -106.70732421 -42.94556484 -64.63743810     6    145    0    0    0
H -103.81249840 -42.79257825 -65.52121142     6    145    0    0    0
C -104.81533346 -39.97132934 -62.66541371     2    145   149   150   151
H -103.29160757 -38.68333240 -63.26885607     6    148    0    0    0
H -106.36130079 -38.76749235 -62.11464838     6    148    0    0    0
C -104.25111741 -41.58290843 -60.33605714     2    148   152   153   154
H -105.89279000 -42.77927485 -59.81450880     6    151    0    0    0
H -102.69511828 -42.73991665 -60.70322851     6    151    0    0    0
C -103.21958817 -40.19704104 -58.01255643     2    151   155   156   157
H -102.85196065 -41.65594187 -56.65313746     6    154    0    0    0
H -101.26453977 -39.65044575 -58.57767209     6    154    0    0    0
C -104.74761045 -38.05383148 -56.70118214     2    154   158   159   160
H -105.00988283 -36.31190813 -57.87040905     6    157    0    0    0
H -106.70400599 -38.48287730 -56.20970771     6    157    0    0    0
C -103.43283418 -37.22094283 -54.37792235     1    157   161   162   163
H -103.55467669 -38.50146648 -52.82865020     6    160    0    0    0
H -104.03731185 -35.33016051 -53.87367893     6    160    0    0    0
H -101.41949914 -36.91905376 -54.59939546     6    160    0    0    0
H -107.15339019 -61.89631587 -90.90525598     6     165    0    0    0 
C -107.86496073 -60.77251375 -89.33190643     1     164    166    167    168
H -109.37936835 -61.93122175 -88.46620225     6     165    0    0    0
H -106.37563740 -60.80546677 -87.94845015     6     165    0    0    0
C -108.94929373 -58.12616838 -90.30278998     2     165    169    170    171
H -107.38058631 -56.89970050 -90.99892581     6     168    0    0    0
H -110.26967918 -58.25171883 -91.77978105     6     168    0    0    0
C -110.14512231 -56.61013412 -88.10703957     2     168    172   173   174
H -111.88449405 -57.54689107 -87.68032851     6     171    0    0    0
H -108.79955975 -56.57061622 -86.52173602     6     171    0    0    0
C -110.39580303 -53.80392290 -88.64582994     2     171   175   176   177
H -108.51679161 -52.88508710 -89.22839343     6    174    0    0    0
H -111.42586444 -53.31074689 -90.40093471     6    174    0    0    0
C -111.55882584 -52.39771163 -86.48315186     2    174   178   179   180
H -113.33150522 -53.24966935 -85.87376809     6    177    0    0    0
H -110.42494909 -52.50485241 -84.75232081     6    177    0    0    0
C -112.03156368 -49.56941216 -87.04432621     2    177   181   182   183
H -110.14606578 -48.74546278 -87.14824379     6    180    0    0    0
H -112.99736628 -49.41715591 -88.74368372     6    180    0    0    0
C -113.29291350 -48.37940962 -84.92559902     2    180   184   185   186
H -115.15998000 -49.31370085 -84.77389339     6    183    0    0    0
H -112.47135320 -49.09004580 -83.27037912     6    183    0    0    0
C -113.49819478 -45.59136397 -84.87665192     2    183   187   188   189
H -111.55191803 -44.86154149 -84.50634810     6    186    0    0    0
H -114.37811572 -45.08822184 -86.72560792     6    186    0    0    0
C -115.20838771 -44.63159315 -82.81111021     2    186   190   191   192
H -117.17983119 -45.24949505 -83.17687611     6    189    0    0    0
H -114.78132942 -45.42680811 -80.96449459     6    189    0    0    0
C -115.63262746 -41.81652168 -82.75761558     2    189   193   194   195
H -113.90559880 -40.82938957 -82.64968277     6    192    0    0    0
H -116.34367750 -41.46001668 -84.63260928     6    192    0    0    0
C -117.25217761 -40.89066039 -80.45905465     2    192   196   197   198
H -116.64663605 -41.93045270 -78.91860088     6    195    0    0    0
H -116.83069815 -38.87222153 -79.85691130     6    195    0    0    0
C -120.05598370 -41.32638743 -81.03673984     1    195   199   200   201
H -121.19807016 -41.42266030 -79.34300267     6    198    0    0    0
H -120.18625683 -43.25640717 -81.75525968     6    198    0    0    0
H -120.98589453 -39.97116798 -82.19568609     6    198    0    0    0
H -105.86008499 -62.58178487 -78.49283208     6     203    0    0    0 
C -104.80878013 -63.06289961 -80.28891452     1     202    204    205    206
H -104.76816946 -61.24184616 -81.47687398     6     203    0    0    0
H -102.91919481 -63.28553699 -79.66848848     6     203    0    0    0
C -105.85674314 -65.25178574 -81.86770896     2     203    207    208    209
H -107.89647925 -65.03115397 -81.90610218     6     206    0    0    0
H -105.57996315 -64.85698510 -83.91591661     6     206    0    0    0
C -104.70982834 -67.82281573 -81.19880100     2     206    210   211   212
H -103.42773788 -68.51188093 -82.60045598     6     209    0    0    0
H -103.66953511 -67.70182045 -79.48564397     6     209    0    0    0
C -106.77030205 -69.75376504 -80.54462149     2     209   213   214   215
H -107.76320610 -68.63055446 -79.11243240     6    212    0    0    0
H -108.24585099 -69.79174432 -82.01824846     6    212    0    0    0
C -106.19281382 -72.52988952 -79.75807916     2    212   216   217   218
H -105.69617084 -73.41208052 -81.50377591     6    215    0    0    0
H -104.59456548 -72.53882701 -78.42949271     6    215    0    0    0
C -108.70839033 -73.80461383 -78.76448775     2    215   219   220   221
H -109.38065647 -72.41706258 -77.29220700     6    218    0    0    0
H -109.94741201 -73.92085836 -80.37525045     6    218    0    0    0
C -108.05353338 -76.32935069 -77.55187036     2    218   222   223   224
H -107.37037573 -77.49553684 -79.10803119     6    221    0    0    0
H -106.55057995 -76.10068039 -76.13998237     6    221    0    0    0
C -110.31550826 -77.76795281 -76.40275893     2    221   225   226   227
H -111.58706379 -76.66669119 -75.12440988     6    224    0    0    0
H -111.59636348 -78.19109699 -77.86030724     6    224    0    0    0
C -109.74057285 -80.16033806 -74.84774466     2    224   228   229   230
H -108.14700986 -81.29089605 -75.47675304     6    227    0    0    0
H -109.23659951 -79.81147465 -72.86683531     6    227    0    0    0
C -112.04171850 -81.95928485 -74.63819917     2    227   231   232   233
H -113.50792129 -80.49767086 -74.14322639     6    230    0    0    0
H -112.43815463 -82.97655459 -76.45795609     6    230    0    0    0
C -112.17100276 -83.97455716 -72.64491495     2    230   234   235   236
H -111.51714013 -85.76560922 -73.56739524     6    233    0    0    0
H -110.82110548 -83.63688447 -71.03217101     6    233    0    0    0
C -114.82207914 -84.48033051 -71.96710373     1    233   237   238   239
H -114.91239239 -85.95906424 -70.52002180     6    236    0    0    0
H -116.07608695 -84.94794046 -73.63141124     6    236    0    0    0
H -116.00399326 -82.90321330 -71.23331958     6    236    0    0    0
H -82.77111265 -69.91749671 -83.89979537     6     241    0    0    0 
C -81.32493374 -69.12876614 -82.67922387     1     240    242    243    244
H -81.34698545 -67.19953655 -83.23889641     6     241    0    0    0
H -81.90006371 -69.12543928 -80.70661748     6     241    0    0    0
C -78.79939960 -70.39231203 -82.79974077     2     241    245    246    247
H -79.11752303 -72.40371892 -82.52823784     6     244    0    0    0
H -77.99149080 -70.15695304 -84.72603973     6     244    0    0    0
C -76.93814266 -69.53946201 -80.72110851     2     244    248   249   250
H -76.64098351 -67.45615331 -80.49873343     6     247    0    0    0
H -77.76847449 -69.72485685 -78.82120081     6     247    0    0    0
C -74.59011598 -71.17099642 -80.75418252     2     247   251   252   253
H -74.26764294 -71.84436545 -82.64006313     6    250    0    0    0
H -73.09069061 -69.71583339 -80.45036174     6    250    0    0    0
C -74.12979754 -73.21005671 -78.79532079     2    250   254   255   256
H -74.72033869 -72.63969118 -76.98491830     6    253    0    0    0
H -75.53038202 -74.77735736 -79.29188348     6    253    0    0    0
C -71.39966012 -74.07352660 -79.07290421     2    253   257   258   259
H -70.78787733 -74.45710071 -81.00050681     6    256    0    0    0
H -70.20047171 -72.52758472 -78.37854945     6    256    0    0    0
C -70.89684046 -76.47743819 -77.56199206     2    256   260   261   262
H -71.67529619 -76.44973765 -75.65520765     6    259    0    0    0
H -71.74946726 -78.20170986 -78.47313101     6    259    0    0    0
C -68.16189614 -77.30036696 -77.30744866     2    259   263   264   265
H -67.26458346 -77.55273665 -79.21949959     6    262    0    0    0
H -67.37824248 -75.79707529 -76.27516689     6    262    0    0    0
C -67.59966199 -79.81724963 -75.96686980     2    262   266   267   268
H -68.64957514 -80.24126011 -74.06720799     6    265    0    0    0
H -68.19911991 -81.50817623 -77.04163904     6    265    0    0    0
C -64.76082388 -79.94377155 -75.25291168     2    265   269   270   271
H -63.65923023 -78.98350137 -76.71855289     6    268    0    0    0
H -64.74626604 -78.98021087 -73.53674979     6    268    0    0    0
C -63.76762926 -82.57845445 -74.98996429     2    268   272   273   274
H -64.90549321 -83.26176471 -73.26190864     6    271    0    0    0
H -64.29481310 -83.74799308 -76.64350042     6    271    0    0    0
C -60.84278557 -82.77649440 -74.59799038     1    271   275   276   277
H -59.75737853 -82.29374886 -76.29353217     6    274    0    0    0
H -60.52155108 -84.74257998 -73.97927143     6    274    0    0    0
H -60.32337279 -81.69365387 -72.94730277     6    274    0    0    0
H -99.71848614 -64.40288558 -91.26739620     6     279    0    0    0 
C -99.49545528 -62.65737674 -90.18308418     1     278    280    281    282
H -97.64751562 -61.92702632 -90.52618641     6     279    0    0    0
H -100.89795466 -61.32655513 -90.72057723     6     279    0    0    0
C -99.82798596 -63.42843404 -87.40391870     2     279    283    284    285
H -98.91209579 -61.97549116 -86.31832155     6     282    0    0    0
H -101.80818795 -63.58335776 -86.89250529     6     282    0    0    0
C -98.11229448 -65.61486236 -86.48600537     2     282    286   287   288
H -98.93151515 -67.49868498 -86.95596990     6     285    0    0    0
H -96.42405022 -65.59968424 -87.61108604     6     285    0    0    0
C -97.57537418 -65.35986816 -83.65397439     2     285   289   290   291
H -96.71170305 -63.59122471 -83.41597063     6    288    0    0    0
H -99.21996303 -65.09492897 -82.47836965     6    288    0    0    0
C -95.67357907 -67.31119057 -82.79502391     2    288   292   293   294
H -94.16394826 -67.51053001 -84.16451634     6    291    0    0    0
H -94.84484477 -66.84233856 -80.91022322     6    291    0    0    0
C -96.92300472 -69.87897048 -82.41339505     2    291   295   296   297
H -98.24589850 -69.55765830 -80.79091914     6    294    0    0    0
H -97.95326238 -70.44195995 -84.08819113     6    294    0    0    0
C -94.88993097 -71.91301193 -81.90524707     2    294   298   299   300
H -94.25389405 -72.28480939 -83.86653697     6    297    0    0    0
H -93.18878666 -71.16850765 -81.15317255     6    297    0    0    0
C -95.69328171 -74.22897976 -80.32696973     2    297   301   302   303
H -96.36002603 -73.59137810 -78.40702672     6    300    0    0    0
H -97.52569867 -74.94897735 -81.19274404     6    300    0    0    0
C -93.74785739 -76.25315384 -80.35835913     2    300   304   305   306
H -93.80268418 -77.01852471 -82.29374199     6    303    0    0    0
H -91.84871749 -75.63092886 -80.16304469     6    303    0    0    0
C -94.13357577 -78.15983156 -78.10876526     2    303   307   308   309
H -94.44474178 -77.31593389 -76.29545660     6    306    0    0    0
H -95.91524574 -79.01539804 -78.34922924     6    306    0    0    0
C -92.29934860 -80.33729619 -77.83258278     2    306   310   311   312
H -92.32278763 -81.67559629 -79.40186127     6    309    0    0    0
H -90.32613942 -79.59531760 -77.68294039     6    309    0    0    0
C -92.52155307 -82.00272244 -75.44872813     1    309   313   314   315
H -90.98830182 -83.46675876 -75.43764986     6    312    0    0    0
H -94.28909230 -82.95890936 -75.32738501     6    312    0    0    0
H -92.42084423 -81.00454558 -73.60316212     6    312    0    0    0
H -100.03739392 -39.87531625 -79.07521106     6     317    0    0    0 
C -98.14812752 -40.78907246 -78.88677516     1     316    318    319    320
H -98.11087200 -42.74449846 -79.71147566     6     317    0    0    0
H -96.75939454 -39.71008477 -79.90922225     6     317    0    0    0
C -96.94180393 -40.98072791 -76.32061870     2     317    321    322    323
H -94.92799385 -41.43376364 -76.64026976     6     320    0    0    0
H -97.13565242 -39.04637646 -75.32035965     6     320    0    0    0
C -98.07784691 -42.94090951 -74.38259430     2     320    324   325   326
H -100.02067202 -42.71527993 -74.46517895     6     323    0    0    0
H -97.68481546 -44.93037970 -74.86515606     6     323    0    0    0
C -97.10940641 -42.40393136 -71.75335061     2     323   327   328   329
H -95.12138442 -42.56248688 -71.78532391     6    326    0    0    0
H -97.61476362 -40.53905901 -71.11690183     6    326    0    0    0
C -98.09114424 -44.18453496 -69.65240659     2    326   330   331   332
H -100.12683165 -44.07753042 -69.44714269     6    329    0    0    0
H -97.89423862 -46.13464444 -70.33228024     6    329    0    0    0
C -96.75163418 -44.03873789 -67.07993828     2    329   333   334   335
H -94.82711940 -44.07005864 -67.35998700     6    332    0    0    0
H -97.28660691 -42.15128248 -66.14459001     6    332    0    0    0
C -97.26006211 -46.36149774 -65.29812872     2    332   336   337   338
H -99.23698650 -46.75562154 -65.60386527     6    335    0    0    0
H -96.13398972 -47.97607278 -65.78664531     6    335    0    0    0
C -96.86957771 -45.64299980 -62.52281547     2    335   339   340   341
H -95.12926677 -44.52892475 -62.24497715     6    338    0    0    0
H -98.48007639 -44.37002468 -62.14558778     6    338    0    0    0
C -96.65351053 -47.92539657 -60.53245247     2    338   342   343   344
H -98.54687842 -48.76587262 -60.25455640     6    341    0    0    0
H -95.38215632 -49.37378818 -61.49426217     6    341    0    0    0
C -95.50394537 -46.94303550 -58.06281769     2    341   345   346   347
H -94.92062553 -48.55697088 -56.96863745     6    344    0    0    0
H -93.70756267 -45.97810893 -58.47941292     6    344    0    0    0
C -97.28757081 -45.34002587 -56.52660067     2    344   348   349   350
H -98.03385262 -43.70803006 -57.59528966     6    347    0    0    0
H -98.95600501 -46.43656750 -55.99379017     6    347    0    0    0
C -96.03835989 -44.58258292 -53.97892203     1    347   351   352   353
H -95.57765578 -46.37314824 -52.95990182     6    350    0    0    0
H -97.12978424 -43.57646482 -52.67079780     6    350    0    0    0
H -94.16905069 -43.65047307 -54.14130885     6    350    0    0    0
H -85.87344848 -66.36322243 -84.61735667     6     355    0    0    0 
C -86.60223347 -66.51728118 -86.47253341     1     354    356    357    358
H -85.00389478 -66.09267954 -87.61748510     6     355    0    0    0
H -86.89864749 -68.50790309 -86.60584952     6     355    0    0    0
C -89.18532037 -65.27993318 -86.57291155     2     355    359    360    361
H -90.30395165 -65.86392486 -88.15357664     6     358    0    0    0
H -90.27786269 -65.59288080 -84.84266475     6     358    0    0    0
C -88.84013952 -62.32171390 -86.61268502     2     358    362   363   364
H -87.89106827 -61.72893154 -84.89165076     6     361    0    0    0
H -87.45974212 -61.90063385 -88.20509241     6     361    0    0    0
C -91.37274259 -61.13000374 -87.14359435     2     361   365   366   367
H -92.07403168 -61.70223339 -88.95532885     6    364    0    0    0
H -92.74012136 -62.02335626 -85.93349297     6    364    0    0    0
C -91.53873152 -58.35662954 -86.71068724     2    364   368   369   370
H -91.12335224 -57.71045063 -84.69946641     6    367    0    0    0
H -90.07203523 -57.46130843 -88.00022009     6    367    0    0    0
C -94.21146231 -57.26753035 -87.55917635     2    367   371   372   373
H -94.48826526 -57.98511876 -89.43741338     6    370    0    0    0
H -95.63546359 -57.89164386 -86.24256709     6    370    0    0    0
C -94.01235220 -54.30080718 -87.40086566     2    370   374   375   376
H -92.98137981 -53.87759912 -85.69165743     6    373    0    0    0
H -92.47719337 -53.57948420 -88.75282414     6    373    0    0    0
C -96.66135419 -53.00323454 -87.50341335     2    373   377   378   379
H -97.51515682 -53.27025517 -89.32121483     6    376    0    0    0
H -97.93499217 -54.09052038 -86.46422949     6    376    0    0    0
C -96.70806834 -50.07636162 -86.74832931     2    376   380   381   382
H -95.71928403 -50.09925945 -84.96409056     6    379    0    0    0
H -95.69529959 -48.97493062 -88.18656857     6    379    0    0    0
C -99.44118434 -49.04261882 -86.32054560     2    379   383   384   385
H -100.55456565 -49.58494285 -88.01276362     6    382    0    0    0
H -100.42816568 -50.19572911 -84.84469585     6    382    0    0    0
C -99.56440519 -46.27231377 -85.73916897     2    382   386   387   388
H -101.34351844 -45.75540346 -84.89045741     6    385    0    0    0
H -98.18193322 -45.98391362 -84.22821276     6    385    0    0    0
C -98.91536351 -44.57618690 -87.90967083     1    385   389   390   391
H -100.03943763 -45.02239342 -89.60451717     6    388    0    0    0
H -96.84835032 -44.76739548 -88.34706914     6    388    0    0    0
H -99.25006889 -42.51596697 -87.26749142     6    388    0    0    0
H -93.43352285 -52.44068716 -34.80373896     6     393    0    0    0 
C -91.40404134 -52.57154167 -34.53446562     1     392    394    395    396
H -91.09628621 -50.47750904 -34.30999070     6     393    0    0    0
H -91.30888417 -53.40166246 -32.66781036     6     393    0    0    0
C -89.75158968 -53.73220892 -36.55531545     2     393    397    398    399
H -90.27137486 -55.69424869 -36.84645685     6     396    0    0    0
H -90.24799525 -52.59077867 -38.18468683     6     396    0    0    0
C -86.91195952 -53.41496991 -36.21181398     2     396    400   401   402
H -86.35036243 -51.37950695 -35.97747834     6     399    0    0    0
H -86.13091322 -54.39645090 -34.57877285     6     399    0    0    0
C -85.44126742 -54.09748058 -38.50641397     2     399   403   404   405
H -86.38092039 -53.38495187 -40.30032847     6    402    0    0    0
H -83.65935554 -53.23592165 -38.41523339     6    402    0    0    0
C -84.99733000 -57.03640427 -38.76835831     2    402   406   407   408
H -83.89253279 -57.64173286 -37.11480427     6    405    0    0    0
H -86.65947638 -58.19464329 -39.19537822     6    405    0    0    0
C -82.93678222 -57.54108997 -40.78230443     2    405   409   410   411
H -83.58578571 -57.02839845 -42.75302384     6    408    0    0    0
H -81.51065759 -56.18345033 -40.37025672     6    408    0    0    0
C -81.86240590 -60.22239594 -40.61513403     2    408   412   413   414
H -81.10846061 -60.39169329 -38.71726918     6    411    0    0    0
H -83.26689739 -61.64593940 -40.84082197     6    411    0    0    0
C -79.92181411 -60.62344177 -42.63905853     2    411   415   416   417
H -80.66746322 -60.04604356 -44.56573128     6    414    0    0    0
H -78.43627105 -59.35753083 -42.24569208     6    414    0    0    0
C -79.15896164 -63.39697927 -43.22054166     2    414   418   419   420
H -77.93104600 -64.32611206 -41.68617922     6    417    0    0    0
H -80.75794786 -64.49875178 -43.60460014     6    417    0    0    0
C -77.44431737 -63.76381607 -45.47519462     2    417   421   422   423
H -77.99235973 -62.73433123 -47.19160989     6    420    0    0    0
H -75.56971493 -63.15763783 -44.83709991     6    420    0    0    0
C -77.28732092 -66.55022678 -46.39078743     2    420   424   425   426
H -75.70928516 -66.77266118 -47.71108641     6    423    0    0    0
H -76.71519026 -67.77006117 -44.73424526     6    423    0    0    0
C -79.64025097 -67.65315833 -47.88873482     1    423   427   428   429
H -79.30754796 -69.52847192 -48.63500442     6    426    0    0    0
H -80.17887348 -66.36201450 -49.34732484     6    426    0    0    0
H -81.27975917 -68.01562388 -46.72190438     6    426    0    0    0
H -62.35049400 -52.69645390 -57.64808562     6     431    0    0    0 
C -64.15785581 -51.74529305 -57.51221293     1     430    432    433    434
H -63.99047843 -50.08801692 -56.16283084     6     431    0    0    0
H -64.38407190 -50.95595167 -59.35293692     6     431    0    0    0
C -66.47748896 -53.27962745 -56.86786581     2     431    435    436    437
H -66.78847533 -54.85049104 -58.14374922     6     434    0    0    0
H -66.48088905 -53.97007188 -54.97757426     6     434    0    0    0
C -68.84596240 -51.58608546 -56.77441234     2     434    438   439   440
H -68.34142264 -49.64968882 -56.59664600     6     437    0    0    0
H -69.49711794 -51.59315010 -58.72234786     6     437    0    0    0
C -71.14768262 -51.98095684 -54.86087060     2     437   441   442   443
H -72.75780320 -50.89171738 -55.44910723     6    440    0    0    0
H -71.73677035 -53.96327675 -54.72184660     6    440    0    0    0
C -70.47723225 -51.22033253 -52.18191373     2    440   444   445   446
H -68.96461042 -52.45302775 -51.39282639     6    443    0    0    0
H -69.37341708 -49.51278028 -52.23205436     6    443    0    0    0
C -72.85224953 -51.09778371 -50.40807389     2    443   447   448   449
H -73.99233033 -49.40388189 -50.96564309     6    446    0    0    0
H -74.07911157 -52.78111858 -50.32663894     6    446    0    0    0
C -72.03070646 -50.29641991 -47.73992773     2    446   450   451   452
H -70.79428541 -51.70831120 -46.99373371     6    449    0    0    0
H -71.05843401 -48.44994856 -47.89502759     6    449    0    0    0
C -74.28662293 -49.98337274 -45.91563907     2    449   453   454   455
H -75.83269650 -48.95698700 -46.86934637     6    452    0    0    0
H -75.03963617 -51.78380759 -45.58031909     6    452    0    0    0
C -73.36400705 -49.10198755 -43.21199218     2    452   456   457   458
H -71.87350004 -50.20517606 -42.38604293     6    455    0    0    0
H -72.49415129 -47.24218433 -43.18042410     6    455    0    0    0
C -75.62889020 -48.89774741 -41.39308822     2    455   459   460   461
H -74.88668203 -48.11435985 -39.69665133     6    458    0    0    0
H -77.09147679 -47.73717810 -42.16629330     6    458    0    0    0
C -76.63669696 -51.47134714 -40.74011987     2    458   462   463   464
H -77.75296111 -52.32825351 -42.26121476     6    461    0    0    0
H -75.07389085 -52.71933541 -40.43231102     6    461    0    0    0
C -78.07898787 -51.46991109 -38.29190424     1    461   465   466   467
H -79.73403502 -50.41928314 -38.43716399     6    464    0    0    0
H -76.91545760 -50.71770016 -36.79159799     6    464    0    0    0
H -78.68016633 -53.35234658 -37.83229463     6    464    0    0    0
H -93.17752769 -43.29909248 -84.95394309     6     469    0    0    0 
C -91.80561455 -43.01984008 -83.36454668     1     468    470    471    472
H -90.76528244 -41.32102578 -83.76635656     6     469    0    0    0
H -92.99032064 -42.30907106 -81.86388079     6     469    0    0    0
C -90.19429833 -45.33539167 -82.50945300     2     469    473    474    475
H -89.07601779 -44.87400162 -80.86883449     6     472    0    0    0
H -91.45096458 -46.80162105 -81.84907133     6     472    0    0    0
C -88.21125164 -46.18060901 -84.34826986     2     472    476   477   478
H -89.02793177 -46.33715069 -86.23380039     6     475    0    0    0
H -86.69388498 -44.76694385 -84.29958250     6     475    0    0    0
C -87.14543052 -48.70097600 -83.66341018     2     475   479   480   481
H -86.24496685 -48.66292455 -81.76995080     6    478    0    0    0
H -88.49425500 -50.38314721 -83.72319841     6    478    0    0    0
C -84.95972155 -49.22196624 -85.49815887     2    478   482   483   484
H -85.76574918 -49.33851711 -87.37176854     6    481    0    0    0
H -83.88777361 -47.55056513 -85.46140752     6    481    0    0    0
C -83.42012098 -51.51352763 -84.77435083     2    481   485   486   487
H -82.64176382 -51.02038456 -82.97944096     6    484    0    0    0
H -84.82466373 -53.05573654 -84.38702917     6    484    0    0    0
C -81.44758029 -52.38280680 -86.83021764     2    484   488   489   490
H -82.22019637 -52.01048669 -88.74825027     6    487    0    0    0
H -79.63311302 -51.53118761 -86.64205663     6    487    0    0    0
C -81.07348900 -55.28624020 -86.49409353     2    487   491   492   493
H -80.43752085 -55.72142412 -84.62437132     6    490    0    0    0
H -82.87729169 -56.26309928 -86.61538826     6    490    0    0    0
C -79.06392380 -56.35825408 -88.28698163     2    490   494   495   496
H -79.28983164 -55.98210635 -90.35994930     6    493    0    0    0
H -77.22048446 -55.53028985 -87.88491243     6    493    0    0    0
C -78.92175286 -59.18413820 -87.99364795     2    493   497   498   499
H -78.73082091 -59.59857880 -85.99303456     6    496    0    0    0
H -80.78684297 -59.80143736 -88.65827176     6    496    0    0    0
C -76.78469949 -60.52687663 -89.39055763     2    496   500   501   502
H -76.90440209 -60.58821336 -91.57199641     6    499    0    0    0
H -74.91452723 -59.58097683 -89.00828982     6    499    0    0    0
C -76.80633112 -63.31705171 -88.71358278     1    499   503   504   505
H -75.08621541 -64.06297618 -89.57494168     6    502    0    0    0
H -78.42358178 -64.15814244 -89.72508370     6    502    0    0    0
H -76.97558104 -63.76637471 -86.76776325     6    502    0    0    0
H -66.17503863 -60.59317106 -69.98557004     6     507    0    0    0 
C -67.60391268 -60.32974920 -68.62011653     1     506    508    509    510
H -67.67363738 -58.36898484 -68.18421514     6     507    0    0    0
H -69.43856118 -60.79139877 -69.33836177     6     507    0    0    0
C -67.26339787 -61.67930510 -66.15607206     2     507    511    512    513
H -67.92768394 -63.56423934 -66.27207812     6     510    0    0    0
H -65.30567923 -61.69227483 -65.56125629     6     510    0    0    0
C -68.69833234 -60.26239667 -64.04705325     2     510    514   515   516
H -68.38177921 -58.28290142 -64.08299130     6     513    0    0    0
H -70.73896554 -60.47577986 -64.40769585     6     513    0    0    0
C -68.17559972 -61.44006341 -61.48999350     2     513   517   518   519
H -68.64034057 -63.44911406 -61.58732558     6    516    0    0    0
H -66.15851393 -61.51564141 -61.05597603     6    516    0    0    0
C -69.83106930 -60.06556898 -59.60136471     2    516   520   521   522
H -69.30417726 -58.06460186 -59.53226860     6    519    0    0    0
H -71.83893234 -60.28679350 -59.90872968     6    519    0    0    0
C -69.58764328 -61.25044892 -56.96501469     2    519   523   524   525
H -70.07255772 -63.26310940 -56.95061109     6    522    0    0    0
H -67.63163619 -61.20676836 -56.34120255     6    522    0    0    0
C -71.37148387 -59.96356868 -55.10628258     2    522   526   527   528
H -71.19472844 -57.93768153 -55.23007406     6    525    0    0    0
H -73.31088146 -60.62465264 -55.44060240     6    525    0    0    0
C -70.52777568 -60.60275252 -52.41744754     2    525   529   530   531
H -71.07547371 -62.61897187 -52.23241320     6    528    0    0    0
H -68.55115567 -60.52828938 -52.07887925     6    528    0    0    0
C -71.94214755 -59.07912430 -50.49831523     2    528   532   533   534
H -71.70935095 -57.06066358 -50.82314675     6    531    0    0    0
H -73.94060325 -59.61451377 -50.63018097     6    531    0    0    0
C -71.37654020 -59.51210282 -47.71169659     2    531   535   536   537
H -71.62063499 -61.49326123 -47.14487886     6    534    0    0    0
H -69.41035383 -58.98988617 -47.27182098     6    534    0    0    0
C -72.75270953 -57.72900504 -45.93559988     2    534   538   539   540
H -72.30543613 -55.70193619 -46.51409673     6    537    0    0    0
H -74.77349258 -57.76996301 -46.27560766     6    537    0    0    0
C -72.27267546 -58.25924513 -43.11728164     1    537   541   542   543
H -73.12367152 -56.56784721 -42.16963990     6    540    0    0    0
H -70.40142648 -58.27399267 -42.75300790     6    540    0    0    0
H -72.79021387 -60.14508295 -42.22877218     6    540    0    0    0
H -90.98715424 -54.11281603 -50.14093287     6     545    0    0    0 
C -92.11477644 -53.96502924 -48.38511258     1     544    546    547    548
H -92.49193610 -55.95491509 -48.10195893     6     545    0    0    0
H -90.73923125 -53.33658053 -46.91948852     6     545    0    0    0
C -94.38556993 -52.16707419 -48.48510738     2     545    549    550    551
H -93.68976669 -50.50190246 -49.32204532     6     548    0    0    0
H -95.75008781 -52.84889248 -49.94112217     6     548    0    0    0
C -95.90315867 -51.73659633 -46.08687347     2     548    552   553   554
H -96.65616974 -53.57494996 -45.48742716     6     551    0    0    0
H -94.65409311 -51.52683645 -44.45128075     6     551    0    0    0
C -97.87093587 -49.68704847 -46.29224353     2     551   555   556   557
H -98.76319831 -49.46649883 -44.45693734     6    554    0    0    0
H -96.92240039 -47.89686586 -46.43837732     6    554    0    0    0
C -99.84541719 -50.08269181 -48.42896279     2    554   558   559   560
H -98.90462154 -50.05337517 -50.16309823     6    557    0    0    0
H -100.74111115 -51.86934908 -48.22222388     6    557    0    0    0
C -101.94835678 -47.93814127 -48.20114548     2    557   561   562   563
H -102.91689623 -48.06368792 -46.39697424     6    560    0    0    0
H -100.91066902 -46.21173987 -48.35411324     6    560    0    0    0
C -104.00580885 -47.95751724 -50.21760785     2    560   564   565   566
H -103.24618883 -48.06322010 -52.09313520     6    563    0    0    0
H -105.04283367 -49.68405339 -50.11568213     6    563    0    0    0
C -105.55611512 -45.46431586 -50.16059997     2    563   567   568   569
H -106.52554689 -45.13386679 -48.44025185     6    566    0    0    0
H -104.42021718 -43.76722613 -50.20800873     6    566    0    0    0
C -107.37960843 -45.44276133 -52.41542300     2    566   570   571   572
H -106.35302202 -45.77192440 -54.08484101     6    569    0    0    0
H -108.51967198 -47.22577222 -52.55790454     6    569    0    0    0
C -108.98475007 -43.01102939 -52.63492878     2    569   573   574   575
H -110.16691911 -42.64252194 -51.03184443     6    572    0    0    0
H -108.03540178 -41.17808901 -52.60651601     6    572    0    0    0
C -110.45458311 -43.16481264 -55.12492275     2    572   576   577   578
H -109.26286954 -42.78468769 -56.72373267     6    575    0    0    0
H -110.92783478 -45.13785829 -55.47971383     6    575    0    0    0
C -112.65275409 -41.27206703 -55.15654039     1    575   579   580   581
H -114.38720437 -41.93890767 -54.17163912     6    578    0    0    0
H -113.18343162 -40.63956629 -57.07299704     6    578    0    0    0
H -112.01183531 -39.66038178 -54.03854564     6    578    0    0    0
H -100.23716610 -53.70631482 -80.09426161     6     583    0    0    0 
C -100.68019661 -55.65099852 -80.79467265     1     582    584    585    586
H -99.44758296 -56.26994805 -82.29383721     6     583    0    0    0
H -100.44477991 -56.88887060 -79.12888198     6     583    0    0    0
C -103.54903413 -55.94277722 -81.50419939     2     583    587    588    589
H -103.79510351 -54.32467307 -82.90150496     6     586    0    0    0
H -104.00652941 -57.54694770 -82.67662685     6     586    0    0    0
C -105.45750489 -55.33975262 -79.32053918     2     586    590   591   592
H -106.00328904 -57.16391790 -78.62524237     6     589    0    0    0
H -104.15884116 -54.48377707 -77.99484087     6     589    0    0    0
C -107.76059191 -53.69630834 -79.65609074     2     589   593   594   595
H -106.93174395 -51.94794877 -80.38104998     6    592    0    0    0
H -109.17616418 -54.31022358 -81.01675028     6    592    0    0    0
C -109.19943912 -53.16464905 -77.04684366     2    592   596   597   598
H -110.22510237 -54.98256293 -76.59932367     6    595    0    0    0
H -107.92842269 -53.08834607 -75.40783933     6    595    0    0    0
C -111.16083848 -51.00339375 -77.54771101     2    595   599   600   601
H -110.55350694 -49.35507363 -78.78304473     6    598    0    0    0
H -112.82138042 -51.66475897 -78.59026670     6    598    0    0    0
C -111.99067755 -49.46413336 -75.08956024     2    598   602   603   604
H -113.12097852 -50.49890414 -73.71500562     6    601    0    0    0
H -110.18131854 -49.10056519 -74.25729959     6    601    0    0    0
C -113.01175788 -46.75571994 -75.55287285     2    601   605   606   607
H -111.89365050 -45.65703868 -77.02052138     6    604    0    0    0
H -114.92589312 -46.93111496 -76.43761344     6    604    0    0    0
C -113.31798695 -45.42946483 -72.95871217     2    604   608   609   610
H -114.01100900 -46.55769144 -71.45836166     6    607    0    0    0
H -111.58862306 -44.72821115 -72.30028243     6    607    0    0    0
C -115.05656821 -43.15966130 -73.36653677     2    607   611   612   613
H -114.62095269 -42.28009070 -75.19924996     6    610    0    0    0
H -116.95128132 -44.07509643 -73.33401683     6    610    0    0    0
C -114.73922899 -41.06457940 -71.33375570     2    610   614   615   616
H -114.50168675 -41.97542591 -69.54748657     6    613    0    0    0
H -113.15299551 -39.91489376 -71.48129994     6    613    0    0    0
C -116.90381144 -39.28239115 -71.27944577     1    613   617   618   619
H -116.45034871 -37.61434167 -70.11612214     6    616    0    0    0
H -118.68435965 -40.04560305 -70.90044870     6    616    0    0    0
H -117.04350978 -38.54968155 -73.18570474     6    616    0    0    0
H -96.87534335 -80.42982517 -45.48065921     6     621    0    0    0 
C -95.66243553 -81.83038532 -46.44341236     1     620    622    623    624
H -93.69453875 -81.34022598 -46.11165105     6     621    0    0    0
H -96.18542131 -83.61125575 -45.67584535     6     621    0    0    0
C -96.46774167 -81.94157178 -49.27035037     2     621    625    626    627
H -96.53662297 -79.97104057 -50.07850172     6     624    0    0    0
H -95.24903673 -83.32035335 -50.10668894     6     624    0    0    0
C -99.02650235 -83.25634488 -49.31438281     2     624    628   629   630
H -98.76959813 -85.04916599 -48.61044007     6     627    0    0    0
H -100.40639046 -82.41170888 -48.07386453     6     627    0    0    0
C -100.37045929 -82.98465418 -51.83522215     2     627   631   632   633
H -100.50879372 -80.86818488 -52.27449847     6    630    0    0    0
H -99.24867823 -83.81335924 -53.30824405     6    630    0    0    0
C -103.03305959 -84.14602786 -51.75369164     2    630   634   635   636
H -102.84055895 -85.89420784 -50.62984793     6    633    0    0    0
H -104.24115332 -82.98201526 -50.67113382     6    633    0    0    0
C -104.37050238 -84.72562068 -54.19200032     2    633   637   638   639
H -104.95052372 -83.01540933 -55.08679694     6    636    0    0    0
H -103.17209572 -85.85544482 -55.38493671     6    636    0    0    0
C -106.87029152 -86.09089940 -53.67103797     2    636   640   641   642
H -106.72845015 -87.23296616 -51.96430636     6    639    0    0    0
H -108.27460643 -84.55780930 -53.26521910     6    639    0    0    0
C -107.62131451 -88.07188944 -55.72067403     2    639   643   644   645
H -107.17465296 -87.29503272 -57.53335276     6    642    0    0    0
H -106.50665811 -89.72144135 -55.41153528     6    642    0    0    0
C -110.38056654 -88.72448083 -55.57453629     2    642   646   647   648
H -111.20707375 -88.87002986 -53.68208746     6    645    0    0    0
H -111.15596226 -87.02287058 -56.38381282     6    645    0    0    0
C -111.17512074 -90.95857938 -57.37252500     2    645   649   650   651
H -110.86692007 -90.62561557 -59.43359159     6    648    0    0    0
H -110.39131467 -92.70444762 -56.86429590     6    648    0    0    0
C -114.02318860 -91.29730647 -57.44938771     2    648   652   653   654
H -114.86013227 -91.24048678 -55.61589730     6    651    0    0    0
H -114.85527378 -89.85356768 -58.62901557     6    651    0    0    0
C -114.94098000 -93.56363754 -58.81175356     1    651   655   656   657
H -114.28107532 -95.30824885 -58.11443467     6    654    0    0    0
H -114.34618478 -93.50523501 -60.82367142     6    654    0    0    0
H -116.89951914 -93.76124333 -58.76895327     6    654    0    0    0
H -100.63270170 -63.82153930 -72.04553961     6     659    0    0    0 
C -101.88124030 -63.14768013 -70.48563594     1     658    660    661    662
H -103.27332122 -64.59933572 -70.16940295     6     659    0    0    0
H -100.70114284 -63.15441264 -68.85773837     6     659    0    0    0
C -102.88566031 -60.58180876 -71.29550632     2     659    663    664    665
H -101.44130762 -59.57983326 -72.39076111     6     662    0    0    0
H -104.48741030 -60.87625222 -72.64865958     6     662    0    0    0
C -104.27626278 -59.24320960 -69.10690003     2     662    666   667   668
H -105.39290412 -60.59572226 -67.85951312     6     665    0    0    0
H -102.89081400 -58.27087813 -67.82158562     6     665    0    0    0
C -106.07590079 -57.15883398 -70.10675920     2     665   669   670   671
H -105.19726210 -56.22000897 -71.70568506     6    668    0    0    0
H -107.94354359 -57.86348205 -70.70704941     6    668    0    0    0
C -106.30704598 -55.21861254 -68.12784982     2    668   672   673   674
H -107.15480076 -56.14509088 -66.58349955     6    671    0    0    0
H -104.33972061 -54.39265663 -67.69767829     6    671    0    0    0
C -107.78519464 -52.71072660 -68.74109308     2    671   675   676   677
H -106.75996342 -51.81353714 -70.21386064     6    674    0    0    0
H -109.61121634 -53.17434346 -69.51818178     6    674    0    0    0
C -108.26396846 -51.11293870 -66.40308164     2    674   678   679   680
H -109.02005395 -52.17643372 -64.87696931     6    677    0    0    0
H -106.48764083 -50.17637367 -65.89648226     6    677    0    0    0
C -110.36439409 -49.28066053 -67.02674377     2    677   681   682   683
H -109.62574581 -48.25479668 -68.60036800     6    680    0    0    0
H -111.97738634 -50.41908939 -67.74410605     6    680    0    0    0
C -111.17659088 -47.53754169 -64.83924877     2    680   684   685   686
H -109.44157319 -46.91307752 -64.03352729     6    683    0    0    0
H -112.18747202 -45.82461937 -65.52416792     6    683    0    0    0
C -112.60559772 -48.91402406 -62.84634456     2    683   687   688   689
H -114.42099003 -49.30593105 -63.49312696     6    686    0    0    0
H -111.79149429 -50.84184000 -62.40827900     6    686    0    0    0
C -112.64991695 -47.37780092 -60.36424688     2    686   690   691   692
H -110.71038282 -47.21627173 -59.71038987     6    689    0    0    0
H -113.38837716 -45.55976164 -60.79768060     6    689    0    0    0
C -114.10187584 -48.93816067 -58.52219070     1    689   693   694   695
H -114.06415863 -48.57941349 -56.51679472     6    692    0    0    0
H -113.68860814 -50.97433862 -58.63226788     6    692    0    0    0
H -116.07173687 -48.77279833 -59.15192991     6    692    0    0    0
H -101.73658032 -48.73548638 -41.55426082     6     697    0    0    0 
C -103.47309693 -47.78977990 -40.86727011     1     696    698    699    700
H -104.24917414 -46.64480343 -42.39693952     6     697    0    0    0
H -104.55429880 -49.26084967 -39.95555555     6     697    0    0    0
C -103.10279427 -45.93006121 -38.67364755     2     697    701    702    703
H -104.85818113 -45.04538187 -38.11423795     6     700    0    0    0
H -102.59160353 -46.95156174 -37.02612685     6     700    0    0    0
C -100.89423042 -44.01590096 -39.16925888     2     700    704   705   706
H -101.30785850 -42.68410566 -40.52184388     6     703    0    0    0
H -100.60899075 -42.91100652 -37.53715888     6     703    0    0    0
C -98.23517329 -45.14324605 -39.65966608     2     703   707   708   709
H -97.63526520 -46.29339690 -38.02905109     6    706    0    0    0
H -98.30788552 -46.34921509 -41.31123802     6    706    0    0    0
C -96.30289413 -43.21525932 -40.44000004     2    706   710   711   712
H -97.01854652 -41.86066326 -41.75560602     6    709    0    0    0
H -95.81806718 -42.04738763 -38.68505844     6    709    0    0    0
C -93.70434883 -44.28657195 -41.11336497     2    709   713   714   715
H -93.18213584 -45.86567791 -39.88431297     6    712    0    0    0
H -93.66413936 -45.09537659 -43.05364765     6    712    0    0    0
C -91.49441468 -42.35701813 -40.90024318     2    712   716   717   718
H -91.81273137 -40.62424559 -42.02008801     6    715    0    0    0
H -91.31946693 -41.65276588 -38.92395131     6    715    0    0    0
C -88.96866472 -43.48514078 -41.62792211     2    715   719   720   721
H -88.21516537 -44.86792693 -40.32057329     6    718    0    0    0
H -89.34955627 -44.68928418 -43.34608961     6    718    0    0    0
C -86.82893544 -41.67665833 -42.08723867     2    718   722   723   724
H -87.61163012 -39.96770205 -42.97865630     6    721    0    0    0
H -86.17854763 -40.90708385 -40.15034702     6    721    0    0    0
C -84.36957076 -42.87753772 -43.39324035     2    721   725   726   727
H -84.41149276 -44.84916249 -42.71868796     6    724    0    0    0
H -84.52785594 -42.76137340 -45.42077934     6    724    0    0    0
C -81.87072876 -41.53600149 -42.58844595     2    724   728   729   730
H -81.48398954 -41.32820919 -40.60489112     6    727    0    0    0
H -80.24533430 -42.65892981 -43.27414869     6    727    0    0    0
C -81.30748664 -38.96815103 -43.69146700     1    727   731   732   733
H -79.35254546 -38.65270606 -43.49533485     6    730    0    0    0
H -82.31834667 -37.42171671 -42.89541286     6    730    0    0    0
H -81.97052355 -39.13848173 -45.59103569     6    730    0    0    0
H -90.31741423 -34.29079265 -65.58562077     6     735    0    0    0 
C -88.95643031 -33.23427243 -66.69040076     1     734    736    737    738
H -88.52525387 -31.63781924 -65.67577605     6     735    0    0    0
H -87.22735483 -34.29467058 -66.66793100     6     735    0    0    0
C -89.84466567 -32.96417318 -69.43138187     2     735    739    740    741
H -91.73190537 -31.91064925 -69.56791221     6     738    0    0    0
H -88.40515106 -32.10104369 -70.66569299     6     738    0    0    0
C -90.21405822 -35.60665863 -70.66316683     2     738    742   743   744
H -88.42834754 -36.56379951 -70.56800474     6     741    0    0    0
H -91.61420015 -36.75556022 -69.76264548     6     741    0    0    0
C -91.04108335 -35.52334303 -73.56432419     2     741   745   746   747
H -93.02868083 -35.07778795 -73.82269670     6    744    0    0    0
H -90.07944149 -33.90167102 -74.45836756     6    744    0    0    0
C -90.34644242 -37.99483826 -74.99322704     2    744   748   749   750
H -91.17258261 -39.60677261 -74.06037427     6    747    0    0    0
H -90.93705601 -37.99402170 -76.85156152     6    747    0    0    0
C -87.57400147 -38.66606423 -75.00107518     2    747   751   752   753
H -86.48723377 -37.21962605 -75.67346728     6    750    0    0    0
H -86.88530998 -39.17378893 -73.18207268     6    750    0    0    0
C -86.95837793 -41.03290357 -76.66316229     2    750   754   755   756
H -87.79760739 -42.76775130 -75.89654940     6    753    0    0    0
H -87.70092508 -40.49982756 -78.65719065     6    753    0    0    0
C -84.21768666 -41.76173689 -76.79291202     2    753   757   758   759
H -83.27889075 -40.12177100 -77.44079821     6    756    0    0    0
H -83.23484701 -41.84321338 -74.90391986     6    756    0    0    0
C -83.50096320 -44.03144585 -78.47131381     2    756   760   761   762
H -84.39421801 -45.67277770 -77.91336700     6    759    0    0    0
H -84.31020390 -43.53686841 -80.39814306     6    759    0    0    0
C -80.66488170 -44.60200466 -78.60314993     2    759   763   764   765
H -79.51053501 -43.02983329 -79.36216972     6    762    0    0    0
H -80.00193721 -44.91476686 -76.58031896     6    762    0    0    0
C -80.19154561 -47.02196098 -80.18608711     2    762   766   767   768
H -80.97983242 -48.74494438 -79.39416997     6    765    0    0    0
H -81.22423825 -46.98176335 -81.91909808     6    765    0    0    0
C -77.55324318 -47.49078522 -81.27742753     1    765   769   770   771
H -76.97724791 -45.84280979 -82.35453026     6    768    0    0    0
H -77.25469958 -49.21866834 -82.26071105     6    768    0    0    0
H -76.14274512 -47.60338584 -79.70633253     6    768    0    0    0
H -90.73762988 -86.01495037 -56.85425324     6     773    0    0    0 
C -91.76484594 -86.54569914 -55.10357654     1     772    774    775    776
H -93.56033452 -85.60988275 -55.36461724     6     773    0    0    0
H -92.05446170 -88.63301992 -55.07502025     6     773    0    0    0
C -90.44140981 -85.72723538 -52.60638203     2     773    777    778    779
H -91.45936742 -86.38853915 -50.98703292     6     776    0    0    0
H -88.56070605 -86.80757668 -52.83642833     6     776    0    0    0
C -89.96748602 -82.92590976 -52.27092914     2     776    780   781   782
H -88.56129422 -82.36823318 -53.62085344     6     779    0    0    0
H -91.56297085 -81.75228307 -52.64921775     6     779    0    0    0
C -88.74423954 -82.25251432 -49.72271563     2     779   783   784   785
H -89.86784990 -82.83695195 -47.91449969     6    782    0    0    0
H -87.08893383 -83.38276211 -49.58668965     6    782    0    0    0
C -87.59726125 -79.57764142 -49.57319423     2    782   786   787   788
H -85.88580702 -79.53949267 -50.84576582     6    785    0    0    0
H -89.04945471 -78.08807193 -49.91879815     6    785    0    0    0
C -86.61826436 -79.10884680 -46.93309375     2    785   789   790   791
H -88.24799253 -79.21418542 -45.70226700     6    788    0    0    0
H -85.42810579 -80.69761483 -46.24508572     6    788    0    0    0
C -84.86100509 -76.70599928 -46.71520617     2    788   792   793   794
H -83.20670276 -76.82838087 -47.85867129     6    791    0    0    0
H -85.78666477 -75.30486288 -47.63852248     6    791    0    0    0
C -83.86346490 -75.94949127 -44.03115913     2    791   795   796   797
H -85.36690836 -76.08981477 -42.63741118     6    794    0    0    0
H -82.51176870 -77.32761770 -43.49096586     6    794    0    0    0
C -82.63679526 -73.32476440 -44.05941184     2    794   798   799   800
H -80.82142282 -73.53742975 -45.01265948     6    797    0    0    0
H -83.85290385 -72.10219952 -45.16846894     6    797    0    0    0
C -82.35092351 -72.35277106 -41.36640231     2    797   801   802   803
H -84.27515865 -72.49869048 -40.54607081     6    800    0    0    0
H -81.10178969 -73.62118875 -40.35130352     6    800    0    0    0
C -81.70852399 -69.55633543 -41.06979454     2    800   804   805   806
H -79.85751600 -69.10390815 -41.78362668     6    803    0    0    0
H -83.07333986 -68.36650871 -42.22755534     6    803    0    0    0
C -81.83835497 -68.77358932 -38.13126292     1    803   807   808   809
H -80.82525305 -70.15161422 -37.07471742     6    806    0    0    0
H -83.79456346 -69.04512759 -37.32728811     6    806    0    0    0
H -81.45424854 -66.81751913 -37.77098409     6    806    0    0    0
H -96.36867589 -57.85372166 -77.99972106     6     811    0    0    0 
C -94.70520852 -58.33582610 -79.14159411     1     810    812    813    814
H -95.02179244 -57.77702387 -81.04029919     6     811    0    0    0
H -93.20925997 -57.18440427 -78.55888547     6     811    0    0    0
C -94.04902563 -61.15900306 -78.65043652     2     811    815    816    817
H -95.87291809 -62.22028026 -78.98734535     6     814    0    0    0
H -92.57835488 -61.79326301 -80.01828142     6     814    0    0    0
C -93.26772385 -61.70294961 -75.99503757     2     814    818   819   820
H -91.80254854 -60.50701258 -75.25072158     6     817    0    0    0
H -94.84568140 -61.35611522 -74.82529826     6     817    0    0    0
C -92.43419303 -64.50293064 -75.55921742     2     817   821   822   823
H -94.01064791 -65.71114774 -75.88084341     6    820    0    0    0
H -91.13144082 -64.87464822 -77.12932278     6    820    0    0    0
C -91.27980395 -65.05382589 -72.93385611     2    820   824   825   826
H -89.58128787 -64.04519629 -72.55397305     6    823    0    0    0
H -92.62113553 -64.47951685 -71.46939462     6    823    0    0    0
C -90.87406204 -68.02403819 -72.41942038     2    823   827   828   829
H -90.22639509 -68.19291832 -70.51222521     6    826    0    0    0
H -92.58230632 -68.79953036 -72.83384375     6    826    0    0    0
C -89.04284176 -69.13958817 -74.21134766     2    826   830   831   832
H -89.57872434 -69.28541623 -76.17498643     6    829    0    0    0
H -87.30569577 -67.77626889 -74.21786283     6    829    0    0    0
C -88.08668698 -71.72441090 -73.30264993     2    829   833   834   835
H -87.14149995 -71.45545503 -71.46681998     6    832    0    0    0
H -89.76993238 -72.95163177 -72.95251924     6    832    0    0    0
C -86.43654082 -72.93143554 -75.44417510     2    832   836   837   838
H -87.20223518 -72.59482144 -77.35021128     6    835    0    0    0
H -84.64298695 -71.93320258 -75.52341653     6    835    0    0    0
C -85.72714311 -75.73634378 -75.05573297     2    835   839   840   841
H -84.88714312 -76.11346589 -73.24176448     6    838    0    0    0
H -87.38755253 -77.01921060 -75.14127193     6    838    0    0    0
C -84.20861733 -76.91402046 -77.19807452     2    838   842   843   844
H -85.55344149 -77.06324698 -78.86722380     6    841    0    0    0
H -82.49271063 -75.95228406 -77.69138212     6    841    0    0    0
C -83.42719126 -79.62827057 -76.60373306     1    841   845   846   847
H -81.75291377 -79.76880576 -75.21929635     6    844    0    0    0
H -82.83075758 -80.60439862 -78.37061870     6    844    0    0    0
H -85.05621291 -80.63927071 -75.60662089     6    844    0    0    0
H -122.31755871 -40.78441873 -59.05184733     6     849    0    0    0 
C -121.19076398 -42.11406298 -57.86392284     1     848    850    851    852
H -120.48889801 -41.08134586 -56.32266003     6     849    0    0    0
H -122.57450201 -43.47838050 -57.12543637     6     849    0    0    0
C -119.34506048 -43.33996791 -59.73256499     2     849    853    854    855
H -118.09550655 -41.92158376 -60.59171301     6     852    0    0    0
H -118.31283988 -44.65554387 -58.51028627     6     852    0    0    0
C -120.94308621 -44.87884774 -61.63145596     2     852    856   857   858
H -122.29632389 -46.25895649 -60.73925478     6     855    0    0    0
H -122.31016445 -43.73958273 -62.60375615     6     855    0    0    0
C -119.19446930 -46.13847406 -63.42888479     2     855   859   860   861
H -117.67358033 -44.86498189 -64.03461818     6    858    0    0    0
H -118.22252542 -47.76362649 -62.56025112     6    858    0    0    0
C -120.64296824 -46.83721274 -65.79492080     2    858   862   863   864
H -121.99356425 -48.17894412 -65.31120229     6    861    0    0    0
H -121.65109567 -45.28392719 -66.76127604     6    861    0    0    0
C -119.08223480 -47.99897178 -67.78009120     2    861   865   866   867
H -117.86499733 -46.50426805 -68.49686938     6    864    0    0    0
H -117.97038540 -49.49293024 -67.06333824     6    864    0    0    0
C -120.63263762 -49.13387068 -69.94316287     2    864   868   869   870
H -122.12082870 -50.33276059 -69.08753919     6    867    0    0    0
H -121.62009786 -47.69517163 -71.00599523     6    867    0    0    0
C -119.01304747 -50.51948254 -71.93609560     2    867   871   872   873
H -117.45962556 -49.41457956 -72.69038677     6    870    0    0    0
H -117.92157682 -52.16112417 -71.05189600     6    870    0    0    0
C -120.45028290 -51.57102694 -74.13108335     2    870   874   875   876
H -119.54179873 -53.16755516 -74.94888464     6    873    0    0    0
H -122.39943102 -52.03672524 -73.62395347     6    873    0    0    0
C -120.50201302 -49.72057416 -76.24679283     2    873   877   878   879
H -121.54604347 -48.13043981 -75.47172400     6    876    0    0    0
H -118.63047048 -48.91208144 -76.78311160     6    876    0    0    0
C -121.64608487 -50.72730876 -78.57190368     2    876   880   881   882
H -120.89016547 -52.62299808 -78.71612551     6    879    0    0    0
H -123.73285299 -50.78731084 -78.39888392     6    879    0    0    0
C -120.77906980 -48.98110702 -80.61295634     1    879   883   884   885
H -121.51600709 -49.55761718 -82.59942413     6    882    0    0    0
H -118.83385349 -49.13732122 -80.90706629     6    882    0    0    0
H -121.53939623 -47.03102523 -80.37684072     6    882    0    0    0
H -87.87470353 -65.80705152 -65.59966610     6     887    0    0    0 
C -89.10028181 -65.98390869 -64.01364486     1     886    888    889    890
H -89.23339253 -68.02138261 -63.50086677     6     887    0    0    0
H -88.05500175 -64.80135737 -62.69589456     6     887    0    0    0
C -91.79303619 -65.01449707 -64.80090954     2     887    891    892    893
H -92.77292608 -66.50867224 -65.91070135     6     890    0    0    0
H -92.85879226 -64.54199486 -62.99772934     6     890    0    0    0
C -91.54175435 -62.81338398 -66.58268950     2     890    894   895   896
H -90.08707467 -61.41611456 -65.82262473     6     893    0    0    0
H -90.53609351 -63.18757603 -68.33834961     6     893    0    0    0
C -94.13042258 -61.67463420 -67.17434660     2     893   897   898   899
H -95.32015724 -63.26973051 -67.73792342     6    896    0    0    0
H -94.89016292 -61.05184743 -65.29809131     6    896    0    0    0
C -93.89124983 -59.42605324 -69.06377208     2    896   900   901   902
H -93.02223810 -57.76919813 -68.29519809     6    899    0    0    0
H -93.21520065 -59.84889953 -71.01293348     6    899    0    0    0
C -96.58978705 -58.59825749 -69.75965639     2    899   903   904   905
H -97.39479684 -60.05427653 -70.94761325     6    902    0    0    0
H -97.71876229 -58.72282656 -68.00821405     6    902    0    0    0
C -96.44282968 -55.94488348 -71.04070323     2    902   906   907   908
H -95.83395164 -54.49143745 -69.71396487     6    905    0    0    0
H -95.11553657 -55.97692074 -72.60815601     6    905    0    0    0
C -98.93891378 -54.90127032 -71.90020312     2    905   909   910   911
H -99.77012493 -56.04234332 -73.46996140     6    908    0    0    0
H -100.45631195 -55.07275203 -70.41524515     6    908    0    0    0
C -98.72369093 -52.19567305 -72.85191525     2    908   912   913   914
H -98.25922484 -51.15020367 -71.23263899     6    911    0    0    0
H -97.12616794 -52.05012642 -74.18059312     6    911    0    0    0
C -101.26721060 -51.28742146 -73.95662159     2    911   915   916   917
H -101.83539258 -52.36620032 -75.49416905     6    914    0    0    0
H -102.93961620 -51.74118475 -72.71871056     6    914    0    0    0
C -101.25372967 -48.54132206 -75.00108970     2    914   918   919   920
H -101.22097142 -47.44393889 -73.22461640     6    917    0    0    0
H -99.60006175 -48.19812855 -75.93768526     6    917    0    0    0
C -103.62853363 -47.87543052 -76.62522891     1    917   921   922   923
H -103.72870067 -45.86825981 -77.11807533     6    920    0    0    0
H -105.44994982 -48.39255510 -75.62807405     6    920    0    0    0
H -103.49461525 -48.92212759 -78.49231704     6    920    0    0    0
H -106.53455342 -67.43766188 -65.84567724     6     925    0    0    0 
C -108.61704505 -68.03407326 -65.87191619     1     924    926    927    928
H -108.64332606 -69.77078027 -64.92278796     6     925    0    0    0
H -109.85055173 -66.68036552 -64.98857636     6     925    0    0    0
C -109.60165735 -68.24031577 -68.60010683     2     925    929    930    931
H -108.70242908 -69.88670779 -69.51193238     6     928    0    0    0
H -111.59405899 -68.75058045 -68.70011629     6     928    0    0    0
C -109.32983403 -65.55817460 -70.05472648     2     928    932   933   934
H -110.05167310 -63.91767941 -68.92435416     6     931    0    0    0
H -107.37186931 -65.42804598 -70.66301829     6     931    0    0    0
C -111.00523557 -65.55313059 -72.38713173     2     931   935   936   937
H -110.55897042 -67.09314168 -73.74956510     6    934    0    0    0
H -113.10052026 -65.81771298 -71.81305054     6    934    0    0    0
C -110.54486179 -62.92659618 -73.72654886     2    934   938   939   940
H -111.58879372 -61.44679724 -72.88348994     6    937    0    0    0
H -108.49578541 -62.43453997 -73.73267740     6    937    0    0    0
C -111.67601604 -62.63168037 -76.42143713     2    937   941   942   943
H -110.76483278 -63.95175946 -77.90760948     6    940    0    0    0
H -113.71393011 -63.17658747 -76.37146123     6    940    0    0    0
C -111.43301766 -60.10195634 -77.51742126     2    940   944   945   946
H -112.18161716 -58.40708143 -76.45172499     6    943    0    0    0
H -109.49902502 -59.61070982 -77.40127841     6    943    0    0    0
C -112.04541035 -59.80935460 -80.34467991     2    943   947   948   949
H -111.07932442 -57.96743924 -80.90236746     6    946    0    0    0
H -111.03341522 -61.40688921 -81.16515602     6    946    0    0    0
C -114.94398237 -59.42629819 -80.72343764     2    946   950   951   952
H -116.19665483 -60.69987716 -79.66124847     6    949    0    0    0
H -115.49525829 -57.66955129 -79.92997478     6    949    0    0    0
C -115.54936932 -59.47080106 -83.47278435     2    949   953   954   955
H -113.99633608 -58.43906479 -84.31809996     6    952    0    0    0
H -115.47685025 -61.45315688 -84.30785599     6    952    0    0    0
C -118.09467035 -58.26083407 -84.00208157     2    952   956   957   958
H -119.40579887 -59.33667060 -82.99969733     6    955    0    0    0
H -118.18349408 -56.47552825 -83.05816968     6    955    0    0    0
C -118.95769982 -57.86376287 -86.85836012     1    955   959   960   961
H -120.84470783 -57.27793626 -87.21289621     6    958    0    0    0
H -119.14753384 -59.72410037 -87.59278020     6    958    0    0    0
H -117.40531955 -56.82082895 -87.88548361     6    958    0    0    0
H -71.18854838 -53.75213282 -66.46999676     6     963    0    0    0 
C -72.94287092 -52.69417176 -65.91654135     1     962    964    965    966
H -72.08903761 -50.80207667 -65.40323094     6     963    0    0    0
H -74.23532712 -52.50060137 -67.40754059     6     963    0    0    0
C -73.83140430 -54.24143091 -63.59784660     2     963    967    968    969
H -74.70211683 -55.78386142 -64.38898255     6     966    0    0    0
H -72.23215908 -54.89870149 -62.72139195     6     966    0    0    0
C -75.81577928 -53.21765088 -61.83995412     2     966    970   971   972
H -74.78996020 -51.88026473 -60.83157883     6     969    0    0    0
H -77.26660930 -52.26130748 -62.73393113     6     969    0    0    0
C -76.67614876 -55.24334755 -60.07843582     2     969   973   974   975
H -77.95679875 -56.46207989 -61.04331682     6    972    0    0    0
H -75.17141440 -56.45973674 -59.16995904     6    972    0    0    0
C -78.22602760 -54.18841644 -57.79089594     2    972   976   977   978
H -77.12291117 -52.74282052 -56.87492633     6    975    0    0    0
H -79.96515705 -53.18146601 -58.33736881     6    975    0    0    0
C -78.93185340 -56.16082748 -55.71705438     2    975   979   980   981
H -80.60290309 -57.07714525 -56.38831318     6    978    0    0    0
H -77.50834725 -57.66358058 -55.69417303     6    978    0    0    0
C -79.26639334 -54.68610163 -53.23436143     2    978   982   983   984
H -77.50338151 -53.84399031 -52.54476734     6    981    0    0    0
H -80.57542083 -53.13087267 -53.68202258     6    981    0    0    0
C -80.30964363 -56.28373006 -51.08322840     2    981   985   986   987
H -81.83702354 -57.48017898 -51.72664968     6    984    0    0    0
H -78.87388371 -57.60507834 -50.74712952     6    984    0    0    0
C -81.20302503 -54.92776906 -48.60894040     2    984   988   989   990
H -81.97406505 -56.27981407 -47.10414702     6    987    0    0    0
H -79.49607166 -54.21528566 -47.84717856     6    987    0    0    0
C -83.01162557 -52.71466261 -48.56009965     2    987   991   992   993
H -82.08440802 -50.93702182 -48.83060733     6    990    0    0    0
H -84.58277449 -52.94357779 -49.98343114     6    990    0    0    0
C -84.55404356 -52.39191142 -46.08026298     2    990   994   995   996
H -85.47091048 -54.07829548 -45.46044964     6    993    0    0    0
H -83.12000509 -52.14560301 -44.61647085     6    993    0    0    0
C -86.18856734 -50.06613625 -45.83884322     1    993   997   998   999
H -85.38108526 -48.33881182 -46.67440802     6    996    0    0    0
H -86.70700892 -49.75118911 -43.89915417     6    996    0    0    0
H -87.82453309 -50.38536620 -46.98227251     6    996    0    0    0
H -78.35901635 -59.13587977 -77.27421270     6     1001    0    0    0 
C -77.52078263 -57.28399539 -77.85268851     1     1000    1002    1003    1004
H -75.62789775 -57.87446215 -78.55553032     6     1001    0    0    0
H -78.60859583 -56.52962581 -79.36869916     6     1001    0    0    0
C -77.52713459 -55.48483558 -75.41947783     2     1001    1005    1006    1007
H -79.43592832 -55.28757368 -74.70463418     6     1004    0    0    0
H -76.74308669 -56.39988469 -73.57522300     6     1004    0    0    0
C -76.22030212 -52.88550006 -76.09132852     2     1004    1008   1009   1010
H -74.84569306 -53.08129221 -77.49134387     6     1007    0    0    0
H -77.69594176 -51.62608824 -76.71350753     6     1007    0    0    0
C -74.86613597 -51.85880796 -73.68978791     2     1007   1011   1012   1013
H -76.27643179 -51.85203714 -72.16771286     6    1010    0    0    0
H -73.08235243 -52.96031729 -73.40103116     6    1010    0    0    0
C -73.91457426 -49.09714062 -73.81417017     2    1010   1014   1015   1016
H -73.33900998 -48.76284686 -75.77654815     6    1013    0    0    0
H -75.59571524 -47.77086758 -73.66158424     6    1013    0    0    0
C -71.75705100 -48.42200704 -71.96004871     2    1013   1017   1018   1019
H -72.22139259 -49.23442909 -70.12401950     6    1016    0    0    0
H -69.97014001 -49.47783721 -72.38951478     6    1016    0    0    0
C -70.83580116 -45.61083699 -72.14294967     2    1016   1020   1021   1022
H -70.41642659 -45.06253744 -74.08427691     6    1019    0    0    0
H -72.34692836 -44.31454474 -71.62069543     6    1019    0    0    0
C -68.58358561 -44.91844410 -70.32234565     2    1019   1023   1024   1025
H -66.77948969 -45.96035675 -70.69586994     6    1022    0    0    0
H -68.25112445 -42.90506007 -70.42487252     6    1022    0    0    0
C -69.33572947 -45.38255235 -67.51865960     2    1022   1026   1027   1028
H -71.05427016 -44.23203958 -67.00708088     6    1025    0    0    0
H -69.88400726 -47.32411198 -67.37638202     6    1025    0    0    0
C -66.93852333 -44.77839586 -65.72060838     2    1025   1029   1030   1031
H -65.25665536 -45.90280238 -66.28405937     6    1028    0    0    0
H -66.42176494 -42.82810547 -65.85063106     6    1028    0    0    0
C -67.40957817 -45.68650383 -62.91961036     2    1028   1032   1033   1034
H -69.25991782 -44.99196339 -62.36026466     6    1031    0    0    0
H -67.41182226 -47.74884602 -62.77734856     6    1031    0    0    0
C -65.08909313 -44.91153830 -61.28830405     1    1031   1035   1036   1037
H -63.28026948 -45.04640334 -62.13377829     6    1034    0    0    0
H -65.05902719 -45.82033289 -59.38170314     6    1034    0    0    0
H -65.30986432 -42.93341951 -60.92633088     6    1034    0    0    0
H -81.54556314 -79.54898250 -55.67492945     6     1039    0    0    0 
C -81.62641766 -79.82599298 -57.72854841     1     1038    1040    1041    1042
H -80.50682688 -78.38803095 -58.59658184     6     1039    0    0    0
H -80.86653915 -81.64856501 -58.27317721     6     1039    0    0    0
C -84.49601028 -79.79930044 -58.55076510     2     1039    1043    1044    1045
H -85.56285461 -81.14357775 -57.21612191     6     1042    0    0    0
H -85.11856378 -77.88435555 -58.13505701     6     1042    0    0    0
C -84.92486346 -80.67863126 -61.35269682     2     1042    1046   1047   1048
H -84.30625394 -79.49392468 -62.97315096     6     1045    0    0    0
H -83.81952735 -82.30093079 -61.72474727     6     1045    0    0    0
C -87.79442124 -81.54292223 -61.75699387     2     1045   1049   1050   1051
H -87.99995364 -83.07892396 -60.36823703     6    1048    0    0    0
H -89.28384234 -80.05502107 -61.25617794     6    1048    0    0    0
C -88.37604429 -82.76259407 -64.39839796     2    1048   1052   1053   1054
[...]
 1619      H     -95.0200028000   -75.2919048400   -34.9492137100
 1620      H     -94.3546278600   -74.4927036900   -38.0606593000
 1621      C     -92.3172823800   -72.4617643300   -34.9385955200
 1622      H     -91.7358401600   -70.7809460100   -35.9786462600
 1623      H     -92.7372472000   -71.7946175000   -32.9030659700
 1624      C     -90.0209897600   -74.3176711100   -34.8840493300
 1625      H     -90.3959773300   -76.0340693400   -33.8604632600
 1626      H     -89.4438731000   -74.8742314900   -36.8155420400
 1627      C     -87.7650623600   -73.0554789800   -33.5766839200
 1628      H     -87.2100507500   -71.4953730100   -34.6300394200
 1629      H     -88.2871828800   -72.2158412100   -31.7750282600
 1630      C     -85.5358372300   -74.9852473500   -33.2631974800
 1631      H     -86.2163801500   -76.5674574000   -32.3202577800
 1632      H     -85.1472443100   -75.5525689500   -35.1840907600
 1633      C     -83.1559780800   -73.8884934500   -32.1015904200
 1634      H     -82.2281342800   -72.7553158500   -33.4690259200
 1635      H     -83.5789606500   -72.4613267300   -30.6598079900
 1636      C     -81.4368835300   -75.8099727400   -30.6541838300
 1637      H     -80.0544154300   -74.9236800200   -29.4899765000
 1638      H     -82.5022004800   -76.8659394900   -29.2803311300
 1639      C     -79.8878800900   -77.4822250600   -32.4170815100
 1640      H     -81.2475197900   -78.5271195200   -33.7173165800
 1641      H     -78.5543223500   -76.2166789200   -33.4595738300
 1642      C     -78.1935652900   -79.4688288300   -31.0672537400
 1643      H     -77.3198470200   -78.6802642600   -29.4902488900
 1644      H     -76.6454931000   -80.1201459200   -32.2814210700
 1645      H     -79.1748578300   -81.1201256100   -30.4082116200
 1646      H     -62.9696143900   -65.7221757900   -61.3027121600
 1647      C     -62.6731209200   -67.7234772300   -60.7761422000
 1648      H     -64.4584337600   -68.8766338200   -61.1986313200
 1649      H     -61.1839297900   -68.5476715100   -61.8230710200
 1650      C     -62.2767213800   -67.9978156000   -57.9820156500
 1651      H     -61.8906918400   -69.9627745900   -57.4459954100
 1652      H     -60.5030788900   -67.0229226900   -57.5272146900
 1653      C     -64.5748946100   -67.0131055200   -56.3221614100
 1654      H     -65.0741009300   -64.9537590400   -56.6203245500
 1655      H     -66.3146263800   -67.6822877200   -56.8844782800
 1656      C     -64.0929650200   -67.5715654100   -53.5004664300
 1657      H     -63.3738401500   -69.4843788600   -53.1869724200
 1658      H     -62.7815943400   -66.1856046700   -52.7680416500
 1659      C     -66.4996738700   -67.6227248200   -51.9659686300
 1660      H     -67.6343461100   -65.9826300900   -52.5724405700
 1661      H     -67.5786267200   -69.3831475300   -52.3577220000
 1662      C     -66.1040984500   -67.7203298000   -49.1790057200
 1663      H     -64.9031956000   -69.3428259500   -48.6872521400
 1664      H     -64.9809123500   -66.2091002600   -48.5083858400
 1665      C     -68.7661879100   -67.5610807000   -47.8015426100
 1666      H     -70.0907971100   -66.2619278700   -48.6282079300
 1667      H     -69.6974550300   -69.3783237900   -48.0119113000
 1668      C     -68.4605770700   -67.1471985100   -44.9216869300
 1669      H     -67.2458787400   -68.7348081400   -44.2786032900
 1670      H     -67.1817669600   -65.6812197500   -44.2643880300
 1671      C     -71.0014129300   -67.2815714700   -43.6375334500
 1672      H     -71.8762802900   -65.5869388500   -44.2540567500
 1673      H     -72.0439063600   -68.8995737400   -44.3440284300
 1674      C     -70.6484710100   -67.1757353100   -40.9346097800
 1675      H     -70.2778334000   -69.0522179600   -40.3403872100
 1676      H     -69.0735141000   -65.9951614300   -40.3649867700
 1677      C     -73.0673360500   -66.1919323100   -39.5037774400
 1678      H     -73.4527920700   -64.2744180100   -39.9271193700
 1679      H     -74.6887586900   -67.2425532400   -40.3566530900
 1680      C     -73.0686748500   -66.4929369300   -36.6639589400
 1681      H     -75.0408816900   -66.6701242900   -36.0145855300
 1682      H     -72.2409875700   -64.9249099300   -35.8211018200
 1683      H     -72.1882594600   -68.2393032800   -35.8789898900
 1684      H     -73.3687176100   -60.8405094100   -70.6753784200
 1685      C     -74.5305595800   -59.9843607500   -69.2986679400
 1686      H     -73.0861639200   -59.1938168700   -67.9401510400
 1687      H     -75.5902400200   -58.6706384800   -70.4050871400
 1688      C     -76.2797157500   -61.9432625200   -68.2278864300
 1689      H     -77.8666953400   -62.1578840600   -69.4330276200
 1690      H     -75.3195337300   -63.6817395000   -68.0179623800
 1691      C     -77.1558049300   -61.1211612900   -65.6186344100
 1692      H     -75.5973702600   -60.4826555100   -64.4282993700
 1693      H     -78.2999411500   -59.4121548000   -66.0129186500
 1694      C     -78.7165938100   -63.1313904200   -64.1429594700
 1695      H     -80.4013914400   -63.6559322600   -65.0651736200
 1696      H     -77.5344977800   -64.7609676200   -64.0124160900
 1697      C     -79.3131159900   -62.1901801000   -61.4693047900
 1698      H     -77.4778363400   -61.5822949600   -60.7441993200
 1699      H     -80.2948003800   -60.4893027100   -61.9155593700
 1700      C     -80.8583442400   -64.0492580700   -59.7998543800
 1701      H     -82.7677916000   -64.4654797900   -60.6564708400
 1702      H     -79.9034670200   -65.8295094800   -59.8729895200
 1703      C     -81.1826136100   -63.0771744900   -57.1386544700
 1704      H     -79.2366680700   -63.0317393900   -56.3921558000
 1705      H     -81.7335787300   -61.1546428900   -57.1018592900
 1706      C     -83.0158571300   -64.7712797800   -55.7304704300
 1707      H     -83.4244540600   -63.9110920400   -53.9499570100
 1708      H     -84.8628291900   -64.5716676400   -56.6510936500
 1709      C     -82.4732399900   -67.6385759800   -55.4402935100
 1710      H     -82.2435403300   -68.4023581400   -57.3595533200
 1711      H     -80.6000472000   -67.6762212400   -54.5942101500
 1712      C     -84.5083352700   -68.9736647900   -53.9800987600
 1713      H     -84.3543812100   -68.6298020500   -51.9531116500
 1714      H     -86.2968509700   -68.1657659400   -54.2493939500
 1715      C     -84.4614146800   -71.9026594400   -54.4199325700
 1716      H     -85.8326264800   -72.9381863000   -53.1655799700
 1717      H     -85.2445730900   -72.3786669100   -56.2258634400
 1718      C     -81.8476822500   -73.0886406500   -54.4050202900
 1719      H     -80.6139021600   -72.5131336300   -56.0047514200
 1720      H     -81.8577634300   -75.1565083600   -54.0395726300
 1721      H     -80.7570195300   -72.3271215000   -52.8652699400
 1722      H     -73.1962112600   -42.5946469900   -49.3068208800
 1723      C     -74.5697792600   -42.8018433500   -47.8022047700
 1724      H     -74.1267836500   -44.6406874400   -46.7695002300
 1725      H     -74.0062798000   -41.3353336700   -46.4459798500
 1726      C     -77.3575556400   -42.4785486300   -48.7789640400
 1727      H     -78.5943264800   -42.7242222700   -47.1026760700
 1728      H     -77.7231303700   -40.4746160500   -49.6026964500
 1729      C     -77.9273892700   -44.8716848600   -50.5050705000
 1730      H     -76.4593011600   -44.7604674400   -51.8868127900
 1731      H     -77.8174878300   -46.6837058200   -49.5558243500
 1732      C     -80.6542088800   -44.8444252900   -51.6514200800
 1733      H     -82.0953428800   -44.3894863400   -50.1749116800
 1734      H     -80.9750378300   -43.3146431100   -52.8848631600
 1735      C     -81.1190117700   -47.4395428900   -52.9946441500
 1736      H     -79.6548310200   -47.3272696600   -54.5036628400
 1737      H     -80.9040565100   -49.1998978100   -52.0817703200
 1738      C     -83.7564536500   -47.4803833000   -54.2665456900
 1739      H     -84.9810320300   -48.0285408300   -52.7266830300
 1740      H     -84.2067797600   -45.8140286600   -54.9636295100
 1741      C     -83.9582679000   -49.5091864000   -56.3619509900
 1742      H     -82.4131166800   -49.4985885600   -57.7130266800
 1743      H     -83.8191418600   -51.4291116500   -55.6849804600
 1744      C     -86.2080477100   -48.9762777000   -57.9512144300
 1745      H     -87.9982488500   -48.7707876100   -57.0238006000
 1746      H     -85.9545851900   -47.1151873700   -58.8058366300
 1747      C     -86.6326503400   -50.9009070400   -59.9893403200
 1748      H     -85.0324583900   -50.9767437500   -61.1774067200
 1749      H     -87.3640123800   -52.7287368400   -59.2387668800
 1750      C     -88.8033629000   -50.0687109600   -61.7907707200
 1751      H     -90.5018009600   -50.1008268300   -60.6192611400
 1752      H     -88.4013592000   -48.0864415900   -62.2696968900
 1753      C     -88.8928854300   -51.5815703000   -64.3103177900
 1754      H     -87.2722765400   -51.1701700700   -65.4290335900
 1755      H     -88.8493883700   -53.6229777800   -63.7656095300
 1756      C     -91.0489926600   -51.2945933900   -66.1252711500
 1757      H     -90.9249889200   -49.4933466900   -67.1839112900
 1758      H     -92.9098006700   -51.2221668200   -65.1600243800
 1759      H     -91.0612935000   -52.8190782500   -67.5664628600
 1760      H     -97.5041027700   -39.2390636300   -63.2172318500
 1761      C     -95.8501633900   -38.6430132800   -62.0348029600
 1762      H     -94.7308260400   -40.1426587800   -61.5892902900
 1763      H     -94.8832694600   -37.4527251300   -63.3787069400
 1764      C     -96.6676220000   -37.0295840300   -59.7915962200
 1765      H     -98.3472524500   -36.1589932800   -60.4021610200
 1766      H     -96.9431405200   -38.3322407100   -58.2928315900
 1767      C     -94.5867414500   -35.0631036600   -59.1239503000
 1768      H     -93.8250590100   -34.2713236600   -60.7659108300
 1769      H     -95.6397248400   -33.4811230500   -58.1463811900
 1770      C     -92.6301580800   -36.0892841100   -57.2193629000
 1771      H     -93.5640190400   -36.4115434200   -55.4253486100
 1772      H     -91.7956974900   -37.8930463600   -58.0303373600
 1773      C     -90.6732954000   -34.0969383600   -56.3889813900
 1774      H     -89.2120158300   -33.7278908400   -57.7330874200
 1775      H     -91.7523115400   -32.3475665400   -56.2420894600
 1776      C     -89.2757398400   -34.6237762100   -53.9002485200
 1777      H     -90.5480161800   -35.1460127900   -52.3622037700
 1778      H     -88.0872819900   -36.2571962400   -54.0546787900
 1779      C     -87.5487252100   -32.3359419000   -53.0579273500
 1780      H     -86.2125994200   -32.0771382300   -54.5765013500
 1781      H     -88.8052553000   -30.7224078100   -52.9226426800
 1782      C     -86.2618843600   -32.7525268100   -50.5713597600
 1783      H     -85.2931189300   -34.5896104700   -50.1009412700
 1784      H     -84.6028637700   -31.3731285700   -50.5088775900
 1785      C     -87.7060556500   -32.1951692100   -48.2083922600
 1786      H     -89.0420569100   -30.6648776700   -48.6516631900
 1787      H     -88.9643159500   -33.9049009000   -48.0049867500
 1788      C     -86.1824793300   -31.4974829100   -45.8029608100
 1789      H     -84.5429561300   -32.6549934000   -45.4795052700
 1790      H     -85.1941022800   -29.7152316700   -46.0104640400
 1791      C     -87.7942969400   -31.3026412900   -43.3897969500
 1792      H     -89.1118987600   -29.6640652000   -43.5296298600
 1793      H     -89.0605007300   -32.8281499900   -43.3509620200
 1794      C     -86.3588293800   -31.1624389000   -40.8719767300
 1795      H     -85.0269487800   -29.6704841000   -41.0548319100
 1796      H     -85.1421690600   -32.6700124100   -40.3042886000
 1797      H     -87.6487510400   -30.4507741600   -39.4118534300
 1798      H    -108.1477279200   -80.6698361900   -46.9261004200
 1799      C    -109.6732347000   -79.9575597100   -48.0414865100
 1800      H    -110.4389730500   -81.5456399800   -49.0821488900
 1801      H    -111.2968069100   -79.2725012700   -46.8725668800
 1802      C    -109.0413765400   -77.8945727000   -50.0475278700
 1803      H    -109.7462399100   -76.1064105600   -49.3901953200
 1804      H    -106.9426346200   -77.8392112000   -50.3111753200
 1805      C    -110.2982519300   -78.1263665400   -52.6262281100
 1806      H    -110.0732400300   -79.9787237400   -53.6282085500
 1807      H    -112.2823942800   -77.9652548900   -52.2523135900
 1808      C    -109.5275070700   -75.8931305700   -54.3852078500
 1809      H    -111.0078154200   -75.8219847300   -55.8150663800
 1810      H    -109.5889332100   -74.1849775300   -53.3256608300
 1811      C    -106.8655828900   -76.1119980300   -55.7124582500
 1812      H    -105.2874850700   -75.8736846400   -54.4082836700
 1813      H    -106.5149370000   -78.0140622800   -56.3226263100
 1814      C    -106.4436442300   -74.1096020700   -57.8070438800
 1815      H    -108.1368929000   -74.2116843800   -58.9874653600
 1816      H    -106.5276590100   -72.2678882100   -56.8555951700
 1817      C    -104.0058730800   -74.5164646500   -59.2895868300
 1818      H    -102.3261925300   -75.1186556100   -58.0621687400
 1819      H    -104.3482244900   -76.0422333200   -60.5178222600
 1820      C    -103.3548969500   -72.2032975000   -60.8305639800
 1821      H    -104.8862898400   -71.6613279800   -62.2175941100
 1822      H    -102.8406545500   -70.5064369000   -59.6579210700
 1823      C    -100.8585252500   -72.6791523200   -62.2979525100
 1824      H     -99.3044526300   -73.0046917800   -60.9023095400
 1825      H    -101.1592050900   -74.3645299000   -63.4189174800
 1826      C     -99.9598601400   -70.6133966300   -63.9891262900
 1827      H    -101.5028881500   -69.8964681700   -65.1077373100
 1828      H     -99.4388672100   -69.0802592800   -62.8075127700
 1829      C     -97.9440075700   -71.5146678600   -65.7859166700
 1830      H     -96.3635556100   -72.3241703900   -64.7774688900
 1831      H     -98.7874546400   -73.0947610200   -66.9966501000
 1832      C     -96.9777144300   -69.2131176900   -67.3698702600
 1833      H     -95.3481779300   -69.5303201400   -68.5950124500
 1834      H     -96.5295489500   -67.4999806600   -66.2210393700
 1835      H     -98.4325599200   -68.4016429900   -68.4347952700
 1836      H     -99.9233690400   -63.4888841400   -60.8883844300
 1837      C    -100.7109110800   -62.9399503300   -62.7595186400
 1838      H    -100.0372714600   -61.1522889000   -63.4311341400
 1839      H     -99.8787188700   -64.1166154000   -64.2337287500
 1840      C    -103.5402208200   -63.1108369600   -62.9965571000
 1841      H    -104.1731465100   -63.6236310700   -64.8680350100
 1842      H    -104.2466828200   -64.8044389600   -61.9231545100
 1843      C    -104.9737460000   -60.8810902400   -62.0607489900
 1844      H    -104.7202613400   -60.6238576200   -60.0632210300
 1845      H    -104.2815389400   -59.0625935900   -62.7939595600
 1846      C    -107.7799214300   -61.2262409200   -62.4674102700
 1847      H    -108.5308453300   -61.5044873400   -64.3486372100
 1848      H    -108.2868324100   -62.9328118600   -61.3934338100
 1849      C    -109.0269004700   -58.9453715300   -61.1928596300
 1850      H    -109.0800763700   -59.2733430300   -59.2185901200
 1851      H    -108.0240193000   -57.0556279600   -61.3699281200
 1852      C    -111.7969144600   -58.8007205900   -61.9834615600
 1853      H    -112.9122525100   -60.6224244600   -61.8347528800
 1854      H    -112.5790975200   -57.4312677500   -60.7592445200
 1855      C    -112.0500351100   -57.7723381700   -64.6564828000
 1856      H    -111.0414256800   -56.0677592200   -64.7737332700
 1857      H    -111.2089462100   -59.0961364200   -66.0798605700
 1858      C    -114.7938982000   -57.5980776400   -65.5294418300
 1859      H    -114.7784604200   -57.4602470400   -67.6547525400
 1860      H    -115.5967689000   -59.5336431200   -65.2765525800
 1861      C    -116.2603389700   -55.6107093000   -64.2247116600
 1862      H    -116.2105880500   -55.8688521900   -62.1560355300
 1863      H    -115.3006243300   -53.9504538900   -64.7268676000
 1864      C    -119.1274957300   -55.6142404400   -65.0306803700
 1865      H    -119.3344247400   -54.8822839000   -66.9204429800
 1866      H    -119.7466898900   -57.5352630700   -65.2019116500
 1867      C    -120.8799371600   -54.2323638300   -63.0503725800
 1868      H    -120.5554615600   -55.2772880000   -61.2971898500
 1869      H    -120.3570099100   -52.1313433800   -63.1227096300
 1870      C    -123.6222628900   -54.5793004800   -63.7198404700
 1871      H    -124.7781708700   -54.9743294300   -62.1075956400
 1872      H    -123.9134370100   -56.0778572300   -65.1124246600
 1873      H    -124.0645796200   -52.6146159600   -64.3205878500
 1874      H    -105.7850640700   -53.2162305500   -36.1725627700
 1875      C    -104.7211221500   -53.6645544400   -34.4864434900
 1876      H    -105.2764621100   -52.2257531000   -33.1533303300
 1877      H    -105.2370339900   -55.4865617700   -33.9084177900
 1878      C    -101.9694956900   -53.2794545300   -34.9663268100
 1879      H    -101.6850024200   -51.1900772200   -35.2939322400
 1880      H    -100.9307724700   -54.0531016700   -33.5037139000
 1881      C    -101.0805692500   -54.4480102800   -37.5423506700
 1882      H    -101.4576905300   -56.5365370100   -37.5074409200
 1883      H    -102.2262399800   -53.8432643400   -39.0752618900
 1884      C     -98.3880616200   -54.0245454600   -38.1385723400
 1885      H     -97.8860267000   -52.0143305600   -38.0915105100
 1886      H     -97.1850524000   -54.6735294700   -36.5471796400
 1887      C     -97.6269051600   -55.6891394000   -40.5027783600
 1888      H     -98.1710212600   -57.6878733900   -40.4119940000
 1889      H     -98.6097140600   -54.9179667400   -42.1885573700
 1890      C     -94.7389580100   -55.7482317100   -40.6426749100
 1891      H     -94.1508253900   -53.7899005500   -40.8384191700
 1892      H     -93.9487103500   -56.1955607900   -38.7430053700
 1893      C     -93.9310670500   -57.7542639900   -42.6192481800
 1894      H     -94.6798199000   -59.5417014500   -41.9839678000
 1895      H     -95.0323328100   -57.1972255700   -44.3096775300
 1896      C     -91.1030949600   -58.2124428300   -43.2657828200
 1897      H     -90.4812399100   -56.5063341300   -43.9330346600
 1898      H     -90.0653894800   -58.5549945900   -41.6303785900
 1899      C     -90.7634305600   -60.2079975600   -45.2627233800
 1900      H     -90.9130381600   -62.0711792600   -44.3103933200
 1901      H     -92.0892160800   -59.9266512400   -46.7570213200
 1902      C     -88.0675919200   -60.1849401300   -46.3026783200
 1903      H     -88.0721122100   -59.2219137300   -48.0292039700
 1904      H     -86.8187012400   -59.3517029700   -45.0254032100
 1905      C     -87.0129531100   -62.7977303100   -46.8649555200
 1906      H     -86.7264124700   -63.8087358500   -45.0624681600
 1907      H     -88.5617469500   -63.6303662700   -47.9257265900
 1908      C     -84.5963641900   -62.6776277500   -48.5343024400
 1909      H     -83.6921729000   -64.2659988800   -49.5675254800
 1910      H     -83.1022719200   -61.9682155500   -47.3025162000
 1911      H     -84.6248518600   -61.0136816300   -49.8213386500
 ----------------------------------------------------------------
 Nuclear Repulsion Energy =           0.00000000 hartrees
 There are       48 alpha and       48 beta electrons
 Total job time:  125.73s(wall), 248.12s(cpu) 
 Wed Jun  1 23:32:45 2022

        *************************************************************
        *                                                           *
        *  Thank you very much for using Q-Chem.  Have a nice day.  *
        *                                                           *
        *************************************************************


