                  Welcome to Q-Chem
     A Quantum Leap Into The Future Of Chemistry


 Q-Chem 5.4 (devel), Q-Chem, Inc., Pleasanton, CA (2021)

 E. Epifanovsky,  A. T. B. Gilbert,  Xintian Feng,  Joonho Lee,  Yuezhi Mao,  
 N. Mardirossian,  P. Pokhilko,  A. White,  M. Wormit,  M. P. Coons,  
 A. L. Dempwolff,  Zhengting Gan,  D. Hait,  P. R. Horn,  L. D. Jacobson,  
 I. Kaliman,  J. Kussmann,  A. W. Lange,  Ka Un Lao,  D. S. Levine,  Jie Liu,  
 S. C. McKenzie,  A. F. Morrison,  K. Nanda,  F. Plasser,  D. R. Rehn,  
 M. L. Vidal,  Zhi-Qiang You,  Ying Zhu,  B. Alam,  B. Albrecht,  
 A. Aldossary,  E. Alguire,  J. H. Andersen,  D. Barton,  K. Begam,  A. Behn,  
 Y. A. Bernard,  E. J. Berquist,  H. Burton,  A. Carreras,  K. Carter-Fenk,  
 R. Chakraborty,  A. D. Chien,  K. D. Closser,  V. Cofer-Shabica,  
 S. Dasgupta,  Jia Deng,  M. de Wergifosse,  M. Diedenhofen,  Hainam Do,  
 S. Ehlert,  Po-Tung Fang,  S. Fatehi,  Qingguo Feng,  T. Friedhoff,  
 J. Gayvert,  Qinghui Ge,  G. Gidofalvi,  M. Goldey,  J. Gomes,  
 C. Gonzalez-Espinoza,  S. Gulania,  A. Gunina,  M. W. D. Hanson-Heine,  
 P. H. P. Harbach,  A. W. Hauser,  M. F. Herbst,  M. Hernandez Vera,  
 M. Hodecker,  Z. C. Holden,  S. Houck,  Xunkun Huang,  Kerwin Hui,  
 B. C. Huynh,  M. Ivanov,  Hyunjun Ji,  Hanjie Jiang,  B. Kaduk,  S. Kaehler,  
 K. Khistyaev,  Jaehoon Kim,  P. Klunzinger,  Z. Koczor-Benda,  
 Joong Hoon Koh,  D. Kosenkov,  L. Koulias,  T. Kowalczyk,  C. M. Krauter,  
 K. Kue,  A. Kunitsa,  T. Kus,  A. Landau,  K. V. Lawler,  D. Lefrancois,  
 S. Lehtola,  Rain Li,  Yi-Pei Li,  Jiashu Liang,  M. Liebenthal,  
 Hung-Hsuan Lin,  You-Sheng Lin,  Fenglai Liu,  Kuan-Yu Liu,  
 M. Loipersberger,  A. Luenser,  A. Manjanath,  P. Manohar,  E. Mansoor,  
 S. F. Manzer,  Shan-Ping Mao,  A. V. Marenich,  T. Markovich,  S. Mason,  
 S. A. Maurer,  P. F. McLaughlin,  M. F. S. J. Menger,  J.-M. Mewes,  
 S. A. Mewes,  P. Morgante,  J. W. Mullinax,  K. J. Oosterbaan,  G. Paran,  
 Alexander C. Paul,  Suranjan K. Paul,  F. Pavosevic,  Zheng Pei,  S. Prager,  
 E. I. Proynov,  E. Ramos,  B. Rana,  A. E. Rask,  A. Rettig,  R. M. Richard,  
 F. Rob,  E. Rossomme,  T. Scheele,  M. Scheurer,  M. Schneider,  
 N. Sergueev,  S. M. Sharada,  W. Skomorowski,  D. W. Small,  C. J. Stein,  
 Yu-Chuan Su,  E. J. Sundstrom,  Zhen Tao,  J. Thirman,  T. Tsuchimochi,  
 N. M. Tubman,  S. P. Veccham,  O. Vydrov,  J. Wenzel,  J. Witte,  A. Yamada,  
 Kun Yao,  S. Yeganeh,  S. R. Yost,  A. Zech,  Igor Ying Zhang,  Xing Zhang,  
 Yu Zhang,  D. Zuev,  A. Aspuru-Guzik,  A. T. Bell,  N. A. Besley,  
 K. B. Bravaya,  B. R. Brooks,  D. Casanova,  Jeng-Da Chai,  S. Coriani,  
 C. J. Cramer,  A. E. DePrince, III,  R. A. DiStasio Jr.,  A. Dreuw,  
 B. D. Dunietz,  T. R. Furlani,  W. A. Goddard III,  S. Grimme,  
 S. Hammes-Schiffer,  T. Head-Gordon,  W. J. Hehre,  Chao-Ping Hsu,  
 T.-C. Jagau,  Yousung Jung,  A. Klamt,  Jing Kong,  D. S. Lambrecht,  
 WanZhen Liang,  N. J. Mayhall,  C. W. McCurdy,  J. B. Neaton,  
 C. Ochsenfeld,  J. A. Parkhill,  R. Peverati,  V. A. Rassolov,  Yihan Shao,  
 L. V. Slipchenko,  T. Stauch,  R. P. Steele,  J. E. Subotnik,  
 A. J. W. Thom,  A. Tkatchenko,  D. G. Truhlar,  T. Van Voorhis,  
 T. A. Wesolowski,  K. B. Whaley,  H. L. Woodcock III,  P. M. Zimmerman,  
 S. Faraji,  P. M. W. Gill,  M. Head-Gordon,  J. M. Herbert,  A. I. Krylov

 Additional authors for Version 5.4.1: 
 S. Kotaru,  Shaozhi Li,  Xiangyuan Li,  F. Matz,  A. Molle,  Haisheng Ren,  
 Yingli Su,  Hung-Yi Tsai,  C. Utku,  Fang Wang

 Contributors to earlier versions of Q-Chem not listed above: 
 R. D. Adamson,  B. Austin,  R. Baer,  J. Baker,  G. J. O. Beran,  
 K. Brandhorst,  S. T. Brown,  E. F. C. Byrd,  A. K. Chakraborty,  
 G. K. L. Chan,  Chun-Min Chang,  Yunqing Chen,  C.-L. Cheng,  
 Siu Hung Chien,  D. M. Chipman,  D. L. Crittenden,  H. Dachsel,  
 R. J. Doerksen,  A. D. Dutoi,  R. G. Edgar,  J. Fosso-Tande,  
 L. Fusti-Molnar,  D. Ghosh,  A. Ghysels,  A. Golubeva-Zadorozhnaya,  
 J. Gonthier,  M. S. Gordon,  S. R. Gwaltney,  G. Hawkins,  J. E. Herr,  
 A. Heyden,  S. Hirata,  E. G. Hohenstein,  G. Kedziora,  F. J. Keil,  
 C. Kelley,  Jihan Kim,  R. A. King,  R. Z. Khaliullin,  P. P. Korambath,  
 W. Kurlancheek,  A. Laurent,  A. M. Lee,  M. S. Lee,  S. V. Levchenko,  
 Ching Yeh Lin,  D. Liotard,  E. Livshits,  R. C. Lochan,  I. Lotan,  
 L. A. Martinez-Martinez,  P. E. Maslen,  N. Nair,  D. P. O'Neill,  
 D. Neuhauser,  E. Neuscamman,  C. M. Oana,  R. Olivares-Amaya,  R. Olson,  
 T. M. Perrine,  B. Peters,  P. A. Pieniazek,  A. Prociuk,  Y. M. Rhee,  
 J. Ritchie,  M. A. Rohrdanz,  E. Rosta,  N. J. Russ,  H. F. Schaefer III,  
 M. W. Schmidt,  N. E. Schultz,  S. Sharma,  N. Shenvi,  C. D. Sherrill,  
 A. C. Simmonett,  A. Sodt,  T. Stein,  D. Stuck,  K. S. Thanthiriwatte,  
 V. Vanovschi,  L. Vogt,  Tao Wang,  A. Warshel,  M. A. Watson,  
 C. F. Williams,  Q. Wu,  X. Xu,  Jun Yang,  W. Zhang,  Yan Zhao

 Please cite Q-Chem as follows:
 Y. Shao et al., Mol. Phys. 113, 184-215 (2015)
 DOI: 10.1080/00268976.2014.952696

 Q-Chem 5.4.1 for Intel X86 EM64T Linux

 Parts of Q-Chem use Armadillo 9.900.5 (Nocturnal Misbehaviour).
 http://arma.sourceforge.net/

 Q-Chem begins on Wed Jun 22 16:41:23 2022  

 Host: p09r14n13.grace.hpc.yale.internal
0

     Scratch files written to /home/tl686/scratch60/qchem_dev/scratch/qchem246746//
 Processing $rem in /home/tl686/qchem_dev/qchem/config/preferences:
 Processing $rem in /home/tl686/.qchemrc:
Applying user defined connections for MM calculations

 Checking the input file for inconsistencies... 	...done.

--------------------------------------------------------------
User input:
--------------------------------------------------------------
$molecule
0   1
 Fe -95.61850398 -56.83517765 -55.29216926    -1  0   0   0   0
C -92.44365465 -55.90603826 -54.20963868    -2  0   0   0   0 
C -98.66169386 -57.82186040 -56.12784199    -2  0   0   0   0
C -97.03809364 -53.74308864 -55.34728431    -2  0   0   0   0
C -94.38935189 -58.30660011 -58.13155816    -2  0   0   0   0
C -95.82512279 -58.38881733 -52.18135839    -2  0   0   0   0
O -90.46628540 -55.33912174 -53.78114676    -3  0   0   0   0
O -100.77151508 -58.42919276 -56.46752643    -3  0   0   0   0 
O -98.19749198 -51.80159907 -55.12048088    -3  0   0   0   0
O -93.69849143 -59.38197024 -59.95962753    -3  0   0   0   0 
O -95.36222273 -59.26724262 -50.25806228    -3  0   0   0   0
H -72.40908952 -44.21774743 -56.95813411      6     13    0    0    0 
C -73.78679521 -42.68102429 -57.46445078     1     12    14    15    16
H -74.45719989 -42.06855333 -55.49456986     6     13    0    0    0
H -72.84461590 -41.06857932 -58.42371323     6     13    0    0    0
C -76.19654378 -43.54541643 -58.98099158     2     13    17    18    19
H -77.21224587 -45.00525846 -57.88067914     6     16    0    0    0
H -77.51789935 -41.98976223 -59.41430884     6     16    0    0    0
C -75.62401929 -44.82511933 -61.50235294     2     16    20   21   22
H -74.80483266 -43.40669726 -62.75916169     6     19    0    0    0
H -74.22620528 -46.30389979 -61.24813922     6     19    0    0    0
C -77.94066534 -45.96315354 -62.72365353     2     19   23   24   25
H -78.60651070 -47.63413934 -61.60483835     6    22    0    0    0
H -79.27424288 -44.46103140 -62.83962467     6    22    0    0    0
C -77.38258509 -46.76877097 -65.46700593     2    22   26   27   28
H -76.61291711 -45.15836294 -66.29874042     6    25    0    0    0
H -75.99802242 -48.23111719 -65.52706709     6    25    0    0    0
C -79.72985811 -47.63299818 -66.90310481     2    25   29   30   31
H -80.63250575 -49.13474554 -65.67923733     6    28    0    0    0
H -80.96701063 -45.95270286 -66.98725208     6    28    0    0    0
C -78.93009390 -48.51376903 -69.49832213     2    28   32   33   34
H -77.94051201 -46.96430974 -70.59251404     6    31    0    0    0
H -77.56764216 -49.94703358 -69.27554182     6    31    0    0    0
C -81.02508606 -49.56059730 -71.12711662     2    31   35   36   37
H -82.42585613 -50.87320656 -70.09756489     6    34    0    0    0
H -82.23143235 -47.91951251 -71.79874983     6    34    0    0    0
C -80.19639197 -50.80847568 -73.55574509     2    34   38   39   40
H -79.25775770 -49.29133284 -74.59113820     6    37    0    0    0
H -78.89449324 -52.19230969 -72.83384667     6    37    0    0    0
C -82.38481633 -52.19016452 -74.92570030     2    37   41   42   43
H -83.97258960 -52.47528413 -73.55381113     6    40    0    0    0
H -83.02818147 -50.92025697 -76.39195462     6    40    0    0    0
C -81.67885326 -54.75361282 -76.14845869     2    40   44   45   46
H -80.04990247 -54.42517665 -77.43482504     6    43    0    0    0
H -81.13652164 -55.97395962 -74.60635820     6    43    0    0    0
C -83.83696117 -56.07796795 -77.50179054     1    43   47   48   49
H -85.16174041 -56.55195816 -76.14322990     6    46    0    0    0
H -83.46716712 -57.87629420 -78.47413340     6    46    0    0    0
H -84.77182277 -54.65726516 -78.77012003     6    46    0    0    0
H -85.31047018 -56.56920884 -61.79732968     6     51    0    0    0 
C -85.71186149 -57.42970172 -63.57875445     1     50    52    53    54
H -84.97338913 -59.35914732 -63.50290676     6     51    0    0    0
H -87.63003185 -57.40422880 -63.69741160     6     51    0    0    0
C -84.49569144 -56.01017693 -65.81986058     2     51    55    56    57
H -85.19028914 -54.08994123 -65.81056345     6     54    0    0    0
H -82.40685683 -55.88315384 -65.39473731     6     54    0    0    0
C -85.03086085 -56.93647981 -68.54230647     2     54    58   59   60
H -87.07361013 -56.90811174 -68.69678305     6     57    0    0    0
H -84.25339779 -55.77287459 -69.95378143     6     57    0    0    0
C -84.51287248 -59.74768875 -69.23506724     2     57   61   62   63
H -82.56338470 -60.06528904 -68.98049807     6    60    0    0    0
H -85.23882911 -61.17225544 -67.81665835     6    60    0    0    0
C -85.46331626 -60.74398261 -71.84441252     2    60   64   65   66
H -87.33941341 -61.79536922 -71.82852671     6    63    0    0    0
H -85.94336844 -59.29094150 -73.09640104     6    63    0    0    0
C -83.45635062 -62.41570125 -73.29447270     2    63   67   68   69
H -84.21173805 -62.90371979 -75.15917335     6    66    0    0    0
H -81.81971309 -61.14507693 -73.48461899     6    66    0    0    0
C -83.06226142 -64.92426519 -71.79536131     2    66   70   71   72
H -82.33891545 -64.18615115 -70.05227750     6    69    0    0    0
H -84.70287579 -65.98060849 -71.59532768     6    69    0    0    0
C -81.14361432 -66.80997378 -72.88720381     2    69   73   74   75
H -81.47722758 -67.26246277 -74.78833058     6    72    0    0    0
H -79.29536044 -65.94847021 -73.04650720     6    72    0    0    0
C -80.96418367 -69.41285703 -71.47186629     2    72   76   77   78
H -80.49437768 -69.22331397 -69.47751490     6    75    0    0    0
H -82.82290649 -70.21803144 -71.79088502     6    75    0    0    0
C -79.01010749 -71.35242048 -72.65235710     2    75   79   80   81
H -79.76766250 -72.02220760 -74.54617513     6    78    0    0    0
H -77.29793015 -70.40427997 -73.26972855     6    78    0    0    0
C -78.51530060 -73.59136660 -70.76741585     2    78   82   83   84
H -78.01309985 -72.63091738 -68.96386180     6    81    0    0    0
H -80.12960873 -74.85772623 -70.48388901     6    81    0    0    0
C -76.25304833 -75.30984659 -71.37675927     1    81   85   86   87
H -74.58398483 -74.23264123 -71.03686336     6    84    0    0    0
H -76.34236951 -76.14948414 -73.26563066     6    84    0    0    0
H -76.04797216 -77.05233040 -69.96465596     6    84    0    0    0
H -85.69345407 -35.19176434 -82.11906131     6     89    0    0    0 
C -84.00710805 -35.27159978 -83.22177020     1     88    90    91    92
H -84.39104755 -34.15641039 -84.85306223     6     89    0    0    0
H -82.31794957 -34.51321403 -82.30026580     6     89    0    0    0
C -83.75461522 -38.04383843 -84.17906716     2     89    93    94    95
H -83.63261839 -39.23692877 -82.55332832     6     92    0    0    0
H -85.56263751 -38.27947742 -85.20962460     6     92    0    0    0
C -81.60820658 -38.74665974 -85.87024860     2     92    96   97   98
H -81.30558911 -37.26704909 -87.34217644     6     95    0    0    0
H -79.96052049 -38.69283731 -84.65262683     6     95    0    0    0
C -81.85231195 -41.21206662 -87.07613444     2     95   99   100   101
H -82.36738010 -42.70665743 -85.72896691     6    98    0    0    0
H -83.22299420 -40.90405321 -88.51698176     6    98    0    0    0
C -79.54101976 -41.86471923 -88.71409531     2    98   102   103   104
H -79.20351041 -40.45541629 -90.20928767     6    101    0    0    0
H -77.96874914 -41.70408006 -87.37078312     6    101    0    0    0
C -79.55234425 -44.45606355 -90.10018534     2    101   105   106   107
H -80.72809295 -45.76471564 -89.15746529     6    104    0    0    0
H -80.37932004 -43.91136152 -91.97549430     6    104    0    0    0
C -76.80351013 -45.59396854 -90.60959021     2    104   108   109   110
H -75.87687318 -44.43313052 -92.11066407     6    107    0    0    0
H -75.48099145 -45.24688705 -89.17532134     6    107    0    0    0
C -76.88733819 -48.50840330 -90.91071220     2    107   111   112   113
H -77.71745203 -49.25627323 -89.15469476     6    110    0    0    0
H -78.13080290 -49.02761996 -92.36926348     6    110    0    0    0
C -74.30539352 -49.64622504 -91.52807211     2    110   114   115   116
H -73.60404830 -48.80543364 -93.19004067     6    113    0    0    0
H -72.91505916 -49.01875477 -90.08193262     6    113    0    0    0
C -74.28741559 -52.54157173 -92.03503246     2    113   117   118   119
H -74.89702144 -53.25674168 -90.06918145     6    116    0    0    0
H -75.98274232 -52.69079723 -93.19133302     6    116    0    0    0
C -71.63872008 -53.55394502 -93.18658376     2    116   120   121   122
H -71.27916696 -52.57108274 -94.92922671     6    119    0    0    0
H -70.06525801 -52.87367637 -92.10629423     6    119    0    0    0
C -71.41570768 -56.42951967 -93.56398173     1    119   123   124   125
H -71.70968487 -56.91223599 -95.62289016     6    122    0    0    0
H -72.56421160 -57.59929828 -92.24879163     6    122    0    0    0
H -69.53250922 -57.06587387 -93.05587187     6    122    0    0    0
H -105.43855807 -40.26933007 -80.38400297     6     127    0    0    0 
C -106.87155723 -40.43862734 -78.83370229     1     126    128    129    130
H -106.47948422 -38.63853710 -78.06861271     6     127    0    0    0
H -108.85384196 -40.45772395 -79.43924929     6     127    0    0    0
C -106.16604729 -42.58194287 -76.98474572     2     127    131    132    133
H -106.56381456 -44.60331284 -77.51418046     6     130    0    0    0
H -104.11076075 -42.27785152 -76.44920674     6     130    0    0    0
C -107.41691923 -42.64889587 -74.45339405     2     130    134   135   136
H -107.80951021 -40.57509622 -74.01802997     6     133    0    0    0
H -109.08972585 -43.58408830 -74.51160864     6     133    0    0    0
C -105.94622518 -43.69418125 -72.23168493     2     133   137   138   139
H -105.52959110 -45.75253433 -72.52726194     6    136    0    0    0
H -104.17870013 -42.68621594 -72.11523593     6    136    0    0    0
C -107.41163256 -43.51068475 -69.77146280     2    136   140   141   142
H -108.55707570 -41.76796831 -69.88025731     6    139    0    0    0
H -108.72433136 -45.06684932 -69.66497762     6    139    0    0    0
C -105.76683345 -43.95210288 -67.51715182     2    139   143   144   145
H -105.06203785 -45.92302749 -67.36496422     6    142    0    0    0
H -104.14393400 -42.72897732 -67.80126413     6    142    0    0    0
C -107.17247288 -43.43475427 -65.09580680     2    142   146   147   148
H -107.75402487 -41.46605511 -64.98626933     6    145    0    0    0
H -108.96169976 -44.38028281 -64.96982965     6    145    0    0    0
C -105.61798785 -43.92290667 -62.78914774     2    145   149   150   151
H -104.92187279 -45.86822778 -62.67242232     6    148    0    0    0
H -103.97385903 -42.83173003 -63.02403725     6    148    0    0    0
C -107.04153366 -43.41701543 -60.39071069     2    148   152   153   154
H -107.67693445 -41.50103750 -60.53927379     6    151    0    0    0
H -108.76717928 -44.49369306 -60.51383374     6    151    0    0    0
C -105.55984660 -43.98744928 -57.96861823     2    151   155   156   157
H -106.71915625 -43.32937547 -56.52223240     6    154    0    0    0
H -105.26691610 -45.99196985 -57.19081484     6    154    0    0    0
C -103.22269125 -42.35983502 -57.52336029     2    154   158   159   160
H -101.76726677 -42.83289918 -59.02160045     6    157    0    0    0
H -103.81448957 -40.34290944 -57.74349621     6    157    0    0    0
C -101.75092480 -42.50107315 -54.93897969     1    157   161   162   163
H -102.97169242 -42.07691812 -53.33243479     6    160    0    0    0
H -100.30899365 -41.01386270 -54.86416127     6    160    0    0    0
H -100.84973978 -44.36475742 -54.59199564     6    160    0    0    0
H -108.66935207 -63.77544892 -91.59294414     6     165    0    0    0 
C -108.34529307 -62.36680579 -90.09746719     1     164    166    167    168
H -109.49987811 -63.09524953 -88.38985407     6     165    0    0    0
H -106.26763494 -62.42386209 -89.69674965     6     165    0    0    0
C -109.19111601 -59.65009909 -90.82347919     2     165    169    170    171
H -108.57245970 -58.77344321 -92.59184997     6     168    0    0    0
H -111.14172476 -59.64931121 -90.94432187     6     168    0    0    0
C -108.68097990 -57.81072784 -88.71913447     2     168    172   173   174
H -109.73694238 -58.64525480 -87.13272083     6     171    0    0    0
H -106.63820801 -57.51449817 -88.31262394     6     171    0    0    0
C -109.65965180 -55.13621350 -89.31726685     2     171   175   176   177
H -108.52111499 -54.15873445 -90.78317855     6    174    0    0    0
H -111.57970377 -55.19639135 -90.03211230     6    174    0    0    0
C -109.63226945 -53.42460255 -87.08498643     2    174   178   179   180
H -111.03722710 -53.94984218 -85.66634000     6    177    0    0    0
H -107.90682370 -53.66567096 -86.09095679     6    177    0    0    0
C -109.88495464 -50.42856643 -87.67397328     2    177   181   182   183
H -108.03842919 -49.45359637 -88.15623171     6    180    0    0    0
H -110.83147878 -50.37350429 -89.43815402     6    180    0    0    0
C -111.37617826 -49.31035907 -85.52645430     2    180   184   185   186
H -113.21569688 -50.30864334 -85.01980012     6    183    0    0    0
H -110.18280919 -49.42516746 -83.85806600     6    183    0    0    0
C -111.83080434 -46.49344488 -85.88313381     2    183   187   188   189
H -109.95456978 -45.71121412 -86.10457735     6    186    0    0    0
H -112.54904841 -46.17550950 -87.81769652     6    186    0    0    0
C -113.19754085 -45.31343378 -83.64217901     2    186   190   191   192
H -115.09370380 -46.01242971 -83.45428343     6    189    0    0    0
H -112.04583642 -45.84449075 -82.02249989     6    189    0    0    0
C -113.63535395 -42.49701865 -83.58396982     2    189   193   194   195
H -111.94099230 -41.59311399 -84.30871374     6    192    0    0    0
H -115.25834097 -42.12522797 -84.82243666     6    192    0    0    0
C -114.31535446 -41.72319381 -80.90376443     2    192   196   197   198
H -113.42956402 -42.85542589 -79.50040506     6    195    0    0    0
H -113.46508737 -39.81487798 -80.69373657     6    195    0    0    0
C -117.03719950 -42.10177451 -79.98175219     1    195   199   200   201
H -117.18160998 -40.84656169 -78.30622100     6    198    0    0    0
H -117.28023754 -44.14335183 -79.45439569     6    198    0    0    0
H -118.33764368 -41.72141006 -81.53139248     6    198    0    0    0
H -105.53705303 -63.43983951 -77.87531085     6     203    0    0    0 
C -104.61775583 -62.57294903 -79.52748748     1     202    204    205    206
H -105.52945907 -60.64933393 -79.86759865     6     203    0    0    0
H -102.56418390 -62.37699360 -79.10991891     6     203    0    0    0
C -104.96434781 -64.33842567 -81.72664111     2     203    207    208    209
H -106.61906945 -63.89295172 -82.71480403     6     206    0    0    0
H -103.59737642 -63.85490749 -83.08325047     6     206    0    0    0
C -104.63885450 -67.21074455 -81.23001949     2     206    210   211   212
H -104.48165467 -68.19896856 -82.98756832     6     209    0    0    0
H -102.98989582 -67.31165683 -80.05716490     6     209    0    0    0
C -106.81998002 -68.50483138 -79.85809841     2     209   213   214   215
H -107.21054036 -67.78485706 -78.13276074     6    212    0    0    0
H -108.51657630 -68.04684979 -81.02899964     6    212    0    0    0
C -106.73690731 -71.44141874 -79.83959790     2    212   216   217   218
H -107.40947477 -72.09672941 -81.71606435     6    215    0    0    0
H -104.72273160 -71.99314247 -79.63653895     6    215    0    0    0
C -108.51339630 -72.75676354 -77.84415460     2    215   219   220   221
H -108.05809232 -72.06078957 -75.97680416     6    218    0    0    0
H -110.41245799 -72.03357238 -78.29775843     6    218    0    0    0
C -108.66638120 -75.66495111 -77.98904983     2    218   222   223   224
H -109.64168068 -76.18123805 -79.69221092     6    221    0    0    0
H -106.91497579 -76.51623767 -78.24941466     6    221    0    0    0
C -109.70797981 -76.81262351 -75.73117310     2    221   225   226   227
H -108.73829198 -76.01388960 -73.98150587     6    224    0    0    0
H -111.70703271 -76.34592771 -75.70715069     6    224    0    0    0
C -110.12401606 -79.71852860 -76.00179469     2    224   228   229   230
H -111.17206374 -80.08627171 -77.66117832     6    227    0    0    0
H -108.29265719 -80.38915388 -76.34409331     6    227    0    0    0
C -111.46511854 -80.79788902 -73.66819972     2    227   231   232   233
H -110.13708862 -80.85849967 -72.09569899     6    230    0    0    0
H -112.91554646 -79.33760676 -73.32123844     6    230    0    0    0
C -112.42389917 -83.39341205 -73.94546753     2    230   234   235   236
H -113.47599722 -83.74241091 -75.61664640     6    233    0    0    0
H -110.87491340 -84.68623921 -74.05910382     6    233    0    0    0
C -114.07799098 -83.89239889 -71.56756366     1    233   237   238   239
H -114.71254626 -85.75018138 -71.83201734     6    236    0    0    0
H -115.70790297 -82.79843137 -71.46250419     6    236    0    0    0
H -112.99372925 -84.06221792 -69.86215471     6    236    0    0    0
H -83.46084509 -70.98519535 -81.68637018     6     241    0    0    0 
C -81.91992246 -69.76070676 -81.20494578     1     240    242    243    244
H -81.58351741 -68.48422985 -82.72999923     6     241    0    0    0
H -82.35047618 -68.91172247 -79.32471008     6     241    0    0    0
C -79.56472486 -71.38883098 -81.15540445     2     241    245    246    247
H -80.07564460 -72.95787764 -79.95177352     6     244    0    0    0
H -79.24079445 -72.31964032 -82.97171971     6     244    0    0    0
C -77.36671270 -69.76349118 -80.18348719     2     244    248   249   250
H -77.47212825 -67.91368980 -81.07213622     6     247    0    0    0
H -77.60514177 -69.49361189 -78.15929964     6     247    0    0    0
C -74.73706698 -70.92580199 -80.55963314     2     247   251   252   253
H -74.29229643 -71.30206994 -82.43835827     6    250    0    0    0
H -73.31225442 -69.57282588 -80.02538872     6    250    0    0    0
C -74.44579399 -73.19869270 -78.73226720     2    250   254   255   256
H -74.98907727 -72.96939898 -76.92328694     6    253    0    0    0
H -75.85370839 -74.67527225 -79.24468670     6    253    0    0    0
C -71.87239675 -74.41615167 -78.94073399     2    253   257   258   259
H -71.50528458 -74.93288594 -80.96673980     6    256    0    0    0
H -70.48996179 -73.04393813 -78.64839239     6    256    0    0    0
C -71.32375046 -76.61837439 -77.16175613     2    256   260   261   262
H -71.75890405 -76.08154481 -75.29129168     6    259    0    0    0
H -72.51972963 -78.16930166 -77.57754658     6    259    0    0    0
C -68.64244082 -77.54250418 -77.59749723     2    259   263   264   265
H -68.88132615 -78.35085536 -79.55358345     6    262    0    0    0
H -67.27125881 -76.02234281 -77.42202301     6    262    0    0    0
C -67.91271939 -79.53415534 -75.52981189     2    262   266   267   268
H -67.98384686 -78.38460728 -73.81541513     6    265    0    0    0
H -69.13024157 -81.01153704 -75.29843555     6    265    0    0    0
C -65.31768259 -80.55305929 -76.02244464     2    265   269   270   271
H -65.31786137 -81.61962894 -77.93615044     6    268    0    0    0
H -63.93832346 -79.02267516 -76.04174909     6    268    0    0    0
C -64.29865674 -82.67029954 -74.41585722     2    268   272   273   274
H -63.54522242 -81.76583708 -72.70376481     6    271    0    0    0
H -65.69163444 -83.91317485 -74.04900012     6    271    0    0    0
C -61.81114426 -83.74461211 -75.75585794     1    271   275   276   277
H -62.20836428 -84.32498902 -77.62165437     6    274    0    0    0
H -61.03298986 -85.39867951 -74.77710344     6    274    0    0    0
H -60.38419368 -82.31038850 -75.91503073     6    274    0    0    0
H -100.94225050 -62.68547989 -90.92198955     6     279    0    0    0 
C -99.47789418 -64.08187062 -90.23063526     1     278    280    281    282
H -100.33669711 -65.96626693 -90.17730805     6     279    0    0    0
H -97.91236132 -64.22431640 -91.55996810     6     279    0    0    0
C -98.49007723 -63.40528188 -87.62229074     2     279    283    284    285
H -97.58683526 -61.53218287 -87.62966484     6     282    0    0    0
H -100.10895549 -63.37220615 -86.28150318     6     282    0    0    0
C -96.81047385 -65.58437447 -86.56730360     2     282    286   287   288
H -97.82434268 -67.28218779 -86.62263367     6     285    0    0    0
H -95.33212356 -66.16637732 -87.70912776     6     285    0    0    0
C -95.91791738 -65.00964357 -83.85363106     2     285   289   290   291
H -95.04206616 -63.21792055 -84.09885037     6    288    0    0    0
H -97.44967365 -64.63679033 -82.41346837     6    288    0    0    0
C -93.94723837 -66.87210840 -82.87507790     2    288   292   293   294
H -92.76188760 -67.53854944 -84.40811549     6    291    0    0    0
H -92.65414919 -65.72954377 -81.78070575     6    291    0    0    0
C -95.20182676 -69.08972099 -81.50080574     2    291   295   296   297
H -96.02549997 -68.44269567 -79.86557198     6    294    0    0    0
H -96.54871651 -69.93838876 -82.80715527     6    294    0    0    0
C -93.38828543 -71.14912227 -80.71021406     2    294   298   299   300
H -92.28022178 -71.92381806 -82.32653339     6    297    0    0    0
H -92.13780725 -70.22695113 -79.39529517     6    297    0    0    0
C -94.67972913 -73.25220589 -79.25193844     2    297   301   302   303
H -95.90795687 -72.45392758 -77.85343102     6    300    0    0    0
H -96.07583612 -74.32733292 -80.47922226     6    300    0    0    0
C -92.89612801 -75.07312323 -77.91382665     2    300   304   305   306
H -91.28851938 -75.61143200 -79.18382451     6    303    0    0    0
H -92.04684045 -74.31336063 -76.25355061     6    303    0    0    0
C -94.10415630 -77.47563787 -77.08988227     2    303   307   308   309
H -95.57610824 -76.90641300 -75.77548621     6    306    0    0    0
H -95.06790588 -78.47295017 -78.56076769     6    306    0    0    0
C -92.11002574 -79.35022033 -75.83120781     2    306   310   311   312
H -90.29133583 -79.56610448 -76.84840763     6    309    0    0    0
H -91.53438830 -78.41641356 -74.07160481     6    309    0    0    0
C -92.91567688 -82.10902786 -74.98723570     1    309   313   314   315
H -91.38120671 -83.50848913 -74.77718703     6    312    0    0    0
H -94.45979295 -82.84485247 -76.17902107     6    312    0    0    0
H -93.75286106 -82.21825279 -73.11798662     6    312    0    0    0
H -100.77708717 -37.30848579 -77.74050935     6     317    0    0    0 
C -99.04753391 -38.34190328 -78.17592350     1     316    318    319    320
H -99.66254914 -40.08781875 -79.23108425     6     317    0    0    0
H -97.84680178 -37.24604807 -79.51299082     6     317    0    0    0
C -97.75215253 -38.69871572 -75.73282654     2     317    321    322    323
H -96.16870287 -39.80941638 -76.14198166     6     320    0    0    0
H -97.33240447 -36.62784739 -75.34551962     6     320    0    0    0
C -99.24185435 -40.00846037 -73.54642353     2     320    324   325   326
H -100.51869042 -38.77659488 -72.63755923     6     323    0    0    0
H -100.37117521 -41.66477863 -74.24264342     6     323    0    0    0
C -97.58139026 -40.99906614 -71.30689844     2     323   327   328   329
H -96.20542990 -42.18659997 -72.04388477     6    326    0    0    0
H -96.66164949 -39.35681301 -70.49493517     6    326    0    0    0
C -99.04581990 -42.31287947 -69.33183712     2    326   330   331   332
H -99.83550770 -40.64138036 -68.28838110     6    329    0    0    0
H -100.44572960 -43.69877685 -69.96444188     6    329    0    0    0
C -97.35846218 -43.80986164 -67.52288399     2    329   333   334   335
H -96.36497249 -45.20617675 -68.57854727     6    332    0    0    0
H -96.05044589 -42.20893697 -67.03930296     6    332    0    0    0
C -98.70183248 -44.90067479 -65.19109268     2    332   336   337   338
H -100.30186502 -43.57649933 -64.56800516     6    335    0    0    0
H -99.54619270 -46.75620531 -65.63125979     6    335    0    0    0
C -96.69151212 -45.55364310 -63.00119727     2    335   339   340   341
H -95.87547778 -47.26358869 -63.85879819     6    338    0    0    0
H -95.25456710 -44.04780823 -62.92836089     6    338    0    0    0
C -97.82892412 -45.86492479 -60.34465765     2    338   342   343   344
H -98.35362268 -44.00354466 -59.81999954     6    341    0    0    0
H -99.42584670 -47.01124736 -60.47109134     6    341    0    0    0
C -96.19237574 -47.09104546 -58.36512962     2    341   345   346   347
H -97.41213675 -47.24138613 -56.84659177     6    344    0    0    0
H -95.60550327 -48.89314898 -58.87103741     6    344    0    0    0
C -94.16696916 -45.30886091 -57.38847024     2    344   348   349   350
H -92.52526443 -45.62568717 -58.46023526     6    347    0    0    0
H -94.82766165 -43.34658213 -57.53971116     6    347    0    0    0
C -93.70796382 -45.81224114 -54.52246702     1    347   351   352   353
H -95.37852110 -45.09749494 -53.54011593     6    350    0    0    0
H -91.99585101 -44.93198803 -53.88958623     6    350    0    0    0
H -93.33621910 -47.91044927 -54.08528332     6    350    0    0    0
H -83.85134778 -68.47033958 -87.05154905     6     355    0    0    0 
C -85.60007473 -68.46572530 -88.12270578     1     354    356    357    358
H -85.19616734 -67.70545545 -89.88978222     6     355    0    0    0
H -86.31520045 -70.31641749 -88.61253922     6     355    0    0    0
C -87.63674102 -66.74440519 -86.75820345     2     355    359    360    361
H -89.41978574 -67.18454677 -87.52321117     6     358    0    0    0
H -87.96008402 -67.63272970 -84.89349685     6     358    0    0    0
C -87.05393412 -63.88029692 -86.53123119     2     358    362   363   364
H -85.45355887 -63.74262994 -85.33136036     6     361    0    0    0
H -86.51345182 -63.28516517 -88.49998308     6     361    0    0    0
C -89.27062734 -62.35545658 -85.50691059     2     361   365   366   367
H -90.79128580 -62.89446760 -86.76313943     6    364    0    0    0
H -89.91937330 -63.25968704 -83.76534955     6    364    0    0    0
C -88.87884002 -59.50287445 -85.76918424     2    364   368   369   370
H -87.09817166 -59.03573843 -84.89232449     6    367    0    0    0
H -88.94018281 -58.73972509 -87.63890354     6    367    0    0    0
C -91.15036109 -58.37972980 -84.39669384     2    367   371   372   373
H -92.96017848 -59.27011800 -85.21568222     6    370    0    0    0
H -91.14950772 -59.13193314 -82.38269082     6    370    0    0    0
C -91.11245765 -55.50574168 -84.33905881     2    370   374   375   376
H -89.50370042 -54.90365141 -83.18199618     6    373    0    0    0
H -90.79772927 -54.94934968 -86.24382084     6    373    0    0    0
C -93.65360687 -54.28558831 -83.50195617     2    373   377   378   379
H -95.36325319 -54.96501450 -84.62015457     6    376    0    0    0
H -94.31331834 -54.82736118 -81.68599382     6    376    0    0    0
C -93.35123045 -51.18981625 -83.59163720     2    376   380   381   382
H -92.01618060 -50.80000382 -82.21502711     6    379    0    0    0
H -92.87339351 -50.57261364 -85.48384047     6    379    0    0    0
C -95.75684476 -49.86796034 -82.64314304     2    379   383   384   385
H -97.52252679 -50.79643548 -83.30758643     6    382    0    0    0
H -95.76190338 -50.28196080 -80.59808997     6    382    0    0    0
C -96.06460874 -47.02712533 -83.22523262     2    382   386   387   388
H -97.32529712 -46.30260032 -81.93140115     6    385    0    0    0
H -94.25389715 -45.97841948 -82.84603222     6    385    0    0    0
C -96.97890684 -46.47458194 -85.90477806     1    385   389   390   391
H -98.97753286 -47.02780496 -86.22686382     6    388    0    0    0
H -95.91672634 -47.60896727 -87.29272104     6    388    0    0    0
H -96.79996827 -44.38541113 -86.54903733     6    388    0    0    0
H -94.82979358 -52.47395916 -36.39277015     6     393    0    0    0 
C -93.58156747 -50.93561741 -36.77806841     1     392    394    395    396
H -94.53746210 -49.15442317 -37.31117544     6     393    0    0    0
H -92.57193858 -50.55179079 -35.07107849     6     393    0    0    0
C -91.58821109 -51.29015128 -38.91505630     2     393    397    398    399
H -92.41439841 -52.15423549 -40.52779329     6     396    0    0    0
H -90.92149394 -49.36699466 -39.48628132     6     396    0    0    0
C -89.22966711 -52.77911352 -38.24114612     2     396    400   401   402
H -88.31828285 -51.77691083 -36.69736174     6     399    0    0    0
H -89.71743899 -54.60073700 -37.63952174     6     399    0    0    0
C -87.33350114 -53.07540940 -40.35808127     2     399   403   404   405
H -88.30194788 -53.75190378 -42.18138453     6    402    0    0    0
H -86.76424541 -51.19463277 -40.85154666     6    402    0    0    0
C -85.00413913 -54.59492673 -39.63728783     2    402   406   407   408
H -84.14781127 -53.81852282 -38.00099370     6    405    0    0    0
H -85.89766224 -56.34543904 -39.08142616     6    405    0    0    0
C -82.87734996 -54.95707464 -41.49448997     2    405   409   410   411
H -83.79933919 -55.13371425 -43.29533561     6    408    0    0    0
H -81.69417505 -53.35484297 -41.70933272     6    408    0    0    0
C -81.42101996 -57.58096437 -40.90550829     2    408   412   413   414
H -80.41823132 -57.30986455 -39.22657938     6    411    0    0    0
H -82.86316037 -58.92673747 -40.42386869     6    411    0    0    0
C -79.70710263 -58.32271339 -43.17678050     2    411   415   416   417
H -80.55823782 -57.81425622 -44.94290494     6    414    0    0    0
H -77.89288362 -57.29125788 -42.80119499     6    414    0    0    0
C -79.15852610 -61.19603238 -43.21705509     2    414   418   419   420
H -78.58099790 -62.17142313 -41.40284421     6    417    0    0    0
H -80.87100834 -62.22133068 -43.73930984     6    417    0    0    0
C -76.87618834 -61.80494262 -44.85458044     2    417   421   422   423
H -77.17784275 -61.06578664 -46.78681744     6    420    0    0    0
H -75.38938481 -60.59401388 -44.16807250     6    420    0    0    0
C -76.22082623 -64.57923585 -45.03111644     2    420   424   425   426
H -74.47205141 -64.71970541 -46.02530023     6    423    0    0    0
H -75.80367482 -65.39904841 -43.13410595     6    423    0    0    0
C -78.04131008 -66.22236852 -46.64593222     1    423   427   428   429
H -77.19841633 -68.05497521 -46.58041524     6    426    0    0    0
H -77.93892930 -65.90818366 -48.66926690     6    426    0    0    0
H -80.00163893 -66.35671029 -45.92741860     6    426    0    0    0
H -64.02110336 -55.16643030 -58.12571620     6     431    0    0    0 
C -64.65570411 -53.24298146 -57.92125133     1     430    432    433    434
H -63.00043911 -52.17456842 -57.05981518     6     431    0    0    0
H -64.73215820 -52.42651637 -59.82436549     6     431    0    0    0
C -66.97573442 -53.20005273 -56.29611536     2     431    435    436    437
H -68.51170113 -54.53022679 -56.72418011     6     434    0    0    0
H -66.44739648 -53.89431317 -54.51865474     6     434    0    0    0
C -68.15850397 -50.49735528 -56.12174943     2     434    438   439   440
H -66.75251364 -49.31682330 -55.27941776     6     437    0    0    0
H -68.79392721 -49.59315261 -57.85390032     6     437    0    0    0
C -70.34889523 -50.53392665 -54.24148684     2     437   441   442   443
H -71.49350902 -48.92259535 -54.40540549     6    440    0    0    0
H -71.59853593 -52.13771055 -54.50426204     6    440    0    0    0
C -69.48657082 -50.52300374 -51.54462755     2    440   444   445   446
H -68.18067437 -52.14499924 -51.01937473     6    443    0    0    0
H -68.35313544 -48.88299473 -51.22970969     6    443    0    0    0
C -71.61140945 -50.71865147 -49.62669060     2    443   447   448   449
H -72.84890507 -49.15635868 -50.01873838     6    446    0    0    0
H -72.78536208 -52.37492440 -50.11228538     6    446    0    0    0
C -70.94875300 -50.71496650 -46.91727569     2    446   450   451   452
H -69.32671398 -52.01708582 -46.75786401     6    449    0    0    0
H -70.29293899 -48.80076366 -46.38086651     6    449    0    0    0
C -73.17196253 -51.21449417 -45.26417645     2    449   453   454   455
H -74.71124672 -49.95454103 -45.66327656     6    452    0    0    0
H -73.86711195 -52.94770739 -45.98397914     6    452    0    0    0
C -72.86094234 -51.33651030 -42.35254178     2    452   456   457   458
H -71.14919205 -52.33929062 -41.93774882     6    455    0    0    0
H -72.34236431 -49.41464737 -41.77593417     6    455    0    0    0
C -75.20097882 -52.08933730 -40.97844291     2    455   459   460   461
H -76.85059405 -51.09392803 -41.40341710     6    458    0    0    0
H -75.71639690 -54.00070617 -41.64829374     6    458    0    0    0
C -74.71131065 -52.37213017 -38.20259649     2    458   462   463   464
H -73.40696798 -53.89743235 -38.01951715     6    461    0    0    0
H -73.87059751 -50.72111897 -37.49851939     6    461    0    0    0
C -77.30065804 -52.95723798 -36.84337180     1    461   465   466   467
H -77.84974666 -54.80771139 -37.27246315     6    464    0    0    0
H -78.80068127 -51.67275427 -37.47267129     6    464    0    0    0
H -77.12805804 -52.64749376 -34.81270290     6    464    0    0    0
H -92.12581450 -34.91090042 -84.47292374     6     469    0    0    0 
C -93.44460729 -36.30165070 -83.62951090     1     468    470    471    472
H -92.81435088 -36.23387460 -81.73770349     6     469    0    0    0
H -95.22015594 -35.29149151 -83.79941194     6     469    0    0    0
C -93.17153779 -39.01163491 -84.52376492     2     469    473    474    475
H -93.68689326 -40.37575823 -83.07826385     6     472    0    0    0
H -94.14696030 -39.19457974 -86.35157417     6     472    0    0    0
C -90.52415098 -39.69445255 -85.14696104     2     472    476   477   478
H -89.65540754 -38.42120901 -86.46761672     6     475    0    0    0
H -89.48226910 -39.39175066 -83.33155657     6     475    0    0    0
C -90.45828369 -42.58100681 -85.90679478     2     475   479   480   481
H -91.43323547 -43.81336251 -84.41914552     6    478    0    0    0
H -91.42199488 -42.85361463 -87.68760310     6    478    0    0    0
C -87.83411726 -43.75146138 -86.02807080     2    478   482   483   484
H -87.02647564 -43.18933427 -87.76267305     6    481    0    0    0
H -86.71470661 -42.94973401 -84.47908707     6    481    0    0    0
C -87.79823008 -46.63780911 -85.81287095     2    481   485   486   487
H -88.12450702 -47.02824036 -83.88774764     6    484    0    0    0
H -89.37978465 -47.34100323 -86.93204535     6    484    0    0    0
C -85.38178029 -47.78854357 -87.09230524     2    484   488   489   490
H -85.39288709 -47.01395618 -89.05319771     6    487    0    0    0
H -83.77980510 -46.94699445 -86.19542584     6    487    0    0    0
C -85.38590468 -50.66656589 -87.13111332     2    487   491   492   493
H -85.63086909 -51.18637366 -85.08185174     6    490    0    0    0
H -86.92249119 -51.68612897 -88.15661061     6    490    0    0    0
C -82.87184491 -51.65299705 -88.16297412     2    490   494   495   496
H -82.36723630 -50.83381337 -89.96172150     6    493    0    0    0
H -81.39618103 -50.97316298 -86.92474552     6    493    0    0    0
C -82.82670994 -54.57204443 -88.43490246     2    493   497   498   499
H -82.97822472 -55.40506356 -86.50964347     6    496    0    0    0
H -84.46327872 -55.30359780 -89.55336038     6    496    0    0    0
C -80.28548660 -55.49687363 -89.58317272     2    496   500   501   502
H -79.96975821 -54.63676759 -91.43440108     6    499    0    0    0
H -78.65949425 -55.00133873 -88.50393966     6    499    0    0    0
C -80.33134831 -58.36257450 -89.88837004     1    499   503   504   505
H -78.48256214 -59.23587490 -90.14102417     6    502    0    0    0
H -81.63797182 -58.97218459 -91.46323474     6    502    0    0    0
H -80.93476951 -59.13557857 -88.12656747     6    502    0    0    0
H -66.20607330 -61.60069761 -68.01866942     6     507    0    0    0 
C -67.71645178 -60.62787708 -67.03913969     1     506    508    509    510
H -68.03243078 -58.75433233 -67.64475252     6     507    0    0    0
H -69.52602352 -61.68869185 -67.19512734     6     507    0    0    0
C -66.87258416 -60.78854772 -64.27344733     2     507    511    512    513
H -66.21543450 -62.74467947 -63.92162538     6     510    0    0    0
H -65.30546252 -59.49841915 -63.86703829     6     510    0    0    0
C -69.09091801 -60.23464819 -62.43262273     2     510    514   515   516
H -69.62434382 -58.31548650 -62.52669452     6     513    0    0    0
H -70.75211797 -61.37644083 -62.81686663     6     513    0    0    0
C -68.33919363 -60.92432184 -59.69830459     2     513   517   518   519
H -68.27676546 -62.94280606 -59.91065879     6    516    0    0    0
H -66.52119616 -60.14053820 -59.16395659     6    516    0    0    0
C -70.37975974 -60.35683234 -57.77203633     2    516   520   521   522
H -70.61180634 -58.33434934 -57.60671922     6    519    0    0    0
H -72.19245110 -61.00933118 -58.28146582     6    519    0    0    0
C -69.45179625 -61.36281142 -55.32005630     2    519   523   524   525
H -70.09234927 -63.34532175 -55.03465311     6    522    0    0    0
H -67.40129420 -61.45166396 -55.17331119     6    522    0    0    0
C -70.62351608 -60.04871767 -53.09275946     2    522   526   527   528
H -70.13034893 -58.00831216 -53.29308676     6    525    0    0    0
H -72.75185388 -60.25678540 -53.23185960     6    525    0    0    0
C -69.66039061 -61.16003880 -50.50175506     2    525   529   530   531
H -70.53212248 -62.94787328 -49.96549455     6    528    0    0    0
H -67.68520065 -61.35094979 -50.65336454     6    528    0    0    0
C -70.16516378 -59.25622762 -48.40514653     2    528   532   533   534
H -69.21516288 -57.50279641 -49.06424606     6    531    0    0    0
H -72.22138895 -58.80892550 -48.33138796     6    531    0    0    0
C -69.11655223 -59.91002443 -45.66430974     2    531   535   536   537
H -69.95261367 -61.66287054 -44.83755895     6    534    0    0    0
H -67.10343644 -60.24621981 -45.70370781     6    534    0    0    0
C -69.72429785 -57.88023307 -43.66417404     2    534   538   539   540
H -68.85479460 -56.19894965 -44.51033466     6    537    0    0    0
H -71.72606749 -57.73558254 -43.11666033     6    537    0    0    0
C -68.19746660 -58.24388033 -41.22093520     1    537   541   542   543
H -68.16515234 -56.68676970 -39.83418777     6    540    0    0    0
H -66.26246754 -58.58929769 -41.50382047     6    540    0    0    0
H -69.00488296 -59.81859615 -40.22738396     6    540    0    0    0
H -91.38687939 -53.37620066 -46.60548339     6     545    0    0    0 
C -93.08749695 -53.14327891 -47.59512957     1     544    546    547    548
H -92.57149984 -53.41070219 -49.56441243     6     545    0    0    0
H -94.39352106 -54.64210192 -47.11752302     6     545    0    0    0
C -94.36822684 -50.60510078 -47.19320362     2     545    549    550    551
H -94.64358732 -50.31286422 -45.16818851     6     548    0    0    0
H -93.13989768 -49.07264497 -47.84199685     6     548    0    0    0
C -96.77271264 -50.64577882 -48.89139389     2     548    552   553   554
H -96.12922687 -50.70423883 -50.69265331     6     551    0    0    0
H -97.80925527 -52.36843983 -48.42126770     6     551    0    0    0
C -98.37621559 -48.34392910 -48.50453686     2     551   555   556   557
H -98.20782874 -47.78254310 -46.42604100     6    554    0    0    0
H -97.51641497 -46.72526976 -49.68225390     6    554    0    0    0
C -101.16690941 -49.10842564 -48.90818471     2    554   558   559   560
H -101.13869742 -49.97867349 -50.80574833     6    557    0    0    0
H -101.66347712 -50.64352593 -47.67669144     6    557    0    0    0
C -102.78359212 -46.76964651 -48.86709621     2    557   561   562   563
H -102.72578359 -46.04222069 -46.93972904     6    560    0    0    0
H -101.99883021 -45.28204224 -50.17719236     6    560    0    0    0
C -105.53705218 -47.29985071 -49.42693721     2    560   564   565   566
H -105.50136517 -48.57425996 -50.93606328     6    563    0    0    0
H -106.52073910 -47.91548562 -47.80898812     6    563    0    0    0
C -106.96484930 -44.88054444 -50.30439099     2    563   567   568   569
H -106.78627694 -43.17793551 -48.99642817     6    566    0    0    0
H -106.33217598 -43.95641808 -52.07197048     6    566    0    0    0
C -109.87802365 -45.64610451 -50.39888828     2    566   570   571   572
H -110.01073079 -47.10471752 -51.82949325     6    569    0    0    0
H -110.19497882 -46.34131810 -48.54751777     6    569    0    0    0
C -111.50513388 -43.32788045 -51.11708500     2    569   573   574   575
H -111.83932392 -42.33179921 -49.42697438     6    572    0    0    0
H -110.39288453 -41.95373655 -52.27274747     6    572    0    0    0
C -113.90554796 -44.07792171 -52.46869487     2    572   576   577   578
H -114.38967580 -45.90695939 -51.81018640     6    575    0    0    0
H -115.59922899 -42.82120931 -52.00691419     6    575    0    0    0
C -113.63782492 -44.18919296 -55.33416968     1    575   579   580   581
H -113.71313726 -42.32216568 -56.00321234     6    578    0    0    0
H -115.20215974 -45.29706894 -55.84753203     6    578    0    0    0
H -111.93600553 -45.12592601 -55.96926228     6    578    0    0    0
H -99.48629945 -57.77316403 -85.46659051     6     583    0    0    0 
C -100.03377565 -57.85509781 -83.45451364     1     582    584    585    586
H -99.66029127 -59.66031002 -82.59519982     6     583    0    0    0
H -98.62573880 -56.76056043 -82.31666527     6     583    0    0    0
C -102.51257146 -56.69256356 -83.14665163     2     583    587    588    589
H -101.99953657 -54.88567291 -84.00958988     6     586    0    0    0
H -103.96752319 -57.52563938 -84.33259267     6     586    0    0    0
C -103.43605495 -56.03765530 -80.59671523     2     586    590   591   592
H -103.47439876 -57.47373020 -79.11264446     6     589    0    0    0
H -102.11126440 -54.72903264 -79.70926797     6     589    0    0    0
C -106.01414436 -54.49835051 -80.74535374     2     589   593   594   595
H -106.07793842 -53.00179248 -82.24857146     6    592    0    0    0
H -107.44769551 -55.92266436 -81.20497385     6    592    0    0    0
C -106.73146016 -53.46900288 -78.12687034     2    592   596   597   598
H -106.59313403 -54.87230550 -76.72852590     6    595    0    0    0
H -105.51148362 -51.94990023 -77.76311544     6    595    0    0    0
C -109.33275086 -52.17552547 -78.03927991     2    595   599   600   601
H -109.57655729 -50.86841600 -79.68898830     6    598    0    0    0
H -110.65620323 -53.69076544 -78.08433846     6    598    0    0    0
C -109.84461758 -50.44517601 -75.78403397     2    598   602   603   604
H -109.57323269 -51.66097803 -74.11733368     6    601    0    0    0
H -108.26803157 -49.01696372 -75.77977670     6    601    0    0    0
C -112.18889854 -48.85044775 -75.96048676     2    601   605   606   607
H -111.90216015 -47.51448072 -77.55351345     6    604    0    0    0
H -113.69270511 -50.13307313 -76.56746176     6    604    0    0    0
C -112.92318971 -47.58672116 -73.35010824     2    604   608   609   610
H -112.88016841 -49.10153545 -71.88872986     6    607    0    0    0
H -111.49038936 -46.28145557 -72.80021864     6    607    0    0    0
C -115.38552824 -46.13003486 -73.42182774     2    607   611   612   613
H -115.33513369 -45.04802792 -75.25401522     6    610    0    0    0
H -116.98385064 -47.34059194 -73.52639342     6    610    0    0    0
C -115.90827561 -44.67971180 -70.88601257     2    610   614   615   616
H -116.32749404 -45.97198851 -69.28473406     6    613    0    0    0
H -114.22103778 -43.46981965 -70.41041527     6    613    0    0    0
C -118.07234755 -42.99623122 -70.95142242     1    613   617   618   619
H -118.17822631 -41.86209045 -69.23103583     6    616    0    0    0
H -119.78263913 -44.08354380 -70.83913410     6    616    0    0    0
H -118.05336626 -41.84502688 -72.68848145     6    616    0    0    0
H -96.45242547 -78.50516134 -46.05872328     6     621    0    0    0 
C -95.16948900 -79.58039925 -47.23814423     1     620    622    623    624
H -93.47836940 -78.46050175 -47.65673413     6     621    0    0    0
H -94.52956929 -81.15212041 -46.25669822     6     621    0    0    0
C -96.73790831 -80.19380814 -49.67882335     2     621    625    626    627
H -97.43682924 -78.49904954 -50.70956718     6     624    0    0    0
H -95.41516719 -81.07342934 -50.90586717     6     624    0    0    0
C -99.00131599 -81.92211214 -49.20969486     2     624    628   629   630
H -98.19432284 -83.55827670 -48.14969432     6     627    0    0    0
H -100.34400261 -80.95961144 -47.97768756     6     627    0    0    0
C -100.17924416 -82.89076115 -51.63185736     2     627   631   632   633
H -101.05873940 -81.21138424 -52.57124681     6    630    0    0    0
H -98.93522429 -83.76341740 -52.92947468     6    630    0    0    0
C -102.07349860 -84.85707169 -51.02693213     2    630   634   635   636
H -101.14598851 -86.66096347 -50.28528557     6    633    0    0    0
H -103.34467666 -84.12203871 -49.51822531     6    633    0    0    0
C -103.53980038 -85.86992185 -53.18934249     2    633   637   638   639
H -104.07569978 -84.20816846 -54.31823453     6    636    0    0    0
H -102.14081787 -87.05063109 -54.28616877     6    636    0    0    0
C -105.80982641 -87.67986502 -52.79490380     2    636   640   641   642
H -105.11656632 -89.35326446 -51.73330168     6    639    0    0    0
H -107.11298264 -86.69940051 -51.46041793     6    639    0    0    0
C -107.27846244 -88.55366174 -55.10848831     2    639   643   644   645
H -108.22157198 -86.95887557 -55.94597257     6    642    0    0    0
H -105.90574582 -89.24605404 -56.53171199     6    642    0    0    0
C -109.25407867 -90.67701808 -54.57135422     2    642   646   647   648
H -108.69498616 -91.97272030 -53.10595787     6    645    0    0    0
H -110.88777741 -89.79273150 -53.68095311     6    645    0    0    0
C -110.02775966 -92.14385345 -56.88804939     2    645   649   650   651
H -110.59547106 -90.67279188 -58.29990994     6    648    0    0    0
H -108.55991624 -93.02747473 -57.95092134     6    648    0    0    0
C -112.07747400 -94.14870393 -56.31377407     2    648   652   653   654
H -111.36730156 -95.67945867 -55.08128184     6    651    0    0    0
H -113.53554525 -93.23698298 -55.08598614     6    651    0    0    0
C -113.31854951 -95.17056901 -58.64722873     1    651   655   656   657
H -112.26484141 -96.32669243 -60.00876500     6    654    0    0    0
H -114.12134062 -93.60106673 -59.72294018     6    654    0    0    0
H -114.76602269 -96.24223837 -57.87198945     6    654    0    0    0
H -100.79376847 -60.92078753 -71.24967172     6     659    0    0    0 
C -102.49446276 -60.81644199 -72.34848216     1     658    660    661    662
H -102.17976185 -61.60579598 -74.22025088     6     659    0    0    0
H -103.58114196 -62.14910314 -71.30072381     6     659    0    0    0
C -104.00251287 -58.34313343 -72.27125571     2     659    663    664    665
H -103.28951765 -56.89169352 -73.57554522     6     662    0    0    0
H -105.83279532 -58.89709357 -73.03059051     6     662    0    0    0
C -104.43079812 -57.02784796 -69.67630887     2     662    666   667   668
H -105.27445391 -58.43778885 -68.25198307     6     665    0    0    0
H -102.63533859 -56.43501518 -68.76585978     6     665    0    0    0
C -106.05726047 -54.70771707 -70.03019054     2     665   669   670   671
H -105.50915909 -53.36740352 -71.48690338     6    668    0    0    0
H -107.88084296 -55.32593407 -70.67796890     6    668    0    0    0
C -106.38039478 -53.09212997 -67.57094443     2    668   672   673   674
H -106.50128051 -54.52774448 -66.08741700     6    671    0    0    0
H -104.55953688 -51.91740529 -67.36709752     6    671    0    0    0
C -108.80570132 -51.30800233 -67.73022535     2    671   675   676   677
H -108.31307174 -49.65037651 -68.69824061     6    674    0    0    0
H -110.10621096 -52.43143963 -68.78312312     6    674    0    0    0
C -109.98506374 -50.91724358 -65.00745731     2    674   678   679   680
H -110.43885752 -52.80659721 -64.18188653     6    677    0    0    0
H -108.43715764 -50.12620839 -63.81099157     6    677    0    0    0
C -112.35678439 -49.12779608 -65.00612706     2    677   681   682   683
H -111.85986704 -47.28866799 -65.77938144     6    680    0    0    0
H -113.76245174 -50.01893439 -66.19866081     6    680    0    0    0
C -113.43262101 -48.38898534 -62.39452459     2    680   684   685   686
H -111.83242085 -47.64982856 -61.40105172     6    683    0    0    0
H -114.82046199 -46.85251106 -62.48306904     6    683    0    0    0
C -114.17532555 -50.69504198 -60.67023855     2    683   687   688   689
H -115.82473757 -51.72643901 -61.25428688     6    686    0    0    0
H -112.63872963 -52.09191532 -60.69574577     6    686    0    0    0
C -114.59609933 -50.15621261 -57.84776775     2    686   690   691   692
H -112.82057182 -49.38862697 -57.07636181     6    689    0    0    0
H -115.97555111 -48.61475806 -57.71856684     6    689    0    0    0
C -115.72520178 -52.44770409 -56.32244529     1    689   693   694   695
H -117.52227593 -53.15913715 -57.27587159     6    692    0    0    0
H -116.41104998 -51.72094040 -54.48940128     6    692    0    0    0
H -114.49631564 -54.10877099 -56.32250493     6    692    0    0    0
H -105.09331659 -43.25720363 -43.89370840     6     697    0    0    0 
C -106.58562343 -44.04044195 -42.69081457     1     696    698    699    700
H -107.34489505 -42.31103107 -41.57603948     6     697    0    0    0
H -108.22628702 -44.64826600 -43.82694730     6     697    0    0    0
C -105.21705193 -46.00313912 -41.10920496     2     697    701    702    703
H -106.48318950 -46.51109721 -39.44706836     6     700    0    0    0
H -105.20754068 -47.70977337 -42.36576190     6     700    0    0    0
C -102.75372309 -45.05621401 -40.03739440     2     700    704   705   706
H -103.05057078 -43.24075266 -39.12976624     6     703    0    0    0
H -102.12251692 -46.26533055 -38.55652126     6     703    0    0    0
C -100.43428228 -45.09011796 -41.97934491     2     703   707   708   709
H -99.91139590 -47.08487643 -42.46015384     6    706    0    0    0
H -100.55575599 -44.06920103 -43.65701762     6    706    0    0    0
C -98.14847454 -43.82750272 -40.44882851     2    706   710   711   712
H -98.46625516 -41.71774370 -40.23301399     6    709    0    0    0
H -98.03901799 -44.48745655 -38.44520426     6    709    0    0    0
C -95.69796582 -44.25825903 -41.94295300     2    709   713   714   715
H -95.65488329 -46.28688947 -42.32868311     6    712    0    0    0
H -96.05795214 -43.37190814 -43.84304719     6    712    0    0    0
C -93.31967632 -43.42272009 -40.59618552     2    712   716   717   718
H -93.57808580 -41.46682396 -40.31026022     6    715    0    0    0
H -93.49513003 -44.43348719 -38.74113554     6    715    0    0    0
C -90.89365545 -43.88071693 -41.96264146     2    715   719   720   721
H -90.73167358 -45.74165714 -42.77008934     6    718    0    0    0
H -90.96465485 -42.77393185 -43.75379202     6    718    0    0    0
C -88.54167967 -43.30975721 -40.39072274     2    718   722   723   724
H -88.91783182 -41.79667667 -39.18801303     6    721    0    0    0
H -88.21509554 -44.87720740 -39.08650841     6    721    0    0    0
C -86.15308396 -42.93492311 -42.04063978     2    721   725   726   727
H -85.45919386 -44.93375483 -42.05636959     6    724    0    0    0
H -86.43709527 -42.28470170 -43.90149404     6    724    0    0    0
C -84.15423169 -41.22961660 -40.65945865     2    724   728   729   730
H -84.14145814 -41.70141051 -38.75533241     6    727    0    0    0
H -82.22944612 -41.71058584 -41.23984895     6    727    0    0    0
C -84.35640892 -38.43667914 -41.03845297     1    727   731   732   733
H -83.45237984 -37.55136019 -39.36895799     6    730    0    0    0
H -86.40201314 -38.09503902 -41.34755690     6    730    0    0    0
H -83.24236974 -37.68857948 -42.67435742     6    730    0    0    0
H -91.42488979 -37.16188082 -66.66110443     6     735    0    0    0 
C -90.36789789 -35.44719070 -67.29142154     1     734    736    737    738
H -90.88706977 -34.01004546 -66.00575487     6     735    0    0    0
H -88.45216383 -35.96669874 -66.82704694     6     735    0    0    0
C -90.74400198 -34.56329765 -70.03222548     2     735    739    740    741
H -92.66699674 -34.04872386 -70.52913833     6     738    0    0    0
H -89.58490867 -32.94370800 -70.37473292     6     738    0    0    0
C -90.20678895 -36.92066744 -71.79641422     2     738    742   743   744
H -88.20719092 -37.37839355 -71.42061993     6     741    0    0    0
H -91.39022518 -38.51601751 -71.03247030     6     741    0    0    0
C -90.79865333 -36.61981372 -74.54951389     2     741   745   746   747
H -92.74754967 -36.26086625 -74.82492687     6    744    0    0    0
H -89.67640217 -35.07423168 -75.34642841     6    744    0    0    0
C -90.25252220 -38.99462543 -76.25418682     2    744   748   749   750
H -91.14078860 -40.54838345 -75.16101230     6    747    0    0    0
H -91.09588423 -39.09969384 -78.01591542     6    747    0    0    0
C -87.37590382 -39.65226608 -76.43345441     2    747   751   752   753
H -86.36561231 -38.16500368 -77.27079819     6    750    0    0    0
H -86.50988721 -39.73383025 -74.53955714     6    750    0    0    0
C -86.79324458 -42.01872285 -78.02133314     2    750   754   755   756
H -87.84359291 -43.59342862 -77.40141393     6    753    0    0    0
H -87.35735896 -41.80797772 -79.92188274     6    753    0    0    0
C -83.89220646 -42.57457518 -77.90480609     2    753   757   758   759
H -82.85175471 -40.93334678 -78.35852135     6    756    0    0    0
H -83.46334561 -43.17678080 -75.92979426     6    756    0    0    0
C -83.07198133 -44.86135636 -79.59099152     2    756   760   761   762
H -83.17117709 -46.63156104 -78.49320710     6    759    0    0    0
H -84.35819971 -45.14684306 -81.17016666     6    759    0    0    0
C -80.45377254 -44.55268198 -80.45809731     2    759   763   764   765
H -80.48049944 -42.97446063 -81.66781978     6    762    0    0    0
H -79.34688756 -44.03069644 -78.84737871     6    762    0    0    0
C -79.30211440 -46.84622412 -81.96585759     2    762   766   767   768
H -79.60362852 -48.44214339 -80.84351536     6    765    0    0    0
H -80.32256407 -46.97235426 -83.59815055     6    765    0    0    0
C -76.54886404 -46.51134738 -82.52730783     1    765   769   770   771
H -76.02442971 -45.86290352 -84.43342872     6    768    0    0    0
H -75.28395229 -48.00087821 -82.29467932     6    768    0    0    0
H -75.71189243 -45.08927229 -81.21095408     6    768    0    0    0
H -92.50008392 -81.57930161 -59.11998905     6     773    0    0    0 
C -91.96458907 -83.32502406 -57.99485737     1     772    774    775    776
H -93.51506969 -84.08777698 -56.95676819     6     773    0    0    0
H -91.38330847 -84.72655601 -59.27188228     6     773    0    0    0
C -89.65285768 -83.05590565 -56.26775916     2     773    777    778    779
H -89.19910689 -84.78154735 -55.32414972     6     776    0    0    0
H -88.05205115 -82.46522514 -57.54883881     6     776    0    0    0
C -89.80101214 -81.09054637 -54.20755293     2     776    780   781   782
H -89.66519346 -79.25788298 -55.04087293     6     779    0    0    0
H -91.50456484 -81.07234435 -53.03354379     6     779    0    0    0
C -87.36782300 -81.20203824 -52.46523845     2     779   783   784   785
H -86.98498688 -83.29966294 -51.98574012     6    782    0    0    0
H -85.87129800 -80.48809305 -53.60522465     6    782    0    0    0
C -87.44466227 -79.87709502 -49.84099389     2    782   786   787   788
H -88.43257880 -78.14444216 -49.88876822     6    785    0    0    0
H -88.71436669 -80.84656326 -48.61925970     6    785    0    0    0
C -84.90188922 -79.53315470 -48.65931446     2    785   789   790   791
H -84.20890805 -81.30828723 -48.16607183     6    788    0    0    0
H -83.64813186 -78.64296101 -50.04178731     6    788    0    0    0
C -85.16656572 -78.09986593 -46.07830398     2    788   792   793   794
H -86.53560065 -76.50066011 -46.35897639     6    791    0    0    0
H -85.97445802 -79.32518428 -44.60240699     6    791    0    0    0
C -82.61432760 -76.99164660 -45.01202423     2    791   795   796   797
H -81.73428635 -78.55761915 -44.04392182     6    794    0    0    0
H -81.38915337 -76.58500873 -46.53828992     6    794    0    0    0
C -83.16549894 -75.12041882 -42.99049657     2    794   798   799   800
H -84.08184405 -73.80758636 -44.18414264     6    797    0    0    0
H -84.37125243 -75.72092587 -41.45117034     6    797    0    0    0
C -80.81300159 -73.71704254 -42.15687248     2    797   801   802   803
H -79.43029009 -75.21472367 -41.57221172     6    800    0    0    0
H -79.70222739 -72.86810659 -43.69557294     6    800    0    0    0
C -81.52221326 -71.70923161 -40.20551944     2    800   804   805   806
H -82.80591193 -70.20927534 -40.80686959     6    803    0    0    0
H -82.49459479 -72.99876036 -38.88247900     6    803    0    0    0
C -79.10777831 -70.45067886 -39.18681259     1    803   807   808   809
H -77.63585082 -71.73983062 -38.56861120     6    806    0    0    0
H -79.64019502 -69.32422275 -37.57358697     6    806    0    0    0
H -78.19454755 -69.07530315 -40.52681605     6    806    0    0    0
H -98.10574983 -59.12274364 -74.86908015     6     811    0    0    0 
C -97.37702235 -59.63027653 -76.75960713     1     810    812    813    814
H -98.70400556 -59.07006403 -78.20787394     6     811    0    0    0
H -95.87977851 -58.35223022 -77.19174792     6     811    0    0    0
C -96.67991041 -62.57017800 -76.99082563     2     811    815    816    817
H -98.31101894 -63.72649515 -76.99817991     6     814    0    0    0
H -96.13418943 -62.90188702 -78.91923391     6     814    0    0    0
C -94.53583099 -63.18681393 -75.01919813     2     814    818   819   820
H -92.95201652 -61.84719778 -75.25125739     6     817    0    0    0
H -95.25415158 -62.60531181 -73.09856681     6     817    0    0    0
C -93.64410544 -65.77249271 -74.92502165     2     817   821   822   823
H -95.10553165 -67.05389580 -75.19729783     6    820    0    0    0
H -92.51689016 -66.20714102 -76.63776665     6    820    0    0    0
C -92.45877677 -66.54150886 -72.23891402     2    820   824   825   826
H -90.76098821 -65.49389616 -72.12113437     6    823    0    0    0
H -93.76635439 -66.15744555 -70.81889658     6    823    0    0    0
C -91.90005433 -69.35389672 -72.20100324     2    823   827   828   829
H -91.72496122 -69.98594071 -70.21587910     6    826    0    0    0
H -93.46622680 -70.39074061 -72.91687821     6    826    0    0    0
C -89.40004718 -70.26595280 -73.61251558     2    826   830   831   832
H -89.89716711 -70.37521075 -75.59536798     6    829    0    0    0
H -88.01176854 -68.66680614 -73.59825130     6    829    0    0    0
C -88.17196874 -72.64460034 -72.62769488     2    829   833   834   835
H -87.11957217 -72.43016477 -70.76759460     6    832    0    0    0
H -89.63238303 -74.08210488 -72.11271319     6    832    0    0    0
C -86.42128613 -73.95322242 -74.60371741     2    832   836   837   838
H -87.44696009 -74.30854351 -76.32755581     6    835    0    0    0
H -84.76422813 -72.66585212 -75.04192715     6    835    0    0    0
C -85.39975672 -76.36288793 -73.54754640     2    835   839   840   841
H -84.88755602 -76.22325269 -71.63199896     6    838    0    0    0
H -86.96002593 -77.73416881 -73.71073778     6    838    0    0    0
C -83.14444497 -77.07916119 -75.15882401     2    838   842   843   844
H -83.38582663 -77.05589640 -77.31524620     6    841    0    0    0
H -81.65037851 -75.73406381 -74.88292373     6    841    0    0    0
C -81.64195661 -79.40769424 -74.31715403     1    841   845   846   847
H -81.15002843 -79.08568167 -72.32695881     6    844    0    0    0
H -80.06247845 -79.76740723 -75.57318566     6    844    0    0    0
H -82.78896112 -81.11242495 -74.61033153     6    844    0    0    0
H -118.16480969 -39.95482724 -56.37007809     6     849    0    0    0 
C -120.25827263 -39.91593832 -56.09550444     1     848    850    851    852
H -120.88774217 -39.39554158 -54.24290586     6     849    0    0    0
H -121.11029881 -38.39466538 -57.28448705     6     849    0    0    0
C -121.13486101 -42.44567068 -57.01188641     2     849    853    854    855
H -120.18839439 -43.90019116 -55.74277070     6     852    0    0    0
H -123.19914615 -42.80398131 -56.80101644     6     852    0    0    0
C -120.20990879 -42.99817420 -59.79853227     2     852    856   857   858
H -121.09470159 -41.38411131 -60.91361552     6     855    0    0    0
H -118.25718650 -42.69950580 -60.16598611     6     855    0    0    0
C -120.77470853 -45.58593985 -60.67574642     2     855   859   860   861
H -119.63461009 -47.07992310 -59.74113002     6    858    0    0    0
H -122.81753407 -46.05821607 -60.02536926     6    858    0    0    0
C -120.29388407 -45.88774323 -63.62503546     2    858   862   863   864
H -121.29641420 -44.40750387 -64.55998994     6    861    0    0    0
H -118.38042754 -45.36042102 -64.15637521     6    861    0    0    0
C -121.05778465 -48.54051122 -64.62658438     2    861   865   866   867
H -119.72254501 -49.91132585 -63.69643313     6    864    0    0    0
H -123.05928641 -48.83496811 -63.91769625     6    864    0    0    0
C -120.68293976 -49.16318554 -67.41197575     2    864   868   869   870
H -121.35241941 -47.62198542 -68.70584571     6    867    0    0    0
H -118.74191639 -49.39984174 -67.93214517     6    867    0    0    0
C -122.17024991 -51.51279249 -68.47925711     2    867   871   872   873
H -121.77326719 -52.95269789 -67.15156174     6    870    0    0    0
H -124.22021065 -51.26867909 -68.20802825     6    870    0    0    0
C -121.73512503 -52.43675087 -71.28564926     2    870   874   875   876
H -123.14396174 -53.75932949 -72.01600987     6    873    0    0    0
H -121.73365296 -50.71766765 -72.41344595     6    873    0    0    0
C -119.09946353 -53.64258737 -71.72145358     2    873   877   878   879
H -117.48324934 -52.60352293 -71.07878723     6    876    0    0    0
H -119.10895130 -55.29710904 -70.51879865     6    876    0    0    0
C -118.73041027 -54.53093574 -74.39675361     2    876   880   881   882
H -120.46645974 -55.54514304 -74.84274592     6    879    0    0    0
H -118.83191465 -53.16552801 -75.92161818     6    879    0    0    0
C -116.58024665 -56.35589762 -74.71840551     1    879   883   884   885
H -117.17413779 -57.63999302 -76.32007468     6    882    0    0    0
H -116.62125576 -57.55070189 -73.13355358     6    882    0    0    0
H -114.75328341 -55.37144645 -74.76860346     6    882    0    0    0
H -86.39299863 -65.75569041 -64.89464417     6     887    0    0    0 
C -87.26722579 -65.34812308 -63.00090226     1     886    888    889    890
H -87.29021978 -67.24104511 -62.07438603     6     887    0    0    0
H -86.26260770 -63.92040416 -61.92026977     6     887    0    0    0
C -90.00441433 -64.62620986 -63.66282129     2     887    891    892    893
H -91.10510941 -66.27346223 -63.83263330     6     890    0    0    0
H -90.79224640 -63.57750379 -62.03908042     6     890    0    0    0
C -90.07003529 -62.70142679 -65.89601600     2     890    894   895   896
H -88.61004957 -61.18446675 -65.68640069     6     893    0    0    0
H -89.57650595 -63.81816373 -67.44044753     6     893    0    0    0
C -92.66291291 -61.54598622 -66.34449040     2     893   897   898   899
H -94.14519461 -62.88471648 -66.63001896     6    896    0    0    0
H -93.05191553 -60.53873061 -64.63238097     6    896    0    0    0
C -92.76002131 -59.59234199 -68.47850933     2    896   900   901   902
H -91.49486850 -58.15003872 -68.14990756     6    899    0    0    0
H -91.90072658 -60.50545210 -70.09491464     6    899    0    0    0
C -95.20102136 -58.41310506 -69.45608443     2    899   903   904   905
H -96.66114211 -59.61044056 -70.27418291     6    902    0    0    0
H -96.07106125 -57.56148013 -67.78506121     6    902    0    0    0
C -94.73442828 -56.29543698 -71.51428440     2    902   906   907   908
H -93.38194598 -54.84377365 -70.94317202     6    905    0    0    0
H -94.01653494 -56.99777521 -73.20997308     6    905    0    0    0
C -97.18997853 -54.54136422 -71.52916893     2    905   909   910   911
H -98.86277294 -55.78132752 -71.67173103     6    908    0    0    0
H -97.25707461 -53.42300251 -69.87665485     6    908    0    0    0
C -96.98911489 -52.95195329 -73.94260649     2    908   912   913   914
H -95.09504780 -52.32962302 -74.37580846     6    911    0    0    0
H -97.68930547 -54.24636668 -75.42602962     6    911    0    0    0
C -98.87360820 -50.83481610 -73.78687205     2    911   915   916   917
H -100.70531899 -51.58606984 -73.64789487     6    914    0    0    0
H -98.38570434 -49.61063391 -72.23806982     6    914    0    0    0
C -98.64523319 -49.14284388 -76.11999967     2    914   918   919   920
H -96.83107729 -48.19917489 -76.25819932     6    917    0    0    0
H -98.88188635 -50.06195422 -77.86870483     6    917    0    0    0
C -100.67963847 -47.02001682 -76.01451523     1    917   921   922   923
H -100.55831048 -45.88957940 -77.70167097     6    920    0    0    0
H -100.47184660 -45.72392150 -74.37229167     6    920    0    0    0
H -102.62791951 -47.81885185 -75.88751059     6    920    0    0    0
H -107.81974608 -66.71024478 -65.07968524     6     925    0    0    0 
C -109.64124155 -67.66775436 -65.19813652     1     924    926    927    928
H -109.25539960 -69.49139528 -64.11727372     6     925    0    0    0
H -110.90046738 -66.45534322 -64.18804636     6     925    0    0    0
C -110.63421842 -67.88492552 -67.85620987     2     925    929    930    931
H -109.82410187 -69.53989879 -68.73036482     6     928    0    0    0
H -112.65445596 -68.36463328 -67.91839288     6     928    0    0    0
C -110.07292358 -65.68939278 -69.54604236     2     928    932   933   934
H -111.32559907 -64.21343227 -68.65771684     6     931    0    0    0
H -108.17902649 -64.95188538 -69.68420980     6     931    0    0    0
C -111.06463160 -65.89019233 -72.27968201     2     931   935   936   937
H -110.06178164 -67.30441820 -73.47747190     6    934    0    0    0
H -113.19983953 -66.24812516 -72.09511507     6    934    0    0    0
C -110.86754065 -63.26041634 -73.53609244     2    934   938   939   940
H -112.38970231 -62.08137721 -72.91186962     6    937    0    0    0
H -109.03576845 -62.32172563 -73.15794062     6    937    0    0    0
C -111.64511114 -63.45698250 -76.27189135     2    937   941   942   943
H -110.49993885 -64.98332825 -77.12199882     6    940    0    0    0
H -113.59800928 -64.09098293 -76.28926768     6    940    0    0    0
C -111.28761386 -60.93817672 -77.62783796     2    940   944   945   946
H -112.32455356 -59.45727345 -76.78641717     6    943    0    0    0
H -109.33652727 -60.68883155 -77.69726114     6    943    0    0    0
C -112.23848342 -61.13842467 -80.42841542     2    943   947   948   949
H -111.25633582 -59.76388965 -81.63963025     6    946    0    0    0
H -111.58233979 -62.88283110 -81.37512689     6    946    0    0    0
C -115.03277546 -60.93017049 -81.17815096     2    946   950   951   952
H -116.34609867 -62.19213584 -80.10295838     6    949    0    0    0
H -115.76801139 -58.95998037 -80.97505230     6    949    0    0    0
C -115.37095117 -61.80108979 -83.95500643     2    949   953   954   955
H -114.20280280 -60.56003343 -85.13679546     6    952    0    0    0
H -114.24174049 -63.50617586 -84.24339568     6    952    0    0    0
C -117.99552839 -62.40574132 -84.75405391     2    952   956   957   958
H -118.60907654 -64.19538784 -83.84379012     6    955    0    0    0
H -119.19896929 -60.73870842 -84.18441554     6    955    0    0    0
C -118.15819114 -62.83852438 -87.63864958     1    955   959   960   961
H -120.01360201 -63.29505100 -88.27797266     6    958    0    0    0
H -116.94021390 -64.34363560 -88.12869762     6    958    0    0    0
H -117.75501093 -61.08454038 -88.83587322     6    958    0    0    0
H -72.24389625 -54.09470262 -66.93572201     6     963    0    0    0 
C -73.74872556 -53.37483860 -65.64072289     1     962    964    965    966
H -73.34979753 -51.34253625 -65.14943442     6     963    0    0    0
H -75.57176841 -53.80387738 -66.44831144     6     963    0    0    0
C -73.58103065 -54.39947524 -62.94605814     2     963    967    968    969
H -73.60145980 -56.33775239 -62.86278143     6     966    0    0    0
H -71.81779146 -53.72464398 -62.13435061     6     966    0    0    0
C -75.89621211 -53.59211927 -61.31165564     2     966    970   971   972
H -76.10543589 -51.43095111 -61.27548320     6     969    0    0    0
H -77.51387298 -54.45554380 -62.50482920     6     969    0    0    0
C -75.58497043 -54.79293321 -58.53495215     2     969   973   974   975
H -75.12372797 -56.75078838 -58.57092170     6    972    0    0    0
H -73.82867506 -53.75429126 -57.87466526     6    972    0    0    0
C -77.86434812 -54.15006475 -56.93881435     2    972   976   977   978
H -78.11104956 -52.20476306 -57.29057802     6    975    0    0    0
H -79.70217585 -54.94646195 -57.59656318     6    975    0    0    0
C -77.37854732 -54.48604270 -54.01972079     2    975   979   980   981
H -77.37777475 -56.54258141 -53.39755042     6    978    0    0    0
H -75.49496754 -53.93639252 -53.27779120     6    978    0    0    0
C -79.32114382 -53.22622382 -52.33705058     2    978   982   983   984
H -79.37355182 -51.24387407 -52.77493661     6    981    0    0    0
H -81.12932354 -53.84458377 -52.87012284     6    981    0    0    0
C -79.15853678 -53.96709710 -49.57121094     2    981   985   986   987
H -79.53339347 -55.89618910 -49.06439194     6    984    0    0    0
H -77.17645684 -54.26139062 -49.04776309     6    984    0    0    0
C -80.39474906 -51.93058202 -47.83641046     2    984   988   989   990
H -80.16381209 -52.70458657 -45.92092025     6    987    0    0    0
H -79.56346003 -50.06949381 -47.82675348     6    987    0    0    0
C -83.27571486 -51.64702647 -47.96197456     2    987   991   992   993
H -84.00023068 -51.37843026 -49.83861798     6    990    0    0    0
H -84.20452371 -53.37065248 -47.24011762     6    990    0    0    0
C -84.14208556 -49.38781009 -46.46233825     2    990   994   995   996
H -83.32359905 -49.51997566 -44.58932463     6    993    0    0    0
H -83.32356492 -47.68494497 -47.33100135     6    993    0    0    0
C -87.06258097 -49.22811482 -46.38175263     1    993   997   998   999
H -87.69207600 -49.04390743 -48.35023541     6    996    0    0    0
H -87.73466109 -47.31773671 -45.76701117     6    996    0    0    0
H -87.98382606 -50.75581601 -45.47485181     6    996    0    0    0
H -77.10458918 -61.32734854 -77.74620503     6     1001    0    0    0 
C -76.43742602 -59.41021764 -78.31634107     1     1000    1002    1003    1004
H -74.99464609 -59.78519450 -79.78028453     6     1001    0    0    0
H -77.86182451 -58.09225742 -79.06547222     6     1001    0    0    0
C -75.30306182 -58.18050494 -75.87846439     2     1001    1005    1006    1007
H -76.75524778 -57.98581935 -74.58747052     6     1004    0    0    0
H -73.59357493 -59.24094456 -75.22965719     6     1004    0    0    0
C -74.39967310 -55.43974608 -76.36713013     2     1004    1008   1009   1010
H -73.47367278 -55.46974383 -78.21761404     6     1007    0    0    0
H -75.85693845 -54.07387497 -76.64742380     6     1007    0    0    0
C -72.73844037 -54.54764755 -74.18140739     2     1007   1011   1012   1013
H -73.90288690 -54.69963117 -72.55128332     6    1010    0    0    0
H -71.13649711 -55.76361219 -73.96339422     6    1010    0    0    0
C -71.89210404 -51.80974371 -74.48125380     2    1010   1014   1015   1016
H -70.41245650 -51.83616436 -75.85940597     6    1013    0    0    0
H -73.67164549 -50.85470032 -75.08576075     6    1013    0    0    0
C -70.81270985 -50.66441684 -72.12997495     2    1013   1017   1018   1019
H -72.19625873 -50.09498537 -70.65089974     6    1016    0    0    0
H -69.68759170 -52.02597756 -71.13553532     6    1016    0    0    0
C -69.47304409 -48.09014332 -72.53870824     2    1016   1020   1021   1022
H -68.09527126 -48.04258982 -74.09986954     6    1019    0    0    0
H -71.10990502 -47.00470947 -73.10708233     6    1019    0    0    0
C -67.92983578 -47.29585262 -70.10702750     2    1019   1023   1024   1025
H -66.40038812 -48.66080623 -69.69916113     6    1022    0    0    0
H -66.95022926 -45.54127888 -70.68481193     6    1022    0    0    0
C -69.32494174 -46.62001403 -67.77884694     2    1022   1026   1027   1028
H -70.72228573 -45.19581874 -68.26158341     6    1025    0    0    0
H -70.35131318 -48.14773578 -67.01523843     6    1025    0    0    0
C -67.63661720 -45.75680799 -65.60479573     2    1025   1029   1030   1031
H -66.00951012 -47.17454298 -65.33196693     6    1028    0    0    0
H -66.48863406 -44.07605611 -65.97832308     6    1028    0    0    0
C -69.04464103 -45.69165970 -63.09343579     2    1028   1032   1033   1034
H -70.60103484 -44.44077619 -63.46740178     6    1031    0    0    0
H -69.78402239 -47.57755779 -62.74362614     6    1031    0    0    0
C -67.49047967 -44.59217918 -60.93727049     1    1031   1035   1036   1037
H -66.35174799 -46.13245314 -60.38690244     6    1034    0    0    0
H -68.65645490 -44.25146673 -59.22507537     6    1034    0    0    0
H -66.43721152 -42.84291913 -61.02944706     6    1034    0    0    0
H -79.39536860 -79.20879361 -65.22749309     6     1039    0    0    0 
C -80.60720815 -79.97562058 -66.79656883     1     1038    1040    1041    1042
H -81.20492489 -78.58537492 -68.21179903     6     1039    0    0    0
H -79.46662213 -81.57785590 -67.57848678     6     1039    0    0    0
C -82.88946141 -81.09828084 -65.46688310     2     1039    1043    1044    1045
H -82.28642341 -82.75607644 -64.34276553     6     1042    0    0    0
H -83.71517066 -79.81874917 -64.07163359     6     1042    0    0    0
C -84.87428080 -81.93462214 -67.58570358     2     1042    1046   1047   1048
H -85.16663592 -80.36585409 -69.01372025     6     1045    0    0    0
H -84.33535996 -83.53899513 -68.70880291     6     1045    0    0    0
C -87.34898164 -82.59267167 -66.26069842     2     1045   1049   1050   1051
H -86.69300254 -83.32541173 -64.40685698     6    1048    0    0    0
H -88.37738800 -80.83299163 -65.71600088     6    1048    0    0    0
C -89.19225740 -84.30016333 -67.71152078     2    1048   1052   1053   1054
[...]
 1763      H     -99.1556508000   -36.1596105600   -62.8626135000
 1764      C     -97.3646482200   -38.0106514800   -59.8354088100
 1765      H     -98.8944315600   -37.9000847000   -58.3284264800
 1766      H     -96.3532039100   -39.8628333500   -59.3668470100
 1767      C     -95.6673020800   -35.5578211500   -59.7061227200
 1768      H     -94.4793745900   -35.7197440900   -61.3019172300
 1769      H     -96.8047968000   -33.7745554500   -60.0372040100
 1770      C     -94.1541694900   -35.4222077900   -57.3231423700
 1771      H     -95.4182965000   -35.0791730200   -55.8517215200
 1772      H     -93.3391637200   -37.3563629400   -57.0983774600
 1773      C     -92.0069465800   -33.5079586600   -57.2403139800
 1774      H     -90.7880694600   -33.9936811700   -58.8590335500
 1775      H     -92.9670836100   -31.6229633400   -57.4187925100
 1776      C     -90.4353727200   -33.5835777100   -54.7089198500
 1777      H     -91.8456897000   -32.9279262800   -53.2530190200
 1778      H     -89.6938326100   -35.4649723900   -54.1587126600
 1779      C     -87.9361677200   -32.0792962400   -54.9484284300
 1780      H     -86.6168564500   -32.5794838300   -56.3364532900
 1781      H     -88.3395151200   -30.2022563400   -55.6428882200
 1782      C     -86.5424424300   -31.9332540000   -52.3133168300
 1783      H     -85.3172168300   -33.6183400800   -51.9804699600
 1784      H     -84.9358087800   -30.5201314700   -52.3883533800
 1785      C     -88.3343434300   -31.3708196400   -50.1511630000
 1786      H     -89.7214098800   -30.0629434300   -50.6225422400
 1787      H     -89.2887579100   -33.0173906400   -49.3976494700
 1788      C     -86.8628088700   -30.1360095900   -48.0223893500
 1789      H     -85.3977871400   -31.3991118200   -47.4396522500
 1790      H     -86.0609934900   -28.3734140600   -48.5650883800
 1791      C     -88.5788374700   -29.4263702600   -45.9483156700
 1792      H     -90.2337656200   -28.4229160200   -46.5511714800
 1793      H     -89.3595086100   -30.9653081100   -44.9355585000
 1794      C     -87.3635973800   -27.5623902100   -44.0513326800
 1795      H     -86.8731079600   -25.8266869500   -45.0192630600
 1796      H     -85.5876343700   -28.4380453900   -43.3538115300
 1797      H     -88.5370937900   -27.4153443300   -42.2227323200
 1798      H    -108.7664706900   -83.2582219200   -47.5256182400
 1799      C    -109.9663553800   -82.9597041800   -49.0511755500
 1800      H    -110.5199834100   -84.7044419500   -50.0401309800
 1801      H    -111.6560242400   -82.0052098900   -48.2986385500
 1802      C    -108.9824514600   -80.9254326600   -50.9442035000
 1803      H    -108.8099486500   -79.0803586700   -49.9776638100
 1804      H    -106.9786688400   -81.3467703900   -51.4860665300
 1805      C    -110.6748543300   -80.6696857000   -53.3884599700
 1806      H    -110.5643743700   -82.3861085900   -54.5315647000
 1807      H    -112.6390011300   -80.1736106500   -52.9255164100
 1808      C    -109.8355485200   -78.3915429300   -54.9582145300
 1809      H    -111.3836294400   -77.7437661100   -56.1404824900
 1810      H    -109.6887122900   -76.8765448800   -53.6267563700
 1811      C    -107.2289928200   -78.5530578400   -56.3614598300
 1812      H    -105.6509350100   -78.2776931700   -55.0078939900
 1813      H    -106.9336173900   -80.3973593900   -57.3383838800
 1814      C    -107.0324000600   -76.4829590100   -58.4323227500
 1815      H    -108.6209764100   -76.4774190600   -59.8299166900
 1816      H    -107.2559726000   -74.5281707500   -57.5890488200
 1817      C    -104.5191540700   -76.4701670700   -59.7693512700
 1818      H    -103.0256955900   -76.6302275600   -58.4523159600
 1819      H    -104.5425779500   -78.1094449700   -60.9719509300
 1820      C    -104.0215687900   -74.2278642900   -61.3242095500
 1821      H    -105.5031722500   -74.3854980100   -63.0024434500
 1822      H    -104.3800956200   -72.5217154100   -60.1887805800
 1823      C    -101.3201435700   -74.0664336900   -62.4519205400
 1824      H     -99.8077727300   -74.0360548200   -61.0612299600
 1825      H    -100.9693989500   -75.8227942200   -63.5312638500
 1826      C    -101.0785563800   -71.7352789900   -64.3151710200
 1827      H    -102.3192795800   -72.2640842700   -65.9329355900
 1828      H    -101.7230543800   -69.8523025400   -63.5525288000
 1829      C     -98.2777117800   -71.2209954300   -65.3116012400
 1830      H     -97.0100565000   -71.4013743000   -63.7278848200
 1831      H     -97.7107919900   -72.9385846000   -66.5447500100
 1832      C     -98.0075482200   -68.5178124700   -66.5436293100
 1833      H     -96.1301436700   -68.0728519600   -67.4655753600
 1834      H     -98.4386554300   -67.0570846800   -65.3189023100
 1835      H     -99.2968929300   -68.2494120700   -68.1172040800
 1836      H     -99.6075498300   -60.9010593600   -62.7141404600
 1837      C    -100.4785872200   -62.7818436700   -63.0361877200
 1838      H    -100.6608692900   -63.2878148700   -65.0140559500
 1839      H     -99.0859023000   -64.1077743000   -62.3404465700
 1840      C    -102.9715517500   -63.0210854600   -61.6025132400
 1841      H    -103.5776019800   -64.8374266100   -61.4296483700
 1842      H    -102.6718037700   -62.5478377400   -59.5845519700
 1843      C    -104.9647167700   -61.3393791900   -62.9363376900
 1844      H    -104.4342480300   -59.4554625200   -62.7236498700
 1845      H    -104.9644566300   -61.6142911000   -64.9396586000
 1846      C    -107.7522677700   -61.5111650700   -61.8739212200
 1847      H    -108.4912254700   -63.4282304900   -62.1612444100
 1848      H    -107.6687397100   -61.4970914100   -59.8036695100
 1849      C    -109.4814408100   -59.3660438700   -62.9233361100
 1850      H    -109.1059968600   -57.4466299300   -62.3826788000
 1851      H    -109.1294472300   -59.0628929400   -64.8790655600
 1852      C    -112.2844770100   -60.1010296500   -62.7131259300
 1853      H    -112.7089673700   -61.8026999400   -63.7681690200
 1854      H    -112.6611101900   -60.6519584700   -60.7811738200
 1855      C    -114.2541916600   -57.8844676800   -63.3732289800
 1856      H    -113.8284485200   -56.2826138600   -62.1678127600
 1857      H    -114.1574509800   -57.1957694600   -65.2665322400
 1858      C    -117.0158882700   -58.7643038200   -62.8955904100
 1859      H    -117.3126770600   -60.2294231300   -64.2685078700
 1860      H    -117.2167550100   -59.6269334800   -61.0748923900
 1861      C    -118.8513580900   -56.4938648900   -63.2222017800
 1862      H    -118.2863705200   -55.0514274100   -61.8618921500
 1863      H    -118.8951965800   -55.6913727400   -65.1631214900
 1864      C    -121.4617816200   -57.1824189900   -62.2528543500
 1865      H    -122.1642921200   -58.7522226200   -63.5358366400
 1866      H    -121.5572629400   -58.0359966900   -60.2906803000
 1867      C    -123.2999111400   -54.8798166500   -62.2587874400
 1868      H    -122.1703300500   -53.1886053900   -61.9576741700
 1869      H    -124.3207418500   -54.6829842200   -64.1109558600
 1870      C    -125.2541588900   -54.9303144200   -60.0839542100
 1871      H    -126.1838764600   -53.1020398700   -59.9049637100
 1872      H    -124.4948101800   -55.2873038600   -58.2398619300
 1873      H    -126.7107088600   -56.4148868800   -60.2895196400
 1874      H    -104.9449001700   -53.9104025100   -41.6746060300
 1875      C    -104.1189803500   -53.0050185200   -39.9716589500
 1876      H    -105.1226917900   -51.1698754700   -40.2154777500
 1877      H    -104.7260712500   -54.0008286500   -38.2923057400
 1878      C    -101.2515996600   -52.5607961600   -40.2868684700
 1879      H    -100.8146648000   -51.3236871600   -41.9273334000
 1880      H    -100.4770892700   -51.5022568900   -38.7536738300
 1881      C     -99.8156427300   -55.1059489900   -40.8022370400
 1882      H     -99.9561226400   -56.4116816100   -39.1075873600
 1883      H    -100.7922738600   -55.8322134100   -42.4254677600
 1884      C     -96.9823320900   -54.9286938500   -41.4117679700
 1885      H     -96.6555258200   -53.7140705000   -42.8892664200
 1886      H     -95.9125547500   -53.9404691700   -40.0458101500
 1887      C     -96.1016599600   -57.5096841600   -42.1046464100
 1888      H     -96.5294453500   -58.7440544700   -40.6401361800
 1889      H     -97.0426082500   -58.0854180900   -43.7567825300
 1890      C     -93.1615934400   -57.6481075600   -42.2829356100
 1891      H     -92.3360350800   -55.9823160600   -42.9766941000
 1892      H     -92.1929981700   -57.9358246200   -40.4471994900
 1893      C     -92.0980120700   -59.6081084700   -44.0827932500
 1894      H     -92.8505985700   -61.3818858200   -43.3411444200
 1895      H     -92.7292075500   -59.2513776000   -46.0382400600
 1896      C     -89.1699251400   -59.4320408200   -44.1817350800
 1897      H     -89.1151126600   -57.6355825900   -45.0641939800
 1898      H     -88.0792162100   -59.5367719500   -42.5060566300
 1899      C     -88.1017876200   -61.2962828600   -46.0824934500
 1900      H     -89.0733359400   -61.0888401100   -47.8909640600
 1901      H     -86.0981311200   -60.6966598600   -46.2712092500
 1902      C     -88.5314044300   -64.1155877900   -45.2097823900
 1903      H     -87.6282469000   -64.3013019700   -43.2951980600
 1904      H     -90.5964138100   -64.5993574900   -44.7730836700
 1905      C     -87.3069974700   -66.2603389400   -46.9314253900
 1906      H     -88.2148981500   -66.1682968600   -48.7658144300
 1907      H     -85.3798938700   -65.8297023500   -47.3092399700
 1908      C     -87.4616956400   -69.0567784600   -45.9198683800
 1909      H     -86.7822964600   -70.5414917200   -47.3089174400
 1910      H     -89.4396626700   -69.4114279100   -45.6884614100
 1911      H     -86.5804582700   -69.3865155400   -44.0902382200
 ----------------------------------------------------------------
 Nuclear Repulsion Energy =           0.00000000 hartrees
 There are     2498 alpha and     2498 beta electrons

 Total QAlloc Memory Limit   2000 MB
 Mega-Array Size       204 MB
 MEM_STATIC part       192 MB
   **** Step 1: MM calculation on the entire system **** 
 OPLSAA force field loaded.
Reading user-defined FF parameters...
 Reading user defined atom types.
 Found 3 user defined AtomTypes
finished.
Determining angles, torsions, etc. from user defined input
Determining VDW/Coulomb pairs... (useList = 0)

 Time req'd to get MM system information: 0.2 s (CPU) 0.2 s (wall)

 ------ MM Energies ------
   Ebond:           560.266934320263
   Eangle:          902.854407181243
   EUreyBrad:         0.000000000000
   Eimptors:          0.000000000000
   Etorsion:        207.422075492000
   Evdw:        1202535.870623131050
   Ecoulomb:        188.715142086698
   Etot:        1204395.129182211123 Kcal/mol (   1919.325818720928 hartree)
 -------------------------
 Time req'd to calc MM energy: 0.1 s (CPU) 0.1 s (wall)
 OPLSAA force field loaded.
Reading user-defined FF parameters...
 Reading user defined atom types.
 Found 3 user defined AtomTypes
finished.
 Time req'd to get MM system information: 0.0 s (CPU) 0.0 s (wall)
 Time req'd to calc MM gradient: 0.2 s (CPU) 0.2 s (wall)
   **** Step 2: MM calculation on the model system **** 
 Reading user defined atom types.
 Found 3 user defined AtomTypes
 ----------------------------------------------------------------
             Standard Nuclear Orientation (Bohr)
    I     Atom           X                Y                Z
 ----------------------------------------------------------------
    1      Fe    -95.6185039800   -56.8351776500   -55.2921692600
    2      C     -92.4436546500   -55.9060382600   -54.2096386800
    3      C     -98.6616938600   -57.8218604000   -56.1278419900
    4      C     -97.0380936400   -53.7430886400   -55.3472843100
    5      C     -94.3893518900   -58.3066001100   -58.1315581600
    6      C     -95.8251227900   -58.3888173300   -52.1813583900
    7      O     -90.4662854000   -55.3391217400   -53.7811467600
    8      O    -100.7715150800   -58.4291927600   -56.4675264300
    9      O     -98.1974919800   -51.8015990700   -55.1204808800
   10      O     -93.6984914300   -59.3819702400   -59.9596275300
   11      O     -95.3622227300   -59.2672426200   -50.2580622800
 ----------------------------------------------------------------
 Nuclear Repulsion Energy =         801.30464666 hartrees
 There are       48 alpha and       48 beta electrons
 OPLSAA force field loaded.
Reading user-defined FF parameters...
 Reading user defined atom types.
 Found 3 user defined AtomTypes
finished.
Determining VDW/Coulomb pairs... (useList = 0)

 No MM bonds in system. Return all possible pairs.
 Time req'd to get MM system information: 0.0 s (CPU) 0.0 s (wall)

 ------ MM Energies ------
   Ebond:             0.000000000000
   Eangle:            0.000000000000
   EUreyBrad:         0.000000000000
   Eimptors:          0.000000000000
   Etorsion:          0.000000000000
   Evdw:        1202994.593665016815
   Ecoulomb:         -6.517593337971
   Etot:        1202988.076071678894 Kcal/mol (   1917.083536850201 hartree)
 -------------------------
 Eold: 1919.3258187 mm_energy: 1917.0835369 Enew:    2.2422819
 Time req'd to calc MM energy: 0.0 s (CPU) 0.0 s (wall)
 OPLSAA force field loaded.
Reading user-defined FF parameters...
 Reading user defined atom types.
 Found 3 user defined AtomTypes
finished.
Determining VDW/Coulomb pairs... (useList = 0)

 No MM bonds in system. Return all possible pairs.
 Time req'd to get MM system information: 0.0 s (CPU) 0.0 s (wall)
 Number of fixed atoms: 0
 Time req'd to calc MM gradient: 0.0 s (CPU) 0.0 s (wall)
   **** Step 3: QM calculation on the model system **** 
 Requested basis set is def2-mSVP
 There are 80 shells and 174 basis functions

                       Distance Matrix (Bohrs)
             Fe(  1)   C (  2)   C (  3)   C (  4)   C (  5)   C (  6)
   C (  2)  3.480638
   C (  3)  3.306493  6.783354
   C (  4)  3.402835  5.203985  4.458893
   C (  5)  3.426081  4.992984  4.743707  5.966041
   C (  6)  3.483336  4.659661  4.893088  5.751276  6.121526
   O (  7)  5.573754  2.101187  8.878946  6.941813  6.566769  6.370016
   O (  8)  5.520496  8.989862  2.221617  6.095322  6.596669  6.545202
   O (  9)  5.658407  7.126198  6.121585  2.272669  8.116869  7.593288
   O ( 10)  5.653120  6.835136  6.461416  8.013965  2.230593  8.124677
   O ( 11)  5.596682  5.952368  6.886941  7.695778  7.991323  2.164480
             O (  7)   O (  8)   O (  9)   O ( 10)
   O (  8) 11.088865
   O (  9)  8.606941  7.236375
   O ( 10)  8.060112  7.945453 10.055863
   O ( 11)  7.198087  8.277694  9.349743  9.843858

 A cutoff of  1.0D-11 yielded   2490 shell pairs
 There are     12812 function pairs (     14650 Cartesian)
 Smallest overlap matrix eigenvalue = 2.54E-03
 Guess MOs from SCF MO coefficient file
 Reading MOs from coefficient file
 Reading MOs from coefficient file
 A restricted Kohn-Sham SCF calculation will be
 performed using Pulay DIIS extrapolation
 Exchange:  B88      Correlation:  P86
 Using SG-1 standard quadrature grid
 SCF converges when DIIS error is below 1.0E-08
 Using Q-Chem read-in guess as SCF_GUESS READ specified.

 using 2 threads for integral computing
 -------------------------------------------------------
 OpenMP Integral computing Module                
 Release: version 1.0, May 2013, Q-Chem Inc. Pittsburgh 
 -------------------------------------------------------
 ---------------------------------------
  Cycle       Energy         DIIS Error
 ---------------------------------------
    1   -1830.5105144837      1.16E-09
    2   -1830.5105144841      1.00E-08
    3   -1830.5105144840      2.32E-09 Convergence criterion met
 ---------------------------------------
 SCF time:  CPU 4.00 s  wall 2.10 s
 E(QM + QM/MM):    -1830.5105144840 E(MM):    2.2422819 E(Tot): -1828.268232613282 
 SCF   energy in the final basis set = -1828.26823261
 Total energy in the final basis set = -1828.26823261

 --------------------------------------------------------------

                    Orbital Energies (a.u.)
 --------------------------------------------------------------

 Alpha MOs
 -- Occupied --
******** -29.6333 -25.5934 -25.5797 -25.5771 -18.8975 -18.8840 -18.8798
-18.8715 -18.8684 -10.0534 -10.0531 -10.0468 -10.0427 -10.0405  -3.3184
 -2.1556  -2.1279  -2.1220  -1.0984  -1.0667  -1.0479  -1.0351  -1.0207
 -0.5755  -0.5313  -0.5206  -0.5156  -0.5105  -0.4631  -0.4577  -0.4537
 -0.4373  -0.4342  -0.4313  -0.4276  -0.4194  -0.4111  -0.4079  -0.3983
 -0.3973  -0.3936  -0.3906  -0.3752  -0.2767  -0.2719  -0.2315  -0.2200
 -- Virtual --
 -0.1037  -0.0886  -0.0828  -0.0757  -0.0708  -0.0685  -0.0635  -0.0590
 -0.0518  -0.0283  -0.0247   0.0153   0.1819   0.2196   0.2282   0.2581
  0.2935   0.3203   0.3497   0.4026   0.4048   0.4131   0.4350   0.4378
  0.4482   0.4742   0.4942   0.5072   0.5227   0.5536   0.5709   0.5830
  0.5997   0.6216   0.6463   0.6710   0.7298   0.7487   0.7632   0.7717
  0.7873   0.8278   0.8368   0.8587   0.8913   0.9158   0.9453   0.9511
  0.9688   0.9798   0.9921   0.9999   1.0113   1.0192   1.0331   1.0455
  1.2166   1.2423   1.2654   1.3147   1.3875   1.3968   1.4023   1.4125
  1.4174   1.4283   1.4317   1.4389   1.4426   1.4584   1.4849   1.5000
  1.5163   1.5500   1.5604   1.5785   1.6122   1.6210   1.6559   1.6828
  1.7187   1.8055   1.8302   1.8324   1.8422   1.8463   1.8518   1.8564
  1.8603   1.8674   1.8749   1.8983   1.9084   1.9279   1.9425   1.9499
  2.3816   2.3982   2.4102   2.4350   2.4547   2.4685   2.4860   2.4964
  2.5047   2.5181   2.6230   2.6473   2.6567   2.6889   2.6943   2.8158
  2.8313   2.8817   2.8961   3.0022  13.2726  13.2934  13.3156  13.3568
 13.4584  24.9035  24.9369  24.9512  24.9931  25.0258
 --------------------------------------------------------------

          Ground-State Mulliken Net Atomic Charges

     Atom                 Charge (a.u.)
  ----------------------------------------
      1 Fe                   -0.462096
      2 C                     0.193390
      3 C                     0.172741
      4 C                     0.225258
      5 C                     0.209659
      6 C                     0.218924
      7 O                    -0.052217
      8 O                    -0.127523
      9 O                    -0.152065
     10 O                    -0.133061
     11 O                    -0.093010
  ----------------------------------------
  Sum of atomic charges =     0.000000

 -----------------------------------------------------------------
                    Cartesian Multipole Moments
 -----------------------------------------------------------------
    Charge (ESU x 10^10)
                -0.0000
    Dipole Moment (Debye)
         X       0.6091908263      Y      -0.1264220673      Z       0.5614275884
       Tot       0.8380315858
    Quadrupole Moments (Debye-Ang)
        XX    -130.6603     XY     -10.2131     YY     -62.6625
        XZ     -45.7626     YZ     -13.9339     ZZ    -102.1698
    Octopole Moments (Debye-Ang^2)
       XXX   15167.7949    XXY    3431.8744    XYY    3625.9459
       YYY    5988.6328    XXZ    5211.7262    XYZ    1176.4467
       YYZ    2383.6100    XZZ    5661.7298    YZZ    3016.1841
       ZZZ    7517.4765
    Hexadecapole Moments (Debye-Ang^3)
      XXXX ************   XXXY -426518.2792   XXYY -269113.8221
      XYYY -315563.9985   YYYY -367200.0874   XXXZ -512788.3636
      XXYZ -144063.1150   XYYZ -133484.8456   YYYZ -192312.6236
      XXZZ -370630.9334   XYZZ -165910.7170   YYZZ -149226.4125
      XZZZ -394276.1435   YZZZ -225558.6299   ZZZZ -411973.3409
 -----------------------------------------------------------------
 Calculating MO derivatives via CPSCF
 Full subspace dimension requested for CIS/TDDFT
 MAX_CIS_SUBSPACE fits in available memory
    1     0    36    0.0418767  
    2     0    36    0.0071557  
    3     0    36    0.0007407  
