                  Welcome to Q-Chem
     A Quantum Leap Into The Future Of Chemistry


 Q-Chem 5.4 (devel), Q-Chem, Inc., Pleasanton, CA (2021)

 E. Epifanovsky,  A. T. B. Gilbert,  Xintian Feng,  Joonho Lee,  Yuezhi Mao,  
 N. Mardirossian,  P. Pokhilko,  A. White,  M. Wormit,  M. P. Coons,  
 A. L. Dempwolff,  Zhengting Gan,  D. Hait,  P. R. Horn,  L. D. Jacobson,  
 I. Kaliman,  J. Kussmann,  A. W. Lange,  Ka Un Lao,  D. S. Levine,  Jie Liu,  
 S. C. McKenzie,  A. F. Morrison,  K. Nanda,  F. Plasser,  D. R. Rehn,  
 M. L. Vidal,  Zhi-Qiang You,  Ying Zhu,  B. Alam,  B. Albrecht,  
 A. Aldossary,  E. Alguire,  J. H. Andersen,  D. Barton,  K. Begam,  A. Behn,  
 Y. A. Bernard,  E. J. Berquist,  H. Burton,  A. Carreras,  K. Carter-Fenk,  
 R. Chakraborty,  A. D. Chien,  K. D. Closser,  V. Cofer-Shabica,  
 S. Dasgupta,  Jia Deng,  M. de Wergifosse,  M. Diedenhofen,  Hainam Do,  
 S. Ehlert,  Po-Tung Fang,  S. Fatehi,  Qingguo Feng,  T. Friedhoff,  
 J. Gayvert,  Qinghui Ge,  G. Gidofalvi,  M. Goldey,  J. Gomes,  
 C. Gonzalez-Espinoza,  S. Gulania,  A. Gunina,  M. W. D. Hanson-Heine,  
 P. H. P. Harbach,  A. W. Hauser,  M. F. Herbst,  M. Hernandez Vera,  
 M. Hodecker,  Z. C. Holden,  S. Houck,  Xunkun Huang,  Kerwin Hui,  
 B. C. Huynh,  M. Ivanov,  Hyunjun Ji,  Hanjie Jiang,  B. Kaduk,  S. Kaehler,  
 K. Khistyaev,  Jaehoon Kim,  P. Klunzinger,  Z. Koczor-Benda,  
 Joong Hoon Koh,  D. Kosenkov,  L. Koulias,  T. Kowalczyk,  C. M. Krauter,  
 K. Kue,  A. Kunitsa,  T. Kus,  A. Landau,  K. V. Lawler,  D. Lefrancois,  
 S. Lehtola,  Rain Li,  Yi-Pei Li,  Jiashu Liang,  M. Liebenthal,  
 Hung-Hsuan Lin,  You-Sheng Lin,  Fenglai Liu,  Kuan-Yu Liu,  
 M. Loipersberger,  A. Luenser,  A. Manjanath,  P. Manohar,  E. Mansoor,  
 S. F. Manzer,  Shan-Ping Mao,  A. V. Marenich,  T. Markovich,  S. Mason,  
 S. A. Maurer,  P. F. McLaughlin,  M. F. S. J. Menger,  J.-M. Mewes,  
 S. A. Mewes,  P. Morgante,  J. W. Mullinax,  K. J. Oosterbaan,  G. Paran,  
 Alexander C. Paul,  Suranjan K. Paul,  F. Pavosevic,  Zheng Pei,  S. Prager,  
 E. I. Proynov,  E. Ramos,  B. Rana,  A. E. Rask,  A. Rettig,  R. M. Richard,  
 F. Rob,  E. Rossomme,  T. Scheele,  M. Scheurer,  M. Schneider,  
 N. Sergueev,  S. M. Sharada,  W. Skomorowski,  D. W. Small,  C. J. Stein,  
 Yu-Chuan Su,  E. J. Sundstrom,  Zhen Tao,  J. Thirman,  T. Tsuchimochi,  
 N. M. Tubman,  S. P. Veccham,  O. Vydrov,  J. Wenzel,  J. Witte,  A. Yamada,  
 Kun Yao,  S. Yeganeh,  S. R. Yost,  A. Zech,  Igor Ying Zhang,  Xing Zhang,  
 Yu Zhang,  D. Zuev,  A. Aspuru-Guzik,  A. T. Bell,  N. A. Besley,  
 K. B. Bravaya,  B. R. Brooks,  D. Casanova,  Jeng-Da Chai,  S. Coriani,  
 C. J. Cramer,  A. E. DePrince, III,  R. A. DiStasio Jr.,  A. Dreuw,  
 B. D. Dunietz,  T. R. Furlani,  W. A. Goddard III,  S. Grimme,  
 S. Hammes-Schiffer,  T. Head-Gordon,  W. J. Hehre,  Chao-Ping Hsu,  
 T.-C. Jagau,  Yousung Jung,  A. Klamt,  Jing Kong,  D. S. Lambrecht,  
 WanZhen Liang,  N. J. Mayhall,  C. W. McCurdy,  J. B. Neaton,  
 C. Ochsenfeld,  J. A. Parkhill,  R. Peverati,  V. A. Rassolov,  Yihan Shao,  
 L. V. Slipchenko,  T. Stauch,  R. P. Steele,  J. E. Subotnik,  
 A. J. W. Thom,  A. Tkatchenko,  D. G. Truhlar,  T. Van Voorhis,  
 T. A. Wesolowski,  K. B. Whaley,  H. L. Woodcock III,  P. M. Zimmerman,  
 S. Faraji,  P. M. W. Gill,  M. Head-Gordon,  J. M. Herbert,  A. I. Krylov

 Additional authors for Version 5.4.1: 
 S. Kotaru,  Shaozhi Li,  Xiangyuan Li,  F. Matz,  A. Molle,  Haisheng Ren,  
 Yingli Su,  Hung-Yi Tsai,  C. Utku,  Fang Wang

 Contributors to earlier versions of Q-Chem not listed above: 
 R. D. Adamson,  B. Austin,  R. Baer,  J. Baker,  G. J. O. Beran,  
 K. Brandhorst,  S. T. Brown,  E. F. C. Byrd,  A. K. Chakraborty,  
 G. K. L. Chan,  Chun-Min Chang,  Yunqing Chen,  C.-L. Cheng,  
 Siu Hung Chien,  D. M. Chipman,  D. L. Crittenden,  H. Dachsel,  
 R. J. Doerksen,  A. D. Dutoi,  R. G. Edgar,  J. Fosso-Tande,  
 L. Fusti-Molnar,  D. Ghosh,  A. Ghysels,  A. Golubeva-Zadorozhnaya,  
 J. Gonthier,  M. S. Gordon,  S. R. Gwaltney,  G. Hawkins,  J. E. Herr,  
 A. Heyden,  S. Hirata,  E. G. Hohenstein,  G. Kedziora,  F. J. Keil,  
 C. Kelley,  Jihan Kim,  R. A. King,  R. Z. Khaliullin,  P. P. Korambath,  
 W. Kurlancheek,  A. Laurent,  A. M. Lee,  M. S. Lee,  S. V. Levchenko,  
 Ching Yeh Lin,  D. Liotard,  E. Livshits,  R. C. Lochan,  I. Lotan,  
 L. A. Martinez-Martinez,  P. E. Maslen,  N. Nair,  D. P. O'Neill,  
 D. Neuhauser,  E. Neuscamman,  C. M. Oana,  R. Olivares-Amaya,  R. Olson,  
 T. M. Perrine,  B. Peters,  P. A. Pieniazek,  A. Prociuk,  Y. M. Rhee,  
 J. Ritchie,  M. A. Rohrdanz,  E. Rosta,  N. J. Russ,  H. F. Schaefer III,  
 M. W. Schmidt,  N. E. Schultz,  S. Sharma,  N. Shenvi,  C. D. Sherrill,  
 A. C. Simmonett,  A. Sodt,  T. Stein,  D. Stuck,  K. S. Thanthiriwatte,  
 V. Vanovschi,  L. Vogt,  Tao Wang,  A. Warshel,  M. A. Watson,  
 C. F. Williams,  Q. Wu,  X. Xu,  Jun Yang,  W. Zhang,  Yan Zhao

 Please cite Q-Chem as follows:
 Y. Shao et al., Mol. Phys. 113, 184-215 (2015)
 DOI: 10.1080/00268976.2014.952696

 Q-Chem 5.4.1 for Intel X86 EM64T Linux

 Parts of Q-Chem use Armadillo 9.900.5 (Nocturnal Misbehaviour).
 http://arma.sourceforge.net/

 Q-Chem begins on Wed Jun 22 16:41:23 2022  

 Host: p09r14n13.grace.hpc.yale.internal
0

     Scratch files written to /home/tl686/scratch60/qchem_dev/scratch/qchem247042//
 Processing $rem in /home/tl686/qchem_dev/qchem/config/preferences:
 Processing $rem in /home/tl686/.qchemrc:
Applying user defined connections for MM calculations

 Checking the input file for inconsistencies... 	...done.

--------------------------------------------------------------
User input:
--------------------------------------------------------------
$molecule
0   1
 Fe -57.45741815 -29.46179581 8.19365180    -1  0   0   0   0
C -57.08158814 -32.28161341 6.34213235    -2  0   0   0   0 
C -58.02096679 -27.11377483 10.65369888    -2  0   0   0   0
C -56.11720914 -27.58147699 5.81208329    -2  0   0   0   0
C -60.86034363 -29.77092913 7.98600105    -2  0   0   0   0
C -55.27772480 -30.92973328 10.42873094    -2  0   0   0   0
O -56.88038001 -34.22053646 5.45943192    -3  0   0   0   0
O -58.21720746 -25.76393035 12.39445945    -3  0   0   0   0 
O -55.09584869 -26.47268528 4.23455420    -3  0   0   0   0
O -63.12364603 -29.87602293 7.76868457    -3  0   0   0   0 
O -53.96843729 -31.99172319 11.77778613    -3  0   0   0   0
H -58.57553022 -39.66875909 -15.27049517      6     13    0    0    0 
C -58.09282038 -40.90850283 -13.69991481     1     12    14    15    16
H -56.41086489 -42.13128572 -14.07910116     6     13    0    0    0
H -57.48802668 -39.47238466 -12.32794728     6     13    0    0    0
C -60.13968562 -42.52543538 -12.61388542     2     13    17    18    19
H -61.33647005 -43.12701057 -14.13717494     6     16    0    0    0
H -59.47997218 -44.21515929 -11.67824962     6     16    0    0    0
C -61.80958282 -41.09034476 -10.70520869     2     16    20   21   22
H -60.60210865 -40.17344839 -9.28460594     6     19    0    0    0
H -62.98443455 -39.56626479 -11.40966768     6     19    0    0    0
C -63.70780735 -42.94478575 -9.37609425     2     19   23   24   25
H -64.72559465 -43.85971494 -10.96435241     6    22    0    0    0
H -62.55610200 -44.53453658 -8.26630192     6    22    0    0    0
C -65.74135886 -41.60346715 -7.68204613     2    22   26   27   28
H -64.82412446 -40.46302419 -6.18839890     6    25    0    0    0
H -66.93945768 -40.37381722 -8.88251079     6    25    0    0    0
C -67.58931368 -43.51075629 -6.45211823     2    25   29   30   31
H -68.41772887 -44.50362218 -8.07425456     6    28    0    0    0
H -66.36912638 -44.73378597 -5.25917099     6    28    0    0    0
C -69.60350398 -42.15435374 -4.67738327     2    28   32   33   34
H -68.58157825 -41.12257381 -3.23900729     6    31    0    0    0
H -70.53471825 -40.74235778 -5.80486911     6    31    0    0    0
C -71.52328601 -43.95600572 -3.58276596     2    31   35   36   37
H -71.94563752 -45.32260555 -5.15446114     6    34    0    0    0
H -70.69256276 -45.19674786 -2.05976414     6    34    0    0    0
C -73.94639063 -42.60250264 -2.44298172     2    34   38   39   40
H -73.06878828 -41.66410015 -0.75746547     6    37    0    0    0
H -74.78352723 -41.11314951 -3.61519011     6    37    0    0    0
C -76.04317233 -44.61204812 -1.62983166     2    37   41   42   43
H -76.29996489 -45.91828844 -3.11318501     6    40    0    0    0
H -75.25496098 -46.15449019 -0.30951079     6    40    0    0    0
C -78.43030300 -43.41971736 -0.40548867     2    40   44   45   46
H -77.70442712 -42.02796685 0.96715319     6    43    0    0    0
H -79.53772687 -42.32357683 -1.63841977     6    43    0    0    0
C -79.77664888 -45.41220092 1.25066535     1    43   47   48   49
H -80.60909425 -46.78979281 0.06919388     6    46    0    0    0
H -81.33947114 -44.40578542 2.24451705     6    46    0    0    0
H -78.54305739 -46.20684674 2.70399975     6    46    0    0    0
H -65.46288957 -37.75737538 6.34975310     6     51    0    0    0 
C -64.38379076 -36.09787751 6.08135058     1     50    52    53    54
H -64.32101023 -34.89941334 7.78114984     6     51    0    0    0
H -62.49803315 -36.64218399 5.59697784     6     51    0    0    0
C -65.81601887 -34.63341250 3.98572265     2     51    55    56    57
H -64.73918732 -32.92274808 3.58157556     6     54    0    0    0
H -65.74113944 -35.80085879 2.25704581     6     54    0    0    0
C -68.46190376 -33.94340932 4.74055242     2     54    58   59   60
H -68.21974595 -32.97044093 6.46909166     6     57    0    0    0
H -69.33039102 -32.65809939 3.53350970     6     57    0    0    0
C -70.19242328 -36.24822911 4.97485140     2     57   61   62   63
H -69.59866358 -37.80085030 3.70437913     6    60    0    0    0
H -69.84732988 -37.24884711 6.71920216     6    60    0    0    0
C -73.05126636 -35.66185486 4.56013684     2    60   64   65   66
H -73.68904466 -34.41809636 5.98171795     6    63    0    0    0
H -73.30266380 -34.64301933 2.81980918     6    63    0    0    0
C -74.91655902 -37.97964369 4.56161969     2    63   67   68   69
H -76.50803622 -37.53168483 3.40980467     6    66    0    0    0
H -74.17497684 -39.63006056 3.55749725     6    66    0    0    0
C -76.04158800 -38.85884222 7.26730815     2    66   70   71   72
H -74.68736407 -39.43023937 8.62063240     6    69    0    0    0
H -76.99441079 -37.24737141 8.07262946     6    69    0    0    0
C -77.92629358 -41.05157618 7.14052030     2    69   73   74   75
H -79.53241387 -40.56540035 6.04423514     6    72    0    0    0
H -76.93179136 -42.69563433 6.51649696     6    72    0    0    0
C -78.99548796 -41.75317404 9.84811637     2    72   76   77   78
H -77.64855185 -42.83553820 11.05641624     6    75    0    0    0
H -79.46720686 -40.13578494 10.97698901     6    75    0    0    0
C -81.45596516 -43.44660940 9.76453669     2    75   79   80   81
H -82.76213455 -42.72710618 8.21645318     6    78    0    0    0
H -81.09270989 -45.35675119 8.81064588     6    78    0    0    0
C -82.65159344 -43.78049400 12.28281086     2    78   82   83   84
H -81.56636817 -44.86652059 13.63171448     6    81    0    0    0
H -83.19953965 -42.01509110 13.16166535     6    81    0    0    0
C -85.23848307 -45.36031563 12.24163631     1    81   85   86   87
H -85.98773921 -45.30263550 14.09602510     6    84    0    0    0
H -84.63998653 -47.23970828 11.87612379     6    84    0    0    0
H -86.64465649 -44.90622980 10.84241211     6    84    0    0    0
H -60.80925208 -21.20877343 -27.93870499     6     89    0    0    0 
C -62.09359833 -22.66432883 -28.61731201     1     88    90    91    92
H -63.80276435 -21.53563800 -28.51561944     6     89    0    0    0
H -61.56451859 -22.94251577 -30.64145734     6     89    0    0    0
C -62.30141453 -25.05253358 -27.01685967     2     89    93    94    95
H -60.49841605 -26.00965653 -27.08296715     6     92    0    0    0
H -62.58845934 -24.34187808 -25.04395174     6     92    0    0    0
C -64.39016755 -26.86326699 -28.01254462     2     92    96   97   98
H -66.20911096 -25.90866262 -27.85804853     6     95    0    0    0
H -64.48407910 -27.69380124 -29.97631644     6     95    0    0    0
C -64.88815167 -29.12640533 -26.23525044     2     95   99   100   101
H -63.31800989 -30.59416708 -26.00860408     6    98    0    0    0
H -64.89730905 -28.26732478 -24.43969137     6    98    0    0    0
C -67.37627336 -30.47471899 -27.00541410     2    98   102   103   104
H -68.97114260 -29.34617542 -27.49607292     6    101    0    0    0
H -66.64339649 -31.45137458 -28.70858333     6    101    0    0    0
C -68.37321022 -32.30594533 -25.00032698     2    101   105   106   107
H -66.87879719 -33.58204921 -24.35320267     6    104    0    0    0
H -68.87788952 -31.26993821 -23.38517625     6    104    0    0    0
C -70.72849213 -33.73006500 -25.85131773     2    104   108   109   110
H -72.32536711 -32.47315064 -26.01925219     6    107    0    0    0
H -70.30398019 -34.29382348 -27.67103705     6    107    0    0    0
C -71.57900616 -35.92077210 -23.97759308     2    107   111   112   113
H -70.02966857 -37.05351533 -23.57745889     6    110    0    0    0
H -72.19409324 -35.18293910 -22.09465857     6    110    0    0    0
C -73.99572497 -37.23547294 -25.04845743     2    110   114   115   116
H -75.25209688 -35.55975400 -25.38424303     6    113    0    0    0
H -73.63847038 -38.16487305 -26.98109820     6    113    0    0    0
C -75.07888327 -39.34329161 -23.42629073     2    113   117   118   119
H -73.62168094 -40.76611852 -23.55981157     6    116    0    0    0
H -74.97276951 -38.59183856 -21.51335099     6    116    0    0    0
C -77.81819320 -40.16072428 -23.87217195     2    116   120   121   122
H -79.16101415 -38.70508883 -23.30264249     6    119    0    0    0
H -77.95408765 -40.27667803 -25.92275832     6    119    0    0    0
C -78.26887976 -42.65455773 -22.69732775     1    119   123   124   125
H -80.21527952 -43.12431667 -22.78450739     6    122    0    0    0
H -77.80080101 -42.64602937 -20.68643275     6    122    0    0    0
H -77.35800638 -44.24748830 -23.65106710     6    122    0    0    0
H -64.49844811 -9.43144218 -17.74573772     6     127    0    0    0 
C -63.82311388 -11.38870479 -18.01689410     1     126    128    129    130
H -65.40384593 -12.35076429 -18.72455185     6     127    0    0    0
H -62.20501416 -11.58217588 -19.32238784     6     127    0    0    0
C -63.19050808 -12.73157176 -15.58046138     2     127    131    132    133
H -64.77686702 -12.40839968 -14.21053853     6     130    0    0    0
H -62.95882579 -14.76732770 -15.92207536     6     130    0    0    0
C -60.73623574 -12.02386092 -14.24119101     2     130    134   135   136
H -59.01652832 -12.19473788 -15.37254893     6     133    0    0    0
H -60.94337026 -10.09602817 -13.63005410     6     133    0    0    0
C -60.15113799 -13.65809947 -12.14125702     2     133   137   138   139
H -61.81046144 -13.77335814 -10.98903658     6    136    0    0    0
H -59.73649677 -15.67623940 -12.51477425     6    136    0    0    0
C -58.17834285 -12.53995179 -10.44335772     2    136   140   141   142
H -56.48495759 -11.98146163 -11.41694642     6    139    0    0    0
H -59.07080708 -10.90306983 -9.71446056     6    139    0    0    0
C -57.63676330 -14.21725829 -8.28716999     2    139   143   144   145
H -59.37831892 -14.38051139 -7.01424770     6    142    0    0    0
H -57.26831648 -16.20041850 -8.99887717     6    142    0    0    0
C -55.41770933 -13.18387575 -6.77034158     2    142   146   147   148
H -53.86385149 -12.72160195 -8.07698100     6    145    0    0    0
H -55.88026150 -11.42915702 -5.89711639     6    145    0    0    0
C -54.34427058 -15.18461820 -5.00956144     2    145   149   150   151
H -55.81705354 -16.13205707 -3.83759454     6    148    0    0    0
H -53.56218094 -16.50934088 -6.19246120     6    148    0    0    0
C -52.14838908 -14.28067200 -3.42633795     2    148   152   153   154
H -50.89957010 -13.04035273 -4.52312639     6    151    0    0    0
H -52.83175086 -13.19159430 -1.67118749     6    151    0    0    0
C -50.53208903 -16.50606936 -2.33409433     2    151   155   156   157
H -49.24333952 -15.65116434 -0.97249868     6    154    0    0    0
H -51.89288629 -17.90231044 -1.61492321     6    154    0    0    0
C -48.58565831 -17.63459663 -4.11300638     2    154   158   159   160
H -49.52718404 -18.83195136 -5.41398785     6    157    0    0    0
H -47.69574826 -16.20219459 -5.30061275     6    157    0    0    0
C -46.31516189 -19.05548519 -2.98587547     1    157   161   162   163
H -45.37887083 -20.36650379 -4.23261819     6    160    0    0    0
H -47.00641363 -19.90371845 -1.33707767     6    160    0    0    0
H -44.98894061 -17.68386631 -2.33869645     6    160    0    0    0
H -81.61363032 -16.77500386 -10.59962469     6     165    0    0    0 
C -81.48289007 -15.97286077 -12.47956775     1     164    166    167    168
H -82.36234869 -17.21178221 -13.69668336     6     165    0    0    0
H -82.55484851 -14.18611626 -12.39836727     6     165    0    0    0
C -78.63446161 -15.56981333 -13.30781615     2     165    169    170    171
H -77.52274649 -16.92140122 -12.23234414     6     168    0    0    0
H -78.27306902 -15.89738694 -15.31742308     6     168    0    0    0
C -77.68858415 -12.97308956 -12.90394020     2     168    172   173   174
H -79.01790235 -11.72068964 -13.93404349     6     171    0    0    0
H -77.65536541 -12.60816843 -10.83468164     6     171    0    0    0
C -74.83099993 -12.38752263 -13.77189273     2     171   175   176   177
H -73.60595100 -13.87465871 -13.03530294     6    174    0    0    0
H -74.64288466 -12.67300568 -15.77967566     6    174    0    0    0
C -73.97214869 -9.81001806 -12.85157157     2    174   178   179   180
H -75.03103994 -8.27227483 -13.69489646     6    177    0    0    0
H -74.51749237 -9.74138543 -10.85488099     6    177    0    0    0
C -71.22999726 -9.49101737 -13.37058962     2    177   181   182   183
H -70.07550919 -10.98368488 -12.54622628     6    180    0    0    0
H -71.07040050 -9.47505685 -15.48316056     6    180    0    0    0
C -70.48904021 -6.83381071 -12.41251797     2    180   184   185   186
H -71.81962039 -5.29503696 -12.91484085     6    183    0    0    0
H -70.68806616 -6.88008942 -10.39685196     6    183    0    0    0
C -67.80656878 -6.10291952 -12.98693736     2    183   187   188   189
H -66.57163694 -7.51544771 -12.68366288     6    186    0    0    0
H -67.35063386 -5.95276547 -14.99280663     6    186    0    0    0
C -66.68881533 -3.92076992 -11.51268017     2    186   190   191   192
H -67.90893029 -2.23632248 -11.69350541     6    189    0    0    0
H -66.96625521 -4.33713138 -9.45765647     6    189    0    0    0
C -63.67367471 -3.71249617 -11.73674490     2    189   193   194   195
H -62.58012503 -5.25869721 -11.01322071     6    192    0    0    0
H -62.98290683 -3.49016057 -13.57311226     6    192    0    0    0
C -62.66293919 -1.08062453 -10.45711511     2    192   196   197   198
H -63.41498102 0.33062635 -11.83027578     6    195    0    0    0
H -63.56388739 -0.71200058 -8.64122806     6    195    0    0    0
C -59.78514333 -1.08416252 -10.21912742     1    195   199   200   201
H -58.77812433 0.63338890 -9.69120543     6    198    0    0    0
H -58.92251311 -1.71246372 -11.89540679     6    198    0    0    0
H -59.45812998 -2.41705238 -8.75265908     6    198    0    0    0
H -88.28489701 -18.99839487 -1.70273456     6     203    0    0    0 
C -88.60255173 -18.24926003 -3.54540195     1     202    204    205    206
H -87.78900407 -19.40526947 -5.07787579     6     203    0    0    0
H -90.54621761 -18.09735929 -4.18893912     6     203    0    0    0
C -87.62344564 -15.47043683 -3.96366826     2     203    207    208    209
H -85.65012998 -15.51332670 -3.82069079     6     206    0    0    0
H -87.99574286 -14.99120271 -5.92314045     6     206    0    0    0
C -88.80815874 -13.47132139 -2.15475956     2     206    210   211   212
H -87.83989135 -11.75385967 -2.45198507     6     209    0    0    0
H -90.79981025 -13.13287428 -2.71731155     6     209    0    0    0
C -88.63184597 -14.28432846 0.62133338     2     209   213   214   215
H -90.22334787 -15.65123021 0.96790816     6    212    0    0    0
H -86.88245034 -15.25128136 0.82535242     6    212    0    0    0
C -88.52918709 -11.98573686 2.47831419     2    212   216   217   218
H -87.21503834 -10.61507806 1.67316444     6    215    0    0    0
H -90.45478301 -11.12575984 2.73442934     6    215    0    0    0
C -87.41956193 -12.64122207 5.10448204     2    215   219   220   221
H -88.11869007 -14.31671150 6.00267530     6    218    0    0    0
H -85.43852026 -13.03012324 4.61459214     6    218    0    0    0
C -87.41989789 -10.30776559 6.71919019     2    218   222   223   224
H -86.39841847 -8.75249843 5.81640519     6    221    0    0    0
H -89.32717232 -9.72333391 6.93768289     6    221    0    0    0
C -85.95178586 -10.49224899 9.27370443     2    221   225   226   227
H -86.86602548 -11.85089922 10.45259770     6    224    0    0    0
H -83.97725628 -11.16491287 8.92831960     6    224    0    0    0
C -85.80356444 -7.98438057 10.72057181     2    224   228   229   230
H -84.87393900 -6.51255487 9.67817154     6    227    0    0    0
H -87.66427538 -7.35046163 11.01706682     6    227    0    0    0
C -84.48920469 -8.56106405 13.23484503     2    227   231   232   233
H -85.36972264 -10.08202146 14.26064096     6    230    0    0    0
H -82.62597652 -9.17464927 12.63895018     6    230    0    0    0
C -84.35994240 -6.41443671 15.18438849     2    230   234   235   236
H -83.97611647 -4.68964032 14.17707920     6    233    0    0    0
H -86.19554192 -6.17596994 16.04856105     6    233    0    0    0
C -82.43438858 -6.98757046 17.28179322     1    233   237   238   239
H -83.34102032 -6.13440511 18.93582787     6    236    0    0    0
H -80.65148142 -5.96244475 17.10390000     6    236    0    0    0
H -82.21234835 -8.94794964 17.72237452     6    236    0    0    0
H -88.65166262 -34.18313310 1.17867638     6     241    0    0    0 
C -87.01316150 -35.31979680 0.61565119     1     240    242    243    244
H -86.50368463 -34.74736703 -1.24093510     6     241    0    0    0
H -85.52639926 -34.90677874 2.01143989     6     241    0    0    0
C -87.63025183 -38.24518350 0.66074290     2     241    245    246    247
H -88.92377862 -38.68356562 -0.80336312     6     244    0    0    0
H -85.92556006 -39.17382545 0.59363018     6     244    0    0    0
C -89.22392083 -38.85233489 2.94929260     2     244    248   249   250
H -88.16717989 -38.44936711 4.62532572     6     247    0    0    0
H -91.01555285 -37.76693006 3.05807404     6     247    0    0    0
C -89.91661390 -41.71358959 3.08706348     2     247   251   252   253
H -91.62190246 -41.87006665 4.40848436     6    250    0    0    0
H -90.53755624 -42.40099307 1.25293882     6    250    0    0    0
C -87.58256432 -43.25120828 4.06960364     2    250   254   255   256
H -85.80197521 -42.27660588 3.55886804     6    253    0    0    0
H -87.61555720 -43.32918488 6.17389013     6    253    0    0    0
C -87.44990960 -46.00037783 3.13487863     2    253   257   258   259
H -85.91994874 -47.06206525 4.02642784     6    256    0    0    0
H -89.18182593 -46.86335538 3.64518676     6    256    0    0    0
C -86.73287011 -46.27678012 0.36153494     2    256   260   261   262
H -87.90117699 -45.10823658 -0.88825866     6    259    0    0    0
H -84.97801064 -45.21707905 0.15146370     6    259    0    0    0
C -86.43307033 -49.11070411 -0.18352731     2    259   263   264   265
H -85.39205441 -50.09276782 1.41845476     6    262    0    0    0
H -88.33429955 -49.87076871 -0.26784549     6    262    0    0    0
C -84.96630962 -49.69595624 -2.46443052     2    262   266   267   268
H -85.19182947 -48.09663443 -3.81127645     6    265    0    0    0
H -83.05553205 -49.81684229 -1.87679150     6    265    0    0    0
C -85.56951803 -52.14282214 -3.81206419     2    265   269   270   271
H -85.28864176 -53.71252934 -2.51700645     6    268    0    0    0
H -87.66750283 -52.02020542 -4.31085856     6    268    0    0    0
C -83.79389818 -52.54214710 -6.17966961     2    268   272   273   274
H -85.09596117 -53.17832081 -7.73154628     6    271    0    0    0
H -83.38987286 -50.69294259 -6.70035243     6    271    0    0    0
C -81.35282349 -53.89912677 -5.66098844     1    271   275   276   277
H -80.35879178 -53.11440936 -3.99519775     6    274    0    0    0
H -80.11008330 -54.06896590 -7.20964052     6    274    0    0    0
H -81.94373010 -55.71779186 -4.98925590     6    274    0    0    0
H -82.07339140 -25.40366107 -12.97158387     6     279    0    0    0 
C -83.96797529 -26.11414086 -12.27617393     1     278    280    281    282
H -85.50655375 -24.81263069 -12.62748304     6     279    0    0    0
H -84.47107196 -27.92685110 -13.00922337     6     279    0    0    0
C -84.01467766 -26.27829495 -9.43245381     2     279    283    284    285
H -82.95562541 -27.94538108 -8.99436522     6     282    0    0    0
H -83.11120681 -24.62264056 -8.79141089     6     282    0    0    0
C -86.58603630 -26.61930960 -8.13657743     2     282    286   287   288
H -88.11487368 -25.44526975 -8.92862671     6     285    0    0    0
H -87.47763775 -28.54379200 -8.42396713     6     285    0    0    0
C -86.35464697 -25.98389591 -5.29617115     2     285   289   290   291
H -84.58274450 -26.31557081 -4.53406135     6    288    0    0    0
H -86.56624843 -23.93367347 -5.04258960     6    288    0    0    0
C -88.11677750 -27.51887836 -3.47639868     2    288   292   293   294
H -89.97363926 -26.88285500 -4.07209365     6    291    0    0    0
H -88.08172120 -29.56310379 -3.63868486     6    291    0    0    0
C -87.59197386 -26.85637744 -0.67951764     2    291   295   296   297
H -85.67885379 -27.33848060 -0.18363246     6    294    0    0    0
H -87.62823651 -24.90334652 -0.19446314     6    294    0    0    0
C -89.33886866 -28.22726276 1.16627128     2    294   298   299   300
H -91.27179047 -27.84134129 0.68531073     6    297    0    0    0
H -89.36829873 -30.26059260 0.72053198     6    297    0    0    0
C -88.55061357 -27.87187517 3.94782384     2    297   301   302   303
H -86.51220566 -28.22856983 4.21704360     6    300    0    0    0
H -88.71644932 -25.85105764 4.35754808     6    300    0    0    0
C -90.30648178 -29.17597543 5.78864251     2    300   304   305   306
H -92.25778316 -28.99369530 5.15534541     6    303    0    0    0
H -89.99464264 -31.14546688 5.46784350     6    303    0    0    0
C -89.72797919 -28.79744605 8.50162166     2    303   307   308   309
H -87.83851242 -28.89614517 8.73201390     6    306    0    0    0
H -90.24594343 -26.84339994 9.15549412     6    306    0    0    0
C -91.27621524 -30.41233679 10.26291220     2    306   310   311   312
H -93.23777957 -30.47212611 9.71789438     6    309    0    0    0
H -90.75715349 -32.33189800 10.23856939     6    309    0    0    0
C -91.06116383 -29.68536105 13.11899833     1    309   313   314   315
H -91.08027424 -27.69940140 13.56105341     6    312    0    0    0
H -89.42617384 -30.66934680 14.01862189     6    312    0    0    0
H -92.77489053 -30.31283500 13.87960822     6    312    0    0    0
H -64.03114663 -16.40413798 -23.34619399     6     317    0    0    0 
C -62.54269780 -17.54326756 -24.06027660     1     316    318    319    320
H -63.18950505 -19.50238562 -24.60495335     6     317    0    0    0
H -61.75098235 -16.67608259 -25.70089358     6     317    0    0    0
C -60.76240956 -18.07913017 -21.87568037     2     317    321    322    323
H -59.14689637 -19.15434995 -22.71735907     6     320    0    0    0
H -59.99722072 -16.23865843 -21.19101439     6     320    0    0    0
C -62.04516249 -19.38152653 -19.73148403     2     320    324   325   326
H -63.22010527 -18.05851766 -18.53454718     6     323    0    0    0
H -63.43217516 -20.63715611 -20.63686318     6     323    0    0    0
C -59.93238698 -20.66839901 -18.04531620     2     323   327   328   329
H -59.63173038 -22.61424624 -18.85447654     6    326    0    0    0
H -58.28708061 -19.49087066 -17.69931353     6    326    0    0    0
C -60.83921076 -21.10467887 -15.47680762     2    326   330   331   332
H -61.07251656 -19.32864464 -14.47895556     6    329    0    0    0
H -62.52675952 -22.21851500 -15.46562656     6    329    0    0    0
C -59.03855668 -22.79570076 -14.12722690     2    329   333   334   335
H -59.88604817 -24.64235938 -13.74963765     6    332    0    0    0
H -57.29848742 -23.31169327 -15.10780431     6    332    0    0    0
C -58.45830948 -22.17438388 -11.39385451     2    332   336   337   338
H -57.76571643 -20.20900030 -11.19145324     6    335    0    0    0
H -60.06485339 -22.75147826 -10.22000459     6    335    0    0    0
C -56.36938575 -23.79859484 -10.17861836     2    335   339   340   341
H -56.72249825 -25.85007933 -10.28212626     6    338    0    0    0
H -54.46390544 -23.33571670 -10.97935849     6    338    0    0    0
C -56.13691779 -23.21116415 -7.39310276     2    338   342   343   344
H -55.76699659 -21.19259874 -7.36905974     6    341    0    0    0
H -58.01061022 -23.35467142 -6.42541586     6    341    0    0    0
C -54.01184503 -24.64997468 -6.15174592     2    341   345   346   347
H -54.64859593 -26.62664220 -6.28240439     6    344    0    0    0
H -52.25266734 -24.53669644 -7.22328410     6    344    0    0    0
C -53.65373345 -23.78429521 -3.28780405     2    344   348   349   350
H -53.17629261 -21.79756303 -3.31285781     6    347    0    0    0
H -55.57592463 -24.05263190 -2.29062054     6    347    0    0    0
C -51.46236049 -25.14940740 -1.81500588     1    347   351   352   353
H -52.04868626 -27.08866314 -1.55943389     6    350    0    0    0
H -51.10591913 -24.19544935 0.01080069     6    350    0    0    0
H -49.70873790 -25.32689033 -2.90047565     6    350    0    0    0
H -77.16379248 -37.88537637 -4.75840161     6     355    0    0    0 
C -77.56423920 -35.95140983 -4.10246149     1     354    356    357    358
H -79.42373158 -36.06407863 -3.33566902     6     355    0    0    0
H -76.49325002 -35.75890550 -2.43708188     6     355    0    0    0
C -77.37056687 -33.91525497 -6.16905034     2     355    359    360    361
H -75.69955717 -33.99014347 -7.42183716     6     358    0    0    0
H -79.00475880 -34.08585701 -7.34282327     6     358    0    0    0
C -77.47874160 -31.14969973 -4.97642330     2     358    362   363   364
H -79.08751328 -30.81740982 -3.79391683     6     361    0    0    0
H -75.76079452 -30.64939251 -4.00228007     6     361    0    0    0
C -77.94259842 -29.29106516 -7.22186438     2     361   365   366   367
H -76.46870204 -29.65541754 -8.68748120     6    364    0    0    0
H -79.79825223 -29.95524328 -7.80650049     6    364    0    0    0
C -78.18597053 -26.53171915 -6.44026250     2    364   368   369   370
H -79.98744204 -26.02885929 -5.51716035     6    367    0    0    0
H -76.67721400 -25.97319094 -5.00237099     6    367    0    0    0
C -77.68224725 -24.65112971 -8.61758507     2    367   371   372   373
H -78.46785703 -25.51710770 -10.29360277     6    370    0    0    0
H -78.87832666 -22.82712802 -8.46247015     6    370    0    0    0
C -74.88057832 -23.91933734 -9.14427229     2    370   374   375   376
H -74.16599471 -22.44793484 -7.75781409     6    373    0    0    0
H -73.89007743 -25.70346985 -8.89179460     6    373    0    0    0
C -74.59661089 -22.81536385 -11.69470410     2    373   377   378   379
H -74.69794291 -24.06986749 -13.33462181     6    376    0    0    0
H -76.17688880 -21.52014702 -11.90143232     6    376    0    0    0
C -72.05540149 -21.57994546 -11.96211459     2    376   380   381   382
H -71.58087386 -20.22304410 -10.33748009     6    379    0    0    0
H -70.55466304 -23.14302295 -11.94579239     6    379    0    0    0
C -71.73925063 -20.08684434 -14.45190545     2    379   383   384   385
H -71.99351276 -21.32314552 -16.01473695     6    382    0    0    0
H -73.31280652 -18.71007923 -14.61340065     6    382    0    0    0
C -69.26264770 -18.67847281 -14.59142597     2    382   386   387   388
H -69.20142710 -17.40902129 -13.07719498     6    385    0    0    0
H -67.62867288 -19.95486923 -14.23932479     6    385    0    0    0
C -68.81114939 -17.28530118 -17.15809726     1    385   389   390   391
H -67.38359192 -18.19466754 -18.23207437     6    388    0    0    0
H -68.18907230 -15.35145190 -16.70815963     6    388    0    0    0
H -70.54827154 -17.32344599 -18.35682988     6    388    0    0    0
H -40.08796381 -42.05661818 25.03620016     6     393    0    0    0 
C -41.82579643 -41.01605453 24.67043042     1     392    394    395    396
H -42.29999014 -40.26822866 26.53155588     6     393    0    0    0
H -41.50205280 -39.28377706 23.63161386     6     393    0    0    0
C -43.96456254 -42.56817402 23.69986981     2     393    397    398    399
H -43.45068017 -43.45828248 21.87646742     6     396    0    0    0
H -44.08147268 -44.30720435 24.66566599     6     396    0    0    0
C -46.35175835 -41.11440318 23.26327440     2     396    400   401   402
H -46.98030772 -39.87783899 24.73672015     6     399    0    0    0
H -46.12639779 -39.98689266 21.62157572     6     399    0    0    0
C -48.42331192 -43.14601831 22.79059871     2     399   403   404   405
H -48.01690102 -44.07121974 21.04214393     6    402    0    0    0
H -48.65966271 -44.59026531 24.26122051     6    402    0    0    0
C -51.01666194 -41.84967045 22.49547000     2    402   406   407   408
H -51.92398119 -41.61167845 24.33525375     6    405    0    0    0
H -50.98585309 -40.01809966 21.42561602     6    405    0    0    0
C -53.09849680 -43.20055866 20.92330001     2    405   409   410   411
H -52.00502623 -43.49099693 19.16668663     6    408    0    0    0
H -53.65942077 -44.97292448 21.83241326     6    408    0    0    0
C -55.32209345 -41.61492070 20.12247806     2    408   412   413   414
H -54.68701497 -39.71366061 20.05184561     6    411    0    0    0
H -55.69892583 -41.89642212 18.14831646     6    411    0    0    0
C -57.78462013 -42.02431594 21.63344819     2    411   415   416   417
H -58.16895538 -44.05637329 21.48648379     6    414    0    0    0
H -57.36911785 -41.55557956 23.52903780     6    414    0    0    0
C -60.00239170 -40.42591426 20.68139860     2    414   418   419   420
H -59.85465134 -38.54363351 21.36772614     6    417    0    0    0
H -59.96947728 -40.23872554 18.64079061     6    417    0    0    0
C -62.70847387 -41.54386155 21.16542066     2    417   421   422   423
H -64.09127883 -40.41453060 20.25995662     6    420    0    0    0
H -63.10787202 -43.37975870 20.32604136     6    420    0    0    0
C -63.24295563 -41.47203883 23.90047062     2    420   424   425   426
H -62.15643516 -42.83270651 24.98794588     6    423    0    0    0
H -62.64057248 -39.37671818 24.26175987     6    423    0    0    0
C -65.95524047 -41.98828191 24.70425928     1    423   427   428   429
H -66.03930070 -41.67432991 26.86606588     6    426    0    0    0
H -66.50147713 -44.06829456 24.39090950     6    426    0    0    0
H -67.34033661 -40.78977607 23.53551765     6    426    0    0    0
H -65.86537498 -55.12343891 5.30291585     6     431    0    0    0 
C -64.22850850 -55.75474906 4.28112888     1     430    432    433    434
H -63.62319505 -57.63007524 4.83975062     6     431    0    0    0
H -64.86345243 -55.86160230 2.36255774     6     431    0    0    0
C -61.97335220 -54.14793475 4.56255910     2     431    435    436    437
H -62.40916058 -52.28632090 3.93681431     6     434    0    0    0
H -61.41534209 -54.28071869 6.44822412     6     434    0    0    0
C -59.78474272 -55.06713335 2.73764811     2     434    438   439   440
H -58.68062476 -56.82470467 3.14964930     6     437    0    0    0
H -60.88176852 -55.23945894 0.96955190     6     437    0    0    0
C -57.70894879 -52.94249240 2.08821084     2     437   441   442   443
H -57.41793074 -53.31051218 0.11546425     6    440    0    0    0
H -58.43618194 -51.00012272 2.55321597     6    440    0    0    0
C -55.20854471 -53.37835607 3.66779277     2    440   444   445   446
H -55.68419607 -53.45141345 5.66133049     6    443    0    0    0
H -54.42603243 -55.31500375 3.38233668     6    443    0    0    0
C -53.04669355 -51.57883277 3.02640029     2    443   447   448   449
H -52.64202546 -51.58800978 1.06769859     6    446    0    0    0
H -53.55207911 -49.65727880 3.53560293     6    446    0    0    0
C -50.77246923 -52.23929933 4.55999586     2    446   450   451   452
H -51.07150852 -51.66678056 6.47805543     6    449    0    0    0
H -50.29811647 -54.21294871 4.49225686     6    449    0    0    0
C -48.63167574 -50.47804929 3.72688274     2    449   453   454   455
H -48.28244472 -50.64854204 1.66740242     6    452    0    0    0
H -49.19583034 -48.49802967 3.82610772     6    452    0    0    0
C -46.14798101 -51.03705508 5.17806740     2    452   456   457   458
H -46.41205856 -50.93494390 7.28676839     6    455    0    0    0
H -45.86141098 -53.05175120 4.79776782     6    455    0    0    0
C -43.51995214 -49.82735211 4.44258377     2    455   459   460   461
H -42.11836693 -50.61541871 5.63792730     6    458    0    0    0
H -42.95190528 -50.35919621 2.40535837     6    458    0    0    0
C -43.36329561 -47.04927243 4.78048949     2    458   462   463   464
H -44.94569736 -46.13383428 3.76587640     6    461    0    0    0
H -43.30270475 -46.51271375 6.78935467     6    461    0    0    0
C -41.07188353 -45.68704587 3.70846599     1    461   465   466   467
H -40.33960822 -46.47454380 1.95459243     6    464    0    0    0
H -39.54784583 -45.71629129 5.01390178     6    464    0    0    0
H -41.21295531 -43.65551606 3.57748773     6    464    0    0    0
H -69.20297989 -23.93997879 -19.78638203     6     469    0    0    0 
C -67.45897490 -25.04899888 -19.52620999     1     468    470    471    472
H -67.10468055 -26.02447728 -21.38596378     6     469    0    0    0
H -65.92295644 -23.74597746 -19.18825222     6     469    0    0    0
C -67.59507180 -26.90043499 -17.28155116     2     469    473    474    475
H -65.81346859 -27.92912399 -17.22588655     6     472    0    0    0
H -67.88134946 -25.79069087 -15.55450837     6     472    0    0    0
C -69.81433467 -28.70243560 -17.43792463     2     472    476   477   478
H -71.58437714 -27.69560036 -17.64029480     6     475    0    0    0
H -69.76598743 -29.86960773 -19.08942850     6     475    0    0    0
C -69.83491808 -30.41761762 -15.09012747     2     475   479   480   481
H -67.88944152 -31.00707599 -14.84025801     6    478    0    0    0
H -70.10544938 -29.41459758 -13.27164745     6    478    0    0    0
C -71.79068483 -32.55648943 -15.24649298     2    478   482   483   484
H -73.66007334 -31.96163044 -15.26190704     6    481    0    0    0
H -71.50264676 -33.68574775 -16.94432590     6    481    0    0    0
C -71.57749184 -34.35564538 -12.99126894     2    481   485   486   487
H -69.69164223 -34.76345850 -12.74915609     6    484    0    0    0
H -72.04109401 -33.54557187 -11.27902392     6    484    0    0    0
C -73.27287550 -36.68824132 -13.22396779     2    484   488   489   490
H -75.26702737 -36.10225557 -13.42064918     6    487    0    0    0
H -72.96707128 -37.41560146 -15.02568860     6    487    0    0    0
C -72.68505952 -38.80235838 -11.39781389     2    487   491   492   493
H -71.39115683 -40.07833982 -12.43141897     6    490    0    0    0
H -71.56922343 -38.48696999 -9.68208430     6    490    0    0    0
C -74.96615621 -40.49951640 -10.71883870     2    490   494   495   496
H -76.33158471 -39.52001103 -9.44440402     6    493    0    0    0
H -75.92895625 -40.68038887 -12.49299138     6    493    0    0    0
C -74.31666068 -43.13109005 -9.84577572     2    493   497   498   499
H -72.70932464 -43.98271159 -11.01014371     6    496    0    0    0
H -73.46968906 -42.80933589 -8.08622772     6    496    0    0    0
C -76.67439514 -44.79488256 -9.52138274     2    496   500   501   502
H -77.74034698 -44.32050239 -7.91835474     6    499    0    0    0
H -77.90921107 -44.52451597 -11.18671687     6    499    0    0    0
C -76.04670430 -47.62030750 -9.29094650     1    499   503   504   505
H -77.70817838 -49.00305122 -9.12206908     6    502    0    0    0
H -75.14699744 -47.98221291 -7.53080444     6    502    0    0    0
H -74.52265296 -48.31794726 -10.54952803     6    502    0    0    0
H -75.54227474 -60.07632304 2.08373008     6     507    0    0    0 
C -75.48197367 -60.67771525 4.01242320     1     506    508    509    510
H -77.38109315 -60.93143028 4.58248902     6     507    0    0    0
H -74.79774132 -62.54976275 4.05501325     6     507    0    0    0
C -74.39899595 -58.80047756 5.89791019     2     507    511    512    513
H -72.33329670 -58.35831622 5.52923185     6     510    0    0    0
H -75.42708391 -57.06849813 6.00367359     6     510    0    0    0
C -74.45882644 -59.91374434 8.53290278     2     510    514   515   516
H -76.50560889 -60.29984407 8.99051462     6     513    0    0    0
H -73.35380997 -61.55517073 8.68753560     6     513    0    0    0
C -73.45291721 -57.95237946 10.55000904     2     513   517   518   519
H -74.23156073 -56.12072849 10.26312612     6    516    0    0    0
H -73.81931831 -58.48174219 12.46202444     6    516    0    0    0
C -70.62146171 -57.51778529 10.41096903     2    516   520   521   522
H -69.45664385 -59.18913581 10.71687191     6    519    0    0    0
H -70.05476462 -56.69740790 8.61687247     6    519    0    0    0
C -69.74981969 -55.57203864 12.35430964     2    519   523   524   525
H -71.15127755 -54.02407985 12.73256443     6    522    0    0    0
H -69.88776397 -56.64119675 14.23373311     6    522    0    0    0
C -67.14332067 -54.52368811 11.80441022     2    522   526   527   528
H -65.84928246 -55.98719860 11.31310928     6    525    0    0    0
H -67.43860146 -53.62974712 10.02447946     6    525    0    0    0
C -66.38535687 -52.58861429 13.90852587     2    525   529   530   531
H -67.83911325 -51.08143836 14.09298206     6    528    0    0    0
H -66.19184685 -53.54840715 15.73591848     6    528    0    0    0
C -64.04074110 -51.27352946 13.03635116     2    528   532   533   534
H -62.45131282 -52.50466189 12.63076209     6    531    0    0    0
H -64.15613752 -50.22833087 11.35172041     6    531    0    0    0
C -63.39038716 -49.38035028 15.13172757     2    531   535   536   537
H -64.94027714 -47.92726077 15.04166407     6    534    0    0    0
H -63.49961449 -50.12721033 16.91029934     6    534    0    0    0
C -60.77757020 -48.13804843 14.64198570     2    534   538   539   540
H -59.39379911 -49.65782365 14.21132236     6    537    0    0    0
H -60.97519140 -47.04556625 12.90007823     6    537    0    0    0
C -59.87993147 -46.36997859 16.77132064     1    537   541   542   543
H -57.85260027 -46.07370565 16.55056568     6    540    0    0    0
H -60.10293316 -47.27231464 18.53500238     6    540    0    0    0
H -61.11295152 -44.71723347 16.92021693     6    540    0    0    0
H -50.80366056 -40.56288827 5.84309861     6     545    0    0    0 
C -51.56084355 -38.58675782 5.90376332     1     544    546    547    548
H -52.72114910 -38.11210732 4.26578669     6     545    0    0    0
H -52.79675269 -38.64064443 7.57623766     6     545    0    0    0
C -49.31522888 -36.82211778 6.15730396     2     545    549    550    551
H -48.01546524 -37.78040389 7.56877833     6     548    0    0    0
H -48.04277085 -36.81943769 4.56628539     6     548    0    0    0
C -50.06309146 -34.16444212 6.78670047     2     548    552   553   554
H -52.00927859 -33.79860901 6.23973562     6     551    0    0    0
H -49.94686735 -33.94560677 8.90886058     6     551    0    0    0
C -48.47994431 -32.04514382 5.70773056     2     551   555   556   557
H -46.53098830 -32.23273822 6.07172129     6    554    0    0    0
H -48.97448305 -31.93445688 3.66066858     6    554    0    0    0
C -49.40931721 -29.47535187 6.84369350     2    554   558   559   560
H -51.43566258 -29.22975542 6.54854121     6    557    0    0    0
H -49.00849795 -29.54870502 8.85737855     6    557    0    0    0
C -48.01705887 -27.22516495 5.69325929     2    557   561   562   563
H -45.89209787 -27.69614702 5.73178155     6    560    0    0    0
H -48.62109202 -27.09273790 3.73871279     6    560    0    0    0
C -48.74496660 -24.53983903 6.82851165     2    560   564   565   566
H -50.69372936 -24.30232368 6.69629570     6    563    0    0    0
H -48.18785874 -24.15307999 8.70318261     6    563    0    0    0
C -47.49242090 -22.40994847 5.42391745     2    563   567   568   569
H -45.48946659 -22.47809877 5.38722953     6    566    0    0    0
H -47.98444793 -22.50695077 3.39439686     6    566    0    0    0
C -48.55574513 -19.96245217 6.42101177     2    566   570   571   572
H -50.65567720 -20.18429267 6.66019517     6    569    0    0    0
H -47.72655619 -19.60476622 8.21539990     6    569    0    0    0
C -47.89403981 -17.60273108 4.85734306     2    569   573   574   575
H -46.22952829 -18.05359672 3.70114523     6    572    0    0    0
H -49.43661305 -17.12735678 3.60026409     6    572    0    0    0
C -47.24612768 -15.56464978 6.86821698     2    572   576   577   578
H -45.81387290 -16.23592361 8.16715581     6    575    0    0    0
H -46.28377053 -13.80818896 6.00334422     6    575    0    0    0
C -49.56656317 -14.72306400 8.31717708     1    575   579   580   581
H -50.90461246 -14.16844620 6.90842789     6    578    0    0    0
H -49.29427419 -13.02447592 9.41591526     6    578    0    0    0
H -50.43801714 -16.22035637 9.60345148     6    578    0    0    0
H -78.42147618 -17.78001245 -2.88744807     6     583    0    0    0 
C -78.40058614 -18.13930822 -4.85575538     1     582    584    585    586
H -79.10655159 -19.94625721 -5.36169176     6     583    0    0    0
H -79.62243737 -16.71243401 -5.84066875     6     583    0    0    0
C -75.72925785 -17.77617494 -5.95809229     2     583    587    588    589
H -74.38619581 -19.36096880 -5.64828905     6     586    0    0    0
H -75.74393286 -17.94944261 -8.05463834     6     586    0    0    0
C -74.53135844 -15.34667996 -5.06295262     2     586    590   591   592
H -75.69987042 -13.66435539 -5.46315290     6     589    0    0    0
H -74.30761973 -15.44505192 -3.10723944     6     589    0    0    0
C -71.86572664 -14.95527824 -6.20781950     2     589   593   594   595
H -70.47555839 -16.25929289 -5.20258096     6    592    0    0    0
H -71.89762538 -15.35113218 -8.24292710     6    592    0    0    0
C -70.78489483 -12.29196842 -5.70874513     2    592   596   597   598
H -71.68752591 -10.92467688 -7.03817062     6    595    0    0    0
H -71.19911187 -11.58931860 -3.78962956     6    595    0    0    0
C -67.78929539 -12.35195161 -6.09234757     2    595   599   600   601
H -66.87490403 -13.86642379 -4.95136381     6    598    0    0    0
H -67.25417836 -12.33451470 -8.08329271     6    598    0    0    0
C -66.44862490 -9.96528000 -5.06104128     2    598   602   603   604
H -66.82635003 -8.39912262 -6.47403959     6    601    0    0    0
H -67.40381091 -9.00698652 -3.44716782     6    601    0    0    0
C -63.55027418 -10.13109422 -4.75183407     2    601   605   606   607
H -63.06559685 -11.55940663 -3.38218027     6    604    0    0    0
H -62.64442221 -10.63639557 -6.59340548     6    604    0    0    0
C -62.43886994 -7.60284512 -3.76244580     2    604   608   609   610
H -62.72877115 -6.14387596 -5.17917667     6    607    0    0    0
H -63.20322252 -6.74965750 -1.99987765     6    607    0    0    0
C -59.50314923 -7.83850501 -3.19366585     2    607   611   612   613
H -58.93318826 -9.12415629 -1.58715234     6    610    0    0    0
H -58.92027653 -8.77026642 -4.88718433     6    610    0    0    0
C -58.22601599 -5.21866505 -2.81022902     2    610   614   615   616
H -58.87028060 -4.08175921 -4.39170878     6    613    0    0    0
H -58.94996790 -4.49276176 -0.98508580     6    613    0    0    0
C -55.40791797 -5.04522080 -2.80196265     1    613   617   618   619
H -54.49381669 -3.26768773 -2.76236389     6    616    0    0    0
H -54.46782967 -6.03851643 -4.24705968     6    616    0    0    0
H -54.83501610 -5.85902988 -0.96775998     6    616    0    0    0
H -61.08409844 -24.24723190 31.78138474     6     621    0    0    0 
C -62.55303799 -25.71617489 32.04548623     1     620    622    623    624
H -62.08679313 -27.47990105 31.09565463     6     621    0    0    0
H -62.58624904 -25.94208540 34.04325057     6     621    0    0    0
C -64.95484944 -24.26900987 31.26221750     2     621    625    626    627
H -66.56513450 -25.57681480 31.46112969     6     624    0    0    0
H -65.30946322 -22.75854974 32.35653161     6     624    0    0    0
C -64.65483987 -23.44172895 28.32813833     2     624    628   629   630
H -63.60985294 -21.60354405 28.22907653     6     627    0    0    0
H -63.20502416 -24.78312790 27.45994243     6     627    0    0    0
C -67.12019056 -23.42084994 26.84207725     2     627   631   632   633
H -67.20437108 -23.00482698 24.76186603     6    630    0    0    0
H -67.96769845 -25.16345687 27.19532365     6    630    0    0    0
C -68.93239210 -21.55122503 28.13062589     2    630   634   635   636
H -69.39603913 -22.29979421 29.88604134     6    633    0    0    0
H -67.84665010 -19.82920645 28.53201822     6    633    0    0    0
C -71.04635850 -20.86546487 26.46692373     2    633   637   638   639
H -70.41792159 -20.56041852 24.57502533     6    636    0    0    0
H -72.34986718 -22.33555924 26.31601258     6    636    0    0    0
C -72.60451655 -18.79655654 27.80051956     2    636   640   641   642
H -73.53331701 -19.61340103 29.54620752     6    639    0    0    0
H -71.29423910 -17.27846246 28.27122649     6    639    0    0    0
C -74.49859327 -17.94620415 25.89020016     2    639   643   644   645
H -73.42148499 -17.04107317 24.26330823     6    642    0    0    0
H -75.60336225 -19.56756060 25.19814495     6    642    0    0    0
C -76.24605864 -16.01779149 27.12735013     2    642   646   647   648
H -77.02356098 -16.39097726 28.96139237     6    645    0    0    0
H -74.96844323 -14.41727001 27.50981139     6    645    0    0    0
C -78.15557520 -15.07224724 25.28383195     2    645   649   650   651
H -77.18972984 -14.36061303 23.50946423     6    648    0    0    0
H -79.21579948 -16.74075213 24.70548446     6    648    0    0    0
C -79.97592276 -13.09680479 26.35905426     2    648   652   653   654
H -81.26978755 -13.97893777 27.67073867     6    651    0    0    0
H -78.81423697 -11.87503410 27.43111304     6    651    0    0    0
C -81.38202775 -11.99771872 24.15763020     1    651   655   656   657
H -82.43195503 -13.33237318 23.25083473     6    654    0    0    0
H -80.03786174 -11.39939342 22.72850193     6    654    0    0    0
H -82.43959497 -10.42957454 24.67956763     6    654    0    0    0
H -73.86118584 -18.80053210 6.91803807     6     659    0    0    0 
C -72.71193037 -18.82490993 5.22549310     1     658    660    661    662
H -70.67923538 -18.76309817 5.70678783     6     659    0    0    0
H -73.09935411 -20.65949481 4.36173605     6     659    0    0    0
C -73.42294304 -16.63315358 3.58569761     2     659    663    664    665
H -73.26389022 -17.27073566 1.61404849     6     662    0    0    0
H -75.40997149 -16.33329299 3.77611469     6     662    0    0    0
C -71.71157389 -14.26575215 3.93396123     2     662    666   667   668
H -72.66707433 -13.03098970 2.55195250     6     665    0    0    0
H -72.09121042 -13.70204129 5.90598614     6     665    0    0    0
C -68.95852140 -14.57595042 2.80735120     2     665   669   670   671
H -67.95031155 -16.26156108 3.41591493     6    668    0    0    0
H -69.16874065 -14.67748572 0.70976284     6    668    0    0    0
C -67.41633331 -12.41980425 3.59894598     2    668   672   673   674
H -68.10739570 -10.61304973 2.94020618     6    671    0    0    0
H -67.37890882 -12.18596097 5.52982826     6    671    0    0    0
C -64.67200342 -12.79183256 2.74470029     2    671   675   676   677
H -63.76704352 -14.47361641 3.27842714     6    674    0    0    0
H -64.68310706 -12.93899784 0.64564373     6    674    0    0    0
C -62.66602043 -10.84506768 3.38632158     2    674   678   679   680
H -61.09540942 -11.03040358 2.01503525     6    677    0    0    0
H -63.45193527 -8.86176645 3.01803595     6    677    0    0    0
C -61.52440704 -11.29949440 5.99092078     2    677   681   682   683
H -62.94471045 -11.11009998 7.39856930     6    680    0    0    0
H -60.97919055 -13.30511678 6.23631485     6    680    0    0    0
C -59.38033191 -9.46863310 6.72515433     2    680   684   685   686
H -59.83757618 -7.48335467 6.11465066     6    683    0    0    0
H -58.98833133 -9.63668691 8.72783150     6    683    0    0    0
C -56.89125071 -10.20022210 5.17225774     2    683   687   688   689
H -56.72626223 -12.32697942 4.90060473     6    686    0    0    0
H -56.97365584 -9.39574169 3.29503549     6    686    0    0    0
C -54.58663236 -9.08786355 6.41467121     2    686   690   691   692
H -55.02281265 -7.25117582 7.00649819     6    689    0    0    0
H -54.43385784 -10.13308308 8.13956513     6    689    0    0    0
C -52.08499037 -9.39115659 4.91035196     1    689   693   694   695
H -50.50028568 -8.88712644 6.05401118     6    692    0    0    0
H -52.13790504 -8.05456465 3.39495439     6    692    0    0    0
H -51.89460626 -11.34593865 4.07168441     6    692    0    0    0
H -44.12085086 -26.32523758 14.93456714     6     697    0    0    0 
C -43.89068677 -24.21465246 14.96907976     1     696    698    699    700
H -45.04761177 -23.54672737 13.35762331     6     697    0    0    0
H -44.61248110 -23.47259245 16.71208211     6     697    0    0    0
C -41.00867092 -23.61667710 14.77507083     2     697    701    702    703
H -40.53669924 -21.76500126 15.60030576     6     700    0    0    0
H -39.99574365 -24.76417594 16.08898583     6     700    0    0    0
C -39.90676963 -23.98937273 12.13203251     2     700    704   705   706
H -41.11920596 -23.16009047 10.69488098     6     703    0    0    0
H -38.10134982 -22.97610674 12.06604791     6     703    0    0    0
C -39.62066741 -26.80925712 11.40933139     2     703   707   708   709
H -38.64172316 -28.06360980 12.83715950     6    706    0    0    0
H -41.59230947 -27.53488795 11.29326484     6    706    0    0    0
C -38.17487183 -27.42210673 8.91546404     2    706   710   711   712
H -39.21292732 -26.78583679 7.26358562     6    709    0    0    0
H -36.19408549 -26.81631178 8.79377829     6    709    0    0    0
C -38.07850944 -30.31710539 8.45867456     2    709   713   714   715
H -36.79821449 -31.33997547 9.63180923     6    712    0    0    0
H -40.00554857 -31.12446903 8.66084981     6    712    0    0    0
C -37.12875978 -30.92756537 5.89039381     2    712   716   717   718
H -37.84551308 -29.62383371 4.51317125     6    715    0    0    0
H -35.14296851 -30.74739940 5.94776744     6    715    0    0    0
C -37.68629263 -33.61906493 4.87916830     2    715   719   720   721
H -36.60052302 -34.96716720 6.02208466     6    718    0    0    0
H -39.63045627 -34.38187151 5.30279283     6    718    0    0    0
C -36.80723636 -33.85110542 2.16657259     2    718   722   723   724
H -36.79619886 -31.83122421 1.37511427     6    721    0    0    0
H -34.78723404 -34.43291375 2.15175975     6    721    0    0    0
C -38.40808556 -35.62286844 0.57679551     2    721   725   726   727
H -39.17724076 -37.23443415 1.71441361     6    724    0    0    0
H -40.02100397 -34.55233364 0.10055769     6    724    0    0    0
C -37.09705138 -36.68306255 -1.77725764     2    724   728   729   730
H -35.47648035 -37.84808055 -1.42985280     6    727    0    0    0
H -38.54680429 -37.71336674 -2.68343687     6    727    0    0    0
C -36.24811734 -34.81990801 -3.91217897     1    727   731   732   733
H -35.58357765 -35.72447636 -5.49650903     6    730    0    0    0
H -35.05789641 -33.25637622 -3.28346341     6    730    0    0    0
H -38.00894840 -33.89097693 -4.36821166     6    730    0    0    0
H -55.87303397 -34.60473767 -16.19826337     6     735    0    0    0 
C -56.13939876 -32.72972227 -17.16264195     1     734    736    737    738
H -55.95499867 -31.42555599 -15.53561988     6     735    0    0    0
H -54.67461895 -32.31345244 -18.51797465     6     735    0    0    0
C -58.76632283 -32.38761577 -18.24774708     2     735    739    740    741
H -59.57845261 -30.42907139 -18.21002082     6     738    0    0    0
H -58.63507313 -32.99257141 -20.23126339     6     738    0    0    0
C -60.93363305 -34.08497014 -17.22660792     2     738    742   743   744
H -60.29209375 -35.95539626 -17.09339473     6     741    0    0    0
H -61.27282619 -33.77923157 -15.27874311     6     741    0    0    0
C -63.49089548 -33.96666136 -18.80622717     2     741   745   746   747
H -63.78654401 -31.96492446 -19.15754834     6    744    0    0    0
H -63.22995363 -34.68002885 -20.71556054     6    744    0    0    0
C -65.58207511 -35.24145063 -17.51233470     2    744   748   749   750
H -65.71804365 -34.52651178 -15.59405042     6    747    0    0    0
H -67.34614853 -34.95625503 -18.68652568     6    747    0    0    0
C -65.25325532 -38.10095704 -17.42446427     2    747   751   752   753
H -64.48808419 -38.76071359 -19.27429185     6    750    0    0    0
H -63.71352337 -38.49664182 -15.96993038     6    750    0    0    0
C -67.67438694 -39.48485761 -16.97742526     2    750   754   755   756
H -68.16229672 -39.02903173 -15.13653403     6    753    0    0    0
H -69.17707194 -38.63917769 -18.13391743     6    753    0    0    0
C -67.64933245 -42.38951511 -17.46919263     2    753   757   758   759
H -67.39076454 -42.65337566 -19.51694285     6    756    0    0    0
H -66.01959854 -43.43716161 -16.74470423     6    756    0    0    0
C -70.08683686 -43.67955443 -16.74347247     2    756   760   761   762
H -70.25851748 -43.73230804 -14.66036967     6    759    0    0    0
H -71.76839986 -42.48296966 -17.11905213     6    759    0    0    0
C -70.66306176 -46.54328312 -17.65099636     2    759   763   764   765
H -71.28629872 -46.47954165 -19.63953456     6    762    0    0    0
H -68.84571419 -47.43888199 -17.29207286     6    762    0    0    0
C -72.64079120 -48.03995182 -16.08385221     2    762   766   767   768
H -72.12082287 -47.91873186 -14.08594878     6    765    0    0    0
H -74.62081193 -47.18858158 -16.05835331     6    765    0    0    0
C -72.84206339 -51.01333484 -16.56798840     1    765   769   770   771
H -73.65107797 -51.40723558 -18.52243627     6    768    0    0    0
H -74.40730788 -51.55815653 -15.27429934     6    768    0    0    0
H -71.13218522 -52.01721813 -16.25356359     6    768    0    0    0
H -76.09353335 -31.32106244 33.09163278     6     773    0    0    0 
C -76.07801833 -32.64049520 34.70913991     1     772    774    775    776
H -75.39457640 -31.66258660 36.31388328     6     773    0    0    0
H -78.21134857 -33.02676242 34.94852794     6     773    0    0    0
C -74.62666738 -34.86053309 33.84044442     2     773    777    778    779
H -74.73388551 -36.41865514 35.11311614     6     776    0    0    0
H -75.43894885 -35.79459564 32.09328018     6     776    0    0    0
C -71.83722627 -34.11003252 33.42179809     2     776    780   781   782
H -71.56728736 -32.95354820 31.77222083     6     779    0    0    0
H -71.13551841 -32.86857553 35.05829695     6     779    0    0    0
C -70.12106347 -36.38303373 32.55561590     2     779   783   784   785
H -70.25706867 -37.98311231 33.79984460     6    782    0    0    0
H -70.76508244 -37.28198679 30.90570519     6    782    0    0    0
C -67.32344816 -35.55234807 32.61632933     2    782   786   787   788
H -66.85912451 -33.52150200 32.33111319     6    785    0    0    0
H -66.75761495 -35.61567045 34.55008909     6    785    0    0    0
C -65.63631146 -37.47450101 31.33252893     2    785   789   790   791
H -66.19816309 -39.42829618 32.02770355     6    788    0    0    0
H -66.05302680 -37.33902990 29.29005281     6    788    0    0    0
C -62.83374577 -37.07392204 31.51476600     2    788   792   793   794
H -62.44487821 -35.23806217 30.84249472     6    791    0    0    0
H -62.15069382 -36.84010697 33.48761617     6    791    0    0    0
C -61.13962417 -39.23561344 30.32251181     2    791   795   796   797
H -62.12966262 -40.84219883 30.98725072     6    794    0    0    0
H -61.23397490 -39.14084047 28.25088975     6    794    0    0    0
C -58.41949123 -39.31216051 31.28409794     2    794   798   799   800
H -57.63354204 -37.49360968 31.35415194     6    797    0    0    0
H -58.40830759 -40.09570029 33.19791692     6    797    0    0    0
C -56.86909859 -41.16522315 29.68273226     2    797   801   802   803
H -57.98686676 -42.87695902 29.34802304     6    800    0    0    0
H -56.45640688 -40.35783148 27.76627563     6    800    0    0    0
C -54.29722665 -41.66342776 30.83047893     2    800   804   805   806
H -53.07740900 -39.88721552 30.70947942     6    803    0    0    0
H -54.59391134 -41.80442399 32.86664716     6    803    0    0    0
C -52.99390030 -43.92353246 29.75731326     1    803   807   808   809
H -51.07704519 -44.19660157 30.31249830     6    806    0    0    0
H -52.93945872 -43.64280361 27.70449905     6    806    0    0    0
H -54.21221728 -45.55103914 29.78249304     6    806    0    0    0
H -76.79038276 -22.10183312 -0.28833787     6     811    0    0    0 
C -78.81381031 -22.52792992 -0.23845017     1     810    812    813    814
H -79.82621740 -20.81178928 0.28219079     6     811    0    0    0
H -79.56855941 -23.22068667 -2.06269450     6     811    0    0    0
C -79.07391968 -24.36679708 1.93488974     2     811    815    816    817
H -78.36563951 -23.72799186 3.79241107     6     814    0    0    0
H -81.11662075 -24.92038250 2.18552937     6     814    0    0    0
C -77.73348371 -26.84986744 1.52988525     2     814    818   819   820
H -78.49671971 -28.09488615 0.18444025     6     817    0    0    0
H -75.77307348 -26.61978281 0.89197945     6     817    0    0    0
C -77.46996499 -28.69851715 3.80008044     2     817   821   822   823
H -76.10355135 -30.23654191 3.46590816     6    820    0    0    0
H -76.54675752 -27.65939606 5.23605287     6    820    0    0    0
C -79.85232998 -29.91534980 4.63366294     2    820   824   825   826
H -80.75104105 -28.49400783 5.72912499     6    823    0    0    0
H -81.04236813 -30.55547160 3.05866431     6    823    0    0    0
C -79.84640916 -32.12198721 6.58399413     2    823   827   828   829
H -79.09086779 -33.77653991 5.66626488     6    826    0    0    0
H -78.37564386 -31.69563598 8.04323493     6    826    0    0    0
C -82.52622558 -32.47363160 7.71519451     2    826   830   831   832
H -83.03557442 -30.84125596 8.92335606     6    829    0    0    0
H -83.81229422 -32.56755260 6.13346364     6    829    0    0    0
C -82.76128616 -35.03801548 9.22938807     2    829   833   834   835
H -82.53874036 -36.75197938 7.96944853     6    832    0    0    0
H -81.20395449 -35.41318022 10.62835715     6    832    0    0    0
C -85.29407496 -35.16155827 10.60841364     2    832   836   837   838
H -85.51703352 -33.43990184 11.58975237     6    835    0    0    0
H -86.85627703 -35.28197041 9.15805153     6    835    0    0    0
C -85.51482767 -37.43112706 12.41352474     2    835   839   840   841
H -86.35272945 -39.08555144 11.43847651     6    838    0    0    0
H -83.73607700 -38.12494558 13.13586423     6    838    0    0    0
C -87.08369205 -36.70747678 14.75192007     2    838   842   843   844
H -86.20349204 -35.10563089 15.81016814     6    841    0    0    0
H -89.03127066 -36.11568262 14.37138206     6    841    0    0    0
C -87.32911753 -38.88117486 16.53672577     1    841   845   846   847
H -87.91677265 -40.66097800 15.48251078     6    844    0    0    0
H -88.55036678 -38.73524252 18.21357627     6    844    0    0    0
H -85.46954054 -39.48961857 17.38181815     6    844    0    0    0
H -52.68107051 -3.30165504 7.79592501     6     849    0    0    0 
C -53.45208825 -1.78064446 8.91961265     1     848    850    851    852
H -52.52639507 -1.77899616 10.75179287     6     849    0    0    0
H -52.93125985 -0.04291323 8.16001128     6     849    0    0    0
C -56.29393768 -2.02841243 9.49654707     2     849    853    854    855
H -56.75423522 -3.88889395 10.11640686     6     852    0    0    0
H -56.80646077 -0.76705905 11.02268763     6     852    0    0    0
C -57.72580463 -1.63781696 7.07557346     2     852    856   857   858
H -57.20177568 0.14793377 6.27924915     6     855    0    0    0
H -57.26845562 -3.14458346 5.85247671     6     855    0    0    0
C -60.47925912 -1.81039315 7.74034525     2     855   859   860   861
H -61.00750998 -3.35142021 9.05431500     6    858    0    0    0
H -60.90022872 -0.08578148 8.83306766     6    858    0    0    0
C -62.13886101 -1.85686184 5.27307030     2    858   862   863   864
H -61.81992993 -0.27612660 3.97503312     6    861    0    0    0
H -61.73138907 -3.46326668 4.25677989     6    861    0    0    0
C -64.97966451 -1.94569418 6.09492093     2    861   865   866   867
H -65.28713081 -3.78468575 6.97485995     6    864    0    0    0
H -65.43941804 -0.28869387 7.41459136     6    864    0    0    0
C -66.98179848 -1.88035504 3.78877430     2    864   868   869   870
H -66.58506963 -0.33619259 2.43606492     6    867    0    0    0
H -66.72025595 -3.57936544 2.65306756     6    867    0    0    0
C -69.73343377 -1.75626372 4.64593392     2    867   871   872   873
H -70.32951224 -3.28436735 5.84536988     6    870    0    0    0
H -70.10820864 -0.23668737 5.89941414     6    870    0    0    0
C -71.41351932 -1.37573676 2.20003668     2    870   874   875   876
H -73.28256159 -0.49046462 2.60483353     6    873    0    0    0
H -70.50282157 -0.01425936 0.86826574     6    873    0    0    0
C -72.22935169 -3.87217534 0.76608331     2    873   877   878   879
H -70.60352755 -5.01224392 0.23622109     6    876    0    0    0
H -73.53319581 -4.90327050 2.03856978     6    876    0    0    0
C -73.93325381 -3.49125879 -1.53784084     2    876   880   881   882
H -75.56039913 -2.35516817 -0.82816506     6    879    0    0    0
H -72.91060297 -2.31233918 -3.00118089     6    879    0    0    0
C -75.07719976 -5.79571635 -2.97023834     1    879   883   884   885
H -76.48101202 -6.65479522 -1.67275073     6    882    0    0    0
H -73.46279500 -7.01522910 -3.37053458     6    882    0    0    0
H -75.93143819 -5.33026698 -4.79300952     6    882    0    0    0
H -72.64824692 -32.92998696 10.95907347     6     887    0    0    0 
C -72.90466520 -30.96535580 11.73212166     1     886    888    889    890
H -74.82684750 -30.51138845 11.33361704     6     887    0    0    0
H -72.86890075 -31.34552164 13.70438170     6     887    0    0    0
C -70.80098292 -29.11871110 10.79001108     2     887    891    892    893
H -70.75158271 -27.58399326 12.09891736     6     890    0    0    0
H -69.12388128 -30.18482911 10.55105480     6     890    0    0    0
C -71.53694368 -27.80021227 8.23288757     2     890    894   895   896
H -72.19651327 -29.31644559 7.04915047     6     893    0    0    0
H -73.18708790 -26.62315666 8.38198095     6     893    0    0    0
C -69.39571753 -26.41165803 7.02401697     2     893   897   898   899
H -69.11220479 -24.53453645 7.79252614     6    896    0    0    0
H -67.71942425 -27.60489242 7.13195922     6    896    0    0    0
C -70.26960025 -25.74346523 4.30026100     2    896   900   901   902
H -70.66215340 -27.38142247 3.09465439     6    899    0    0    0
H -72.07784630 -24.77180453 4.52420151     6    899    0    0    0
C -68.34716675 -23.75578361 3.12985762     2    899   903   904   905
H -68.40540966 -21.89721475 3.88072479     6    902    0    0    0
H -66.45156155 -24.47452881 3.24030037     6    902    0    0    0
C -68.73421770 -23.53980408 0.31273176     2    902   906   907   908
H -68.47206209 -25.34128289 -0.52985173     6    905    0    0    0
H -70.71219704 -23.07632821 -0.18377127     6    905    0    0    0
C -66.81635671 -21.62347866 -0.90176517     2    905   909   910   911
H -67.34799043 -19.72662294 -0.38558635     6    908    0    0    0
H -64.86201690 -21.92341599 -0.27664076     6    908    0    0    0
C -66.91556865 -21.99436176 -3.82974261     2    908   912   913   914
H -66.09580981 -23.93685292 -4.16591309     6    911    0    0    0
H -68.86513625 -21.93303000 -4.76454585     6    911    0    0    0
C -65.12114558 -19.96505547 -4.99465025     2    911   915   916   917
H -65.64405897 -17.97636166 -4.73226239     6    914    0    0    0
H -63.19151220 -20.19754003 -4.27227004     6    914    0    0    0
C -65.11278529 -20.44765218 -7.78445198     2    914   918   919   920
H -64.47124505 -22.34161832 -8.16805594     6    917    0    0    0
H -66.97945369 -20.43562588 -8.47177345     6    917    0    0    0
C -63.83808338 -18.09258604 -9.00190867     1    917   921   922   923
H -62.08293218 -17.46041267 -8.20515764     6    920    0    0    0
H -65.18931794 -16.49888635 -8.94691788     6    920    0    0    0
H -63.51019304 -18.61433447 -11.02872243     6    920    0    0    0
H -72.89935014 -3.30371589 11.15584243     6     925    0    0    0 
C -74.94984060 -3.50798740 11.64648825     1     924    926    927    928
H -75.12209588 -2.98748350 13.65006088     6     925    0    0    0
H -75.73095378 -1.84526521 10.57821528     6     925    0    0    0
C -75.94061378 -6.16119484 11.09215445     2     925    929    930    931
H -74.87159045 -7.85166211 11.72439991     6     928    0    0    0
H -77.77941226 -6.21271899 12.09850975     6     928    0    0    0
C -76.36238230 -6.34806614 8.21145612     2     928    932   933   934
H -77.40977169 -4.67719884 7.68453405     6     931    0    0    0
H -74.70526534 -6.43962609 7.16883426     6     931    0    0    0
C -77.87306980 -8.64799020 7.61189678     2     931   935   936   937
H -76.90740446 -10.13499051 8.62674821     6    934    0    0    0
H -79.77914210 -8.53250210 8.40621590     6    934    0    0    0
C -78.13326547 -9.10494147 4.87207243     2    934   938   939   940
H -79.42425662 -7.51349692 4.05965418     6    937    0    0    0
H -76.15319060 -9.17504495 4.09134529     6    937    0    0    0
C -79.45242894 -11.58165804 4.24123289     2    937   941   942   943
H -78.57768751 -13.05740542 5.45174856     6    940    0    0    0
H -81.48779972 -11.24455165 4.70589868     6    940    0    0    0
C -79.11394794 -12.50713281 1.52068057     2    940   944   945   946
H -77.21926267 -12.58182323 1.34462908     6    943    0    0    0
H -79.84672340 -14.38651784 1.37024942     6    943    0    0    0
C -80.67107374 -10.81341118 -0.20866620     2    943   947   948   949
H -82.64233077 -11.44629800 -0.35616788     6    946    0    0    0
H -81.21944500 -8.94735603 0.53224715     6    946    0    0    0
C -79.63687622 -10.77029707 -2.93241644     2    946   950   951   952
H -77.63384547 -10.75966365 -3.13643733     6    949    0    0    0
H -80.21728525 -12.67447158 -3.57457808     6    949    0    0    0
C -80.79056451 -8.59627208 -4.53590775     2    949   953   954   955
H -82.92467260 -8.59598088 -4.36394994     6    952    0    0    0
H -79.95148468 -6.91397413 -3.98012842     6    952    0    0    0
C -80.00472073 -9.06525873 -7.30363872     2    952   956   957   958
H -78.10660164 -9.92891854 -7.60424380     6    955    0    0    0
H -81.42438769 -10.24538429 -8.20237224     6    955    0    0    0
C -79.69028373 -6.56850859 -8.78228573     1    955   959   960   961
H -79.24278506 -6.70236056 -10.81742650     6    958    0    0    0
H -78.09992274 -5.41126709 -8.08486081     6    958    0    0    0
H -81.41054337 -5.57678297 -8.80078123     6    958    0    0    0
H -64.64892550 -45.30424967 0.99117225     6     963    0    0    0 
C -63.75078042 -43.56987498 0.65535912     1     962    964    965    966
H -62.53331202 -43.60237087 -0.95778491     6     963    0    0    0
H -65.25496788 -42.26886097 0.53120448     6     963    0    0    0
C -62.21333554 -42.69473059 3.00855294     2     963    967    968    969
H -61.85478414 -40.67918993 2.75284019     6     966    0    0    0
H -63.48790340 -42.78360615 4.70384863     6     966    0    0    0
C -59.70265917 -44.22210665 3.34048035     2     966    970   971   972
H -60.13393014 -46.29287253 3.16696204     6     969    0    0    0
H -58.42860634 -43.96250101 1.78006534     6     969    0    0    0
C -58.57261424 -43.66027752 5.86891220     2     969   973   974   975
H -58.67912169 -41.62774178 6.30896359     6    972    0    0    0
H -59.77454414 -44.55310662 7.29276470     6    972    0    0    0
C -55.87782862 -44.64076055 6.11013959     2    972   976   977   978
H -55.78171146 -46.64951234 5.63014424     6    975    0    0    0
H -54.69070466 -43.78179510 4.71733997     6    975    0    0    0
C -54.82694836 -44.03001107 8.72726460     2    975   979   980   981
H -54.87853573 -42.03149981 9.07427523     6    978    0    0    0
H -55.71125650 -44.86467079 10.35419482     6    978    0    0    0
C -52.01512196 -44.99806648 8.87844122     2    978   982   983   984
H -51.84142700 -47.00894051 8.35695443     6    981    0    0    0
H -50.78837881 -43.83476309 7.73438741     6    981    0    0    0
C -50.93596614 -44.59518371 11.50857654     2    981   985   986   987
H -50.90784639 -42.59174971 12.03158335     6    984    0    0    0
H -52.06482532 -45.52650398 13.00064283     6    984    0    0    0
C -48.28178486 -45.79464837 11.83945481     2    984   988   989   990
H -48.41805612 -47.83003296 11.63037532     6    987    0    0    0
H -47.14220257 -45.10558397 10.21739446     6    987    0    0    0
C -46.88426476 -45.10036768 14.25451594     2    987   991   992   993
H -47.46886096 -43.21563970 15.07458364     6    990    0    0    0
H -47.43138787 -46.20730035 15.96090902     6    990    0    0    0
C -43.95836900 -45.07567456 13.91554027     2    990   994   995   996
H -43.17955087 -47.07935405 13.49712185     6    993    0    0    0
H -43.23686825 -44.33745834 12.09691574     6    993    0    0    0
C -42.18992394 -44.11798496 16.03919642     1    993   997   998   999
H -42.26440534 -42.15293184 16.64516086     6    996    0    0    0
H -40.27040439 -44.51292136 15.34969509     6    996    0    0    0
H -42.44188157 -45.41936067 17.77098709     6    996    0    0    0
H -80.57941111 -52.18517981 2.19758579     6     1001    0    0    0 
C -78.52804784 -52.36294766 2.58026734     1     1000    1002    1003    1004
H -78.00120826 -50.77887016 3.59792607     6     1001    0    0    0
H -78.23320456 -54.19912974 3.54368736     6     1001    0    0    0
C -77.11595651 -52.77063628 -0.02788720     2     1001    1005    1006    1007
H -77.47027900 -54.57076073 -0.73523160     6     1004    0    0    0
H -77.87655881 -51.29223499 -1.33145740     6     1004    0    0    0
C -74.26513538 -52.49010537 0.39821972     2     1004    1008   1009   1010
H -74.17292582 -50.66560574 1.34020569     6     1007    0    0    0
H -73.59634872 -53.80254911 1.87477516     6     1007    0    0    0
C -72.54087715 -52.13825270 -1.81003572     2     1007   1011   1012   1013
H -72.50221872 -53.99099292 -2.81573963     6    1010    0    0    0
H -73.35150216 -50.76684505 -3.17252436     6    1010    0    0    0
C -70.02951931 -51.28030534 -1.08071354     2    1010   1014   1015   1016
H -70.15587444 -49.27530927 -0.46448901     6    1013    0    0    0
H -69.42242616 -52.31127496 0.57887199     6    1013    0    0    0
C -68.07652084 -51.78866660 -3.06466760     2    1013   1017   1018   1019
H -67.89379942 -53.80452261 -3.33770374     6    1016    0    0    0
H -68.72515394 -50.98440524 -4.87836189     6    1016    0    0    0
C -65.51137513 -50.34556351 -2.47453590     2    1016   1020   1021   1022
H -65.63243885 -48.37379147 -2.29142316     6    1019    0    0    0
H -64.61212327 -50.89670260 -0.81547487     6    1019    0    0    0
C -63.72333645 -50.78097193 -4.76551590     2    1019   1023   1024   1025
H -63.42716279 -52.87785602 -4.57987846     6    1022    0    0    0
H -64.57898617 -49.98052600 -6.39683398     6    1022    0    0    0
C -61.15617679 -49.55547893 -4.24757795     2    1022   1026   1027   1028
H -61.50817410 -47.50055557 -3.98034976     6    1025    0    0    0
H -60.21929787 -50.01754521 -2.36791259     6    1025    0    0    0
C -59.17109709 -50.31070162 -6.34492640     2    1025   1029   1030   1031
H -59.00978369 -52.32704145 -6.37335717     6    1028    0    0    0
H -60.20292231 -50.02831350 -8.13159367     6    1028    0    0    0
C -56.55903172 -48.93955788 -6.04366944     2    1028   1032   1033   1034
H -56.95491677 -46.70392600 -6.19556854     6    1031    0    0    0
H -55.49959640 -49.30421711 -4.30701730     6    1031    0    0    0
C -54.78697437 -49.21809296 -8.29757002     1    1031   1035   1036   1037
H -53.55682057 -47.48551810 -8.57235486     6    1034    0    0    0
H -55.93694709 -49.60252431 -9.96195178     6    1034    0    0    0
H -53.54914442 -50.77221398 -8.01012710     6    1034    0    0    0
H -69.58293013 -29.32992453 29.40608639     6     1039    0    0    0 
C -71.15953068 -29.82830968 28.13828336     1     1038    1040    1041    1042
H -70.51735366 -28.95130701 26.38809668     6     1039    0    0    0
H -71.23301776 -31.81326831 28.09219052     6     1039    0    0    0
C -73.54628831 -28.52253461 29.21648959     2     1039    1043    1044    1045
H -73.73330064 -28.86632809 31.16069885     6     1042    0    0    0
H -73.22692487 -26.50025426 28.86098128     6     1042    0    0    0
C -75.77050157 -29.50912672 27.66959049     2     1042    1046   1047   1048
H -75.41066116 -29.69560764 25.77557965     6     1045    0    0    0
H -76.01987669 -31.48390058 27.88977514     6     1045    0    0    0
C -78.09693171 -27.85233895 27.77212207     2     1045   1049   1050   1051
H -78.23427854 -27.78105296 29.85146789     6    1048    0    0    0
H -77.65898695 -26.08856970 26.98554067     6    1048    0    0    0
C -80.50658762 -28.82606109 26.56454489     2    1048   1052   1053   1054
H -80.16061663 -29.57464763 24.73203979     6    1051    0    0    0
H -81.45670351 -30.41375468 27.61050946     6    1051    0    0    0
C -82.51037493 -26.68452828 26.27669529     2    1051   1055   1056   1057
H -82.88736632 -25.84689285 28.12806389     6    1054    0    0    0
H -81.61502850 -25.04629122 25.42168699     6    1054    0    0    0
C -84.83992710 -27.38021461 24.69305252     2    1054   1058   1059   1060
H -84.40430596 -27.56428582 22.66753740     6    1057    0    0    0
H -85.42064589 -29.22795132 25.04581418     6    1057    0    0    0
C -87.06529426 -25.30132769 24.76163070     2    1057   1061   1062   1063
H -87.89452316 -25.39475735 26.70619733     6    1060    0    0    0
H -86.25027651 -23.43482926 24.72783710     6    1060    0    0    0
C -89.19348836 -25.64848488 22.69879711     2    1060   1064   1065   1066
H -88.26364127 -26.39620743 21.06962930     6    1063    0    0    0
H -90.52486598 -27.11120652 23.28124073     6    1063    0    0    0
C -90.36976071 -23.19696563 22.08816274     2    1063   1067   1068   1069
H -91.61262614 -22.46455579 23.71187506     6    1066    0    0    0
H -88.92075078 -21.97146143 21.51676639     6    1066    0    0    0
C -92.01879380 -23.56991946 19.73650273     2    1066   1070   1071   1072
H -90.92584502 -24.22612621 18.17194865     6    1069    0    0    0
H -93.39808846 -24.96820671 19.98650667     6    1069    0    0    0
C -93.23629526 -21.02927392 18.99383357     1    1069   1073   1074   1075
H -94.47147627 -21.24943687 17.44724918     6    1072    0    0    0
H -91.76454652 -19.69296392 18.57894108     6    1072    0    0    0
[...]
 1763      H     -46.2102275600   -22.1315504300   -11.0059909000
 1764      C     -47.0185677500   -25.6382501800    -8.8788567800
 1765      H     -45.9111447600   -24.8207413400    -7.3227052500
 1766      H     -48.8127641200   -26.5879963900    -8.1139011400
 1767      C     -45.4274534400   -27.4906092100   -10.4403231500
 1768      H     -46.2365171200   -28.1760522300   -12.1006566100
 1769      H     -43.6197773300   -26.7640710300   -10.8462191600
 1770      C     -45.0875758200   -30.0207487500    -9.0370024000
 1771      H     -43.9930771200   -29.7872419400    -7.2442592600
 1772      H     -46.8726998700   -30.9181765300    -8.6025947700
 1773      C     -43.5011620400   -31.7447024600   -10.7656709100
 1774      H     -44.4982920000   -31.8709621500   -12.5010250400
 1775      H     -41.5724840700   -30.7106464900   -11.0220537200
 1776      C     -43.1981149700   -34.3442581700    -9.5879682200
 1777      H     -42.1199719100   -34.1291890900    -7.7736972600
 1778      H     -45.0493100900   -34.8535573700    -9.2567313200
 1779      C     -41.6133630100   -36.0789048400   -11.1783127100
 1780      H     -42.0454875100   -35.8254439000   -13.2795899900
 1781      H     -39.6965399900   -35.5794907400   -10.8274956300
 1782      C     -42.0583895000   -38.8950334900   -10.7666992800
 1783      H     -44.0950671000   -39.1739658800   -10.6333438800
 1784      H     -41.2327539500   -39.8978314500   -12.3616389100
 1785      C     -40.6314754400   -39.7072117700    -8.2296472200
 1786      H     -38.6941591900   -39.9929250800    -8.8003295800
 1787      H     -40.7240095900   -38.0556630000    -6.9266957200
 1788      C     -41.8171043900   -42.1969208400    -7.0378935300
 1789      H     -43.8707657000   -42.1316294500    -6.6184473900
 1790      H     -41.6871135600   -43.5826547600    -8.5295183500
 1791      C     -40.1371986500   -43.2655068700    -4.8451124000
 1792      H     -38.1875799900   -43.4493708000    -5.4318537800
 1793      H     -40.0339299500   -42.0972007700    -3.2894404800
 1794      C     -41.2923592100   -45.8379083600    -4.1787118600
 1795      H     -41.3578625600   -47.1933235200    -5.7980240300
 1796      H     -43.0223724500   -45.8309850800    -3.0213010200
 1797      H     -39.8100295300   -46.7635403500    -3.1288589700
 1798      H     -64.5647077600   -16.4327571800    30.0130399200
 1799      C     -64.1344277200   -15.0307299100    28.6548898500
 1800      H     -64.7940490300   -13.0870919900    29.1049775100
 1801      H     -62.0411226400   -15.0566240100    28.7607478300
 1802      C     -65.1152932400   -15.8082709200    26.0741752400
 1803      H     -64.0016974900   -17.3861086900    25.4103217500
 1804      H     -67.0222086400   -16.6491943600    26.1645833700
 1805      C     -65.0659792200   -13.7991899700    23.9975238500
 1806      H     -66.0428270200   -12.0702630300    24.5149218900
 1807      H     -63.0792357100   -13.3960580900    23.6309784400
 1808      C     -66.1205548500   -14.7901455900    21.4341631400
 1809      H     -66.3066367100   -13.2638699000    20.2259430000
 1810      H     -64.6675635000   -15.6313359500    20.3872935300
 1811      C     -68.7442364500   -15.9761789200    21.3736406900
 1812      H     -68.9086599100   -17.7328348700    22.3993823800
 1813      H     -70.0305373400   -14.6086748500    22.1231899900
 1814      C     -69.6083352300   -16.4088551200    18.4707288400
 1815      H     -70.5927775200   -14.8639818400    17.6458138800
 1816      H     -67.9929486000   -16.9607186900    17.4037625800
 1817      C     -71.4171031800   -18.7075892800    18.2981167500
 1818      H     -70.7309552500   -20.4488275500    19.2487344400
 1819      H     -73.2685292200   -18.4104688900    19.3378408600
 1820      C     -71.9387617000   -19.2698788300    15.4685946700
 1821      H     -72.2230387900   -17.4574289200    14.5518909500
 1822      H     -70.4266628000   -20.3445781200    14.6067429400
 1823      C     -74.2705154400   -21.0578388600    15.0020451000
 1824      H     -74.0258525600   -22.7455247200    16.0414432700
 1825      H     -75.8977323600   -20.0027704600    15.8593432400
 1826      C     -74.6876859000   -21.7272083200    12.4023137700
 1827      H     -74.4139185300   -20.0677210800    11.3814044800
 1828      H     -73.4952344800   -23.2074115500    11.4808472200
 1829      C     -77.4008464300   -22.6907322500    12.1228800400
 1830      H     -77.5973562800   -24.5015021100    13.2242283800
 1831      H     -78.6434321300   -21.3599987400    13.0193879400
 1832      C     -77.8839714000   -23.3679173000     9.3822063800
 1833      H     -79.8977361100   -23.5794377300     9.1798041600
 1834      H     -77.2541578200   -25.2962146200     8.6394229200
 1835      H     -77.0843145800   -21.8807343700     8.2965286500
 1836      H     -67.4900363300   -21.2140058600     9.9411610600
 1837      C     -65.5310116500   -20.4036942700     9.6524439400
 1838      H     -64.2308923000   -21.1572540100    11.0419166200
 1839      H     -65.1461998500   -21.2964821800     7.8023261500
 1840      C     -65.7982553700   -17.6194711000     9.4323829500
 1841      H     -64.1756645600   -17.0012341000     8.3202444800
 1842      H     -67.4062861500   -17.3116645500     8.2080717200
 1843      C     -66.2564200100   -16.4083425700    12.0828665900
 1844      H     -67.7829949500   -17.5532664700    12.8479281900
 1845      H     -64.6939123400   -16.8772614500    13.3848985400
 1846      C     -66.6257645500   -13.4861630200    11.7517214700
 1847      H     -64.9468613600   -12.5348313700    11.0828159100
 1848      H     -67.6294281900   -13.0711118400    10.0893919600
 1849      C     -67.7175911500   -12.3118197400    14.1699036600
 1850      H     -69.5309482100   -13.0102841300    14.4383057700
 1851      H     -66.3842796500   -12.8408460900    15.6530731600
 1852      C     -68.1905864100    -9.3967302100    13.8154990600
 1853      H     -68.9244118100    -9.0283870300    11.9861075600
 1854      H     -69.5113859600    -8.6699972500    15.0745332100
 1855      C     -65.7992331600    -7.7054441500    14.3209915300
 1856      H     -65.3437405100    -7.6523304200    16.2768584000
 1857      H     -64.3171918100    -8.6368920500    13.2911039900
 1858      C     -65.9372129300    -5.0706608500    13.2716349600
 1859      H     -64.6556008400    -5.0918336800    11.6229260300
 1860      H     -67.6255746000    -4.8348629500    12.0992944100
 1861      C     -65.3061036700    -2.7785265300    14.9872237800
 1862      H     -67.0245422900    -1.6232532500    15.5232386400
 1863      H     -64.4678343100    -3.4477646100    16.7732811500
 1864      C     -63.2432197900    -1.0016879500    13.8522324600
 1865      H     -61.5438772900    -2.0447810600    13.9422134900
 1866      H     -63.6023221700    -0.8686563300    11.8146673300
 1867      C     -62.8212970300     1.4475564300    15.3376978700
 1868      H     -64.5757123000     2.2980799200    15.5810358800
 1869      H     -62.1461147100     1.1028958300    17.2345640600
 1870      C     -60.8111396900     3.2141910400    14.0567451900
 1871      H     -60.4710431300     5.0461555600    14.9452788700
 1872      H     -61.3344338400     3.6258341400    12.2151743000
 1873      H     -58.9822321100     2.2402708300    14.2744805700
 1874      H     -40.6731361700   -30.6994478300    25.0179904700
 1875      C     -40.6881671800   -30.7872097600    22.8774884200
 1876      H     -41.1401898500   -28.9344775700    22.0324011500
 1877      H     -38.6620921500   -30.8617684000    22.3476152200
 1878      C     -42.3567180300   -32.8974448300    21.7879320600
 1879      H     -42.1754536400   -34.3863033800    23.1010739500
 1880      H     -44.3385275600   -32.2792259100    21.9008166400
 1881      C     -42.0583098300   -33.5839835700    18.9166953900
 1882      H     -42.2250284700   -31.9906576700    17.7298707700
 1883      H     -40.1989957800   -34.5662578300    18.9004233800
 1884      C     -44.0432160200   -35.3585835000    18.0323176900
 1885      H     -43.5162284600   -35.9620729900    16.0145053200
 1886      H     -44.0378315100   -37.0153560500    19.2014785300
 1887      C     -46.7298320400   -34.3299035800    18.1890128100
 1888      H     -47.2839871800   -34.2296276900    20.0820522500
 1889      H     -46.8765446400   -32.3109639000    17.5601593100
 1890      C     -48.3711691000   -36.2222667400    16.5861989800
 1891      H     -47.8763003100   -36.3468749200    14.6587547300
 1892      H     -48.0560739200   -38.1175599900    17.3306444900
 1893      C     -51.2590099300   -35.8601145800    16.8444146700
 1894      H     -51.8380470400   -36.1541586100    18.8219874600
 1895      H     -51.7812353700   -33.9563892800    16.3628342900
 1896      C     -52.7748871600   -37.6236813600    15.1787833500
 1897      H     -51.9859653000   -37.2987038200    13.3138594500
 1898      H     -52.4620399000   -39.6737586600    15.5841180900
 1899      C     -55.5746137300   -37.1694028400    15.2734406200
 1900      H     -56.3131374000   -37.3833880900    17.1404091700
 1901      H     -55.8303212900   -35.2335336100    14.7545498000
 1902      C     -57.2415958800   -38.7556373800    13.4944205900
 1903      H     -56.0793193600   -38.9666695600    11.7612396100
 1904      H     -57.2181416200   -40.8130983900    14.2418713700
 1905      C     -60.0621421900   -37.9771931700    12.8155034800
 1906      H     -61.1527096200   -37.3504933400    14.4598151300
 1907      H     -60.0336133700   -36.4444898200    11.5119591500
 1908      C     -61.5776263800   -39.9268451100    11.6140860200
 1909      H     -61.0889681900   -40.4837513800     9.6908068800
 1910      H     -63.5448733200   -39.1266430400    11.3423756800
 1911      H     -61.7667011300   -41.6888966400    12.7053361400
 ----------------------------------------------------------------
 Nuclear Repulsion Energy =           0.00000000 hartrees
 There are     2498 alpha and     2498 beta electrons

 Total QAlloc Memory Limit   2000 MB
 Mega-Array Size       204 MB
 MEM_STATIC part       192 MB
   **** Step 1: MM calculation on the entire system **** 
 OPLSAA force field loaded.
Reading user-defined FF parameters...
 Reading user defined atom types.
 Found 3 user defined AtomTypes
finished.
Determining angles, torsions, etc. from user defined input
Determining VDW/Coulomb pairs... (useList = 0)

 Time req'd to get MM system information: 0.2 s (CPU) 0.2 s (wall)

 ------ MM Energies ------
   Ebond:           581.425552392759
   Eangle:          877.527111717561
   EUreyBrad:         0.000000000000
   Eimptors:          0.000000000000
   Etorsion:        233.460371056961
   Evdw:        1200339.125061564147
   Ecoulomb:        185.605742962389
   Etot:        1202217.143839693861 Kcal/mol (   1915.854978130990 hartree)
 -------------------------
 Time req'd to calc MM energy: 0.1 s (CPU) 0.1 s (wall)
 OPLSAA force field loaded.
Reading user-defined FF parameters...
 Reading user defined atom types.
 Found 3 user defined AtomTypes
finished.
 Time req'd to get MM system information: 0.0 s (CPU) 0.0 s (wall)
 Time req'd to calc MM gradient: 0.2 s (CPU) 0.2 s (wall)
   **** Step 2: MM calculation on the model system **** 
 Reading user defined atom types.
 Found 3 user defined AtomTypes
 ----------------------------------------------------------------
             Standard Nuclear Orientation (Bohr)
    I     Atom           X                Y                Z
 ----------------------------------------------------------------
    1      Fe    -57.4574181500   -29.4617958100     8.1936518000
    2      C     -57.0815881400   -32.2816134100     6.3421323500
    3      C     -58.0209667900   -27.1137748300    10.6536988800
    4      C     -56.1172091400   -27.5814769900     5.8120832900
    5      C     -60.8603436300   -29.7709291300     7.9860010500
    6      C     -55.2777248000   -30.9297332800    10.4287309400
    7      O     -56.8803800100   -34.2205364600     5.4594319200
    8      O     -58.2172074600   -25.7639303500    12.3944594500
    9      O     -55.0958486900   -26.4726852800     4.2345542000
   10      O     -63.1236460300   -29.8760229300     7.7686845700
   11      O     -53.9684372900   -31.9917231900    11.7777861300
 ----------------------------------------------------------------
 Nuclear Repulsion Energy =         802.77656046 hartrees
 There are       48 alpha and       48 beta electrons
 OPLSAA force field loaded.
Reading user-defined FF parameters...
 Reading user defined atom types.
 Found 3 user defined AtomTypes
finished.
Determining VDW/Coulomb pairs... (useList = 0)

 No MM bonds in system. Return all possible pairs.
 Time req'd to get MM system information: 0.0 s (CPU) 0.0 s (wall)

 ------ MM Energies ------
   Ebond:             0.000000000000
   Eangle:            0.000000000000
   EUreyBrad:         0.000000000000
   Eimptors:          0.000000000000
   Etorsion:          0.000000000000
   Evdw:        1200780.318086984567
   Ecoulomb:         -6.519274366918
   Etot:        1200773.798812617548 Kcal/mol (   1913.554861409602 hartree)
 -------------------------
 Eold: 1915.8549781 mm_energy: 1913.5548614 Enew:    2.3001167
 Time req'd to calc MM energy: 0.0 s (CPU) 0.0 s (wall)
 OPLSAA force field loaded.
Reading user-defined FF parameters...
 Reading user defined atom types.
 Found 3 user defined AtomTypes
finished.
Determining VDW/Coulomb pairs... (useList = 0)

 No MM bonds in system. Return all possible pairs.
 Time req'd to get MM system information: 0.0 s (CPU) 0.0 s (wall)
 Number of fixed atoms: 0
 Time req'd to calc MM gradient: 0.0 s (CPU) 0.0 s (wall)
   **** Step 3: QM calculation on the model system **** 
 Requested basis set is def2-mSVP
 There are 80 shells and 174 basis functions

                       Distance Matrix (Bohrs)
             Fe(  1)   C (  2)   C (  3)   C (  4)   C (  5)   C (  6)
   C (  2)  3.394222
   C (  3)  3.447118  6.795483
   C (  4)  3.317172  4.827242  5.223436
   C (  5)  3.423242  4.825436  4.715839  5.658352
   C (  6)  3.449853  4.667097  4.705053  5.764459  6.202853
   O (  7)  5.518564  2.139876  8.876227  6.692078  6.482489  6.171857
   O (  8)  5.647856  8.966632  2.211524  7.144309  6.517416  6.260205
   O (  9)  5.494201  6.490662  7.083271  2.182016  7.627658  7.633229
   O ( 10)  5.697220  6.657956  6.480020  7.627804  2.276139  8.351325
   O ( 11)  5.605313  6.270732  6.440570  7.723801  8.173612  2.159168
             O (  7)   O (  8)   O (  9)   O ( 10)
   O (  8) 11.017981
   O (  9)  8.044506  8.765231
   O ( 10)  7.948951  7.898116  9.408417
   O ( 11)  7.305383  7.564241  9.414414 10.216013

 A cutoff of  1.0D-11 yielded   2491 shell pairs
 There are     12835 function pairs (     14696 Cartesian)
 Smallest overlap matrix eigenvalue = 2.33E-03
 Guess MOs from SCF MO coefficient file
 Reading MOs from coefficient file
 Reading MOs from coefficient file
 A restricted Kohn-Sham SCF calculation will be
 performed using Pulay DIIS extrapolation
 Exchange:  B88      Correlation:  P86
 Using SG-1 standard quadrature grid
 SCF converges when DIIS error is below 1.0E-08
 Using Q-Chem read-in guess as SCF_GUESS READ specified.

 using 2 threads for integral computing
 -------------------------------------------------------
 OpenMP Integral computing Module                
 Release: version 1.0, May 2013, Q-Chem Inc. Pittsburgh 
 -------------------------------------------------------
 ---------------------------------------
  Cycle       Energy         DIIS Error
 ---------------------------------------
    1   -1830.5192158362      2.53E-09
    2   -1830.5192158364      1.66E-08
    3   -1830.5192158361      7.92E-09 Convergence criterion met
 ---------------------------------------
 SCF time:  CPU 3.94 s  wall 2.07 s
 E(QM + QM/MM):    -1830.5192158361 E(MM):    2.3001167 E(Tot): -1828.219099114699 
 SCF   energy in the final basis set = -1828.21909911
 Total energy in the final basis set = -1828.21909911

 --------------------------------------------------------------

                    Orbital Energies (a.u.)
 --------------------------------------------------------------

 Alpha MOs
 -- Occupied --
******** -29.6362 -25.5956 -25.5836 -25.5793 -18.8912 -18.8872 -18.8829
-18.8714 -18.8670 -10.0574 -10.0548 -10.0465 -10.0457 -10.0309  -3.3210
 -2.1558  -2.1326  -2.1249  -1.0821  -1.0673  -1.0561  -1.0458  -1.0223
 -0.5744  -0.5287  -0.5216  -0.5140  -0.5118  -0.4604  -0.4541  -0.4469
 -0.4401  -0.4330  -0.4297  -0.4252  -0.4211  -0.4139  -0.4126  -0.4037
 -0.4033  -0.3958  -0.3938  -0.3789  -0.2789  -0.2713  -0.2342  -0.2231
 -- Virtual --
 -0.0989  -0.0895  -0.0871  -0.0752  -0.0717  -0.0677  -0.0593  -0.0530
 -0.0478  -0.0346  -0.0208   0.0111   0.1911   0.2111   0.2226   0.2681
  0.2964   0.3326   0.3490   0.3953   0.4125   0.4240   0.4308   0.4360
  0.4521   0.4763   0.4889   0.5084   0.5259   0.5534   0.5630   0.6005
  0.6105   0.6292   0.6392   0.6662   0.7356   0.7523   0.7591   0.7656
  0.7837   0.8312   0.8490   0.8600   0.8847   0.9048   0.9468   0.9617
  0.9767   0.9850   0.9889   0.9988   1.0161   1.0204   1.0321   1.0738
  1.1918   1.2515   1.2688   1.3431   1.3973   1.4028   1.4064   1.4143
  1.4175   1.4202   1.4319   1.4374   1.4489   1.4718   1.4858   1.4895
  1.5189   1.5446   1.5522   1.5721   1.6071   1.6346   1.6652   1.6770
  1.7028   1.8205   1.8271   1.8336   1.8396   1.8459   1.8538   1.8577
  1.8664   1.8700   1.8817   1.8860   1.8988   1.9007   1.9106   1.9554
  2.3890   2.3945   2.4203   2.4549   2.4618   2.4755   2.4905   2.5017
  2.5073   2.5248   2.6434   2.6616   2.6648   2.6782   2.6920   2.8244
  2.8286   2.9052   2.9165   2.9807  13.2777  13.2961  13.3244  13.3410
 13.4516  24.9245  24.9414  24.9511  24.9629  25.0301
 --------------------------------------------------------------

          Ground-State Mulliken Net Atomic Charges

     Atom                 Charge (a.u.)
  ----------------------------------------
      1 Fe                   -0.497864
      2 C                     0.193027
      3 C                     0.208657
      4 C                     0.221478
      5 C                     0.223694
      6 C                     0.205049
      7 O                    -0.079963
      8 O                    -0.113705
      9 O                    -0.117799
     10 O                    -0.151736
     11 O                    -0.090836
  ----------------------------------------
  Sum of atomic charges =     0.000000

 -----------------------------------------------------------------
                    Cartesian Multipole Moments
 -----------------------------------------------------------------
    Charge (ESU x 10^10)
                -0.0000
    Dipole Moment (Debye)
         X       0.3351880342      Y      -0.3240494475      Z       0.1008162219
       Tot       0.4769936826
    Quadrupole Moments (Debye-Ang)
        XX     -91.1159     XY       4.1604     YY     -58.5517
        XZ      -1.4458     YZ      -2.0299     ZZ     -68.2971
    Octopole Moments (Debye-Ang^2)
       XXX    7395.0190    XXY    1154.1343    XYY    1873.6831
       YYY    2987.4292    XXZ    -313.8898    XYZ      38.8604
       YYZ    -260.5231    XZZ    2080.1053    YZZ    1065.8762
       ZZZ    -903.4512
    Hexadecapole Moments (Debye-Ang^3)
      XXXX -432380.3114   XXXY -107888.2957   XXYY  -77374.0070
      XYYY  -92290.2584   YYYY  -96685.7224   XXXZ   29852.7959
      XXYZ    4339.8534   XYYZ    8231.9710   YYYZ   13278.7564
      XXZZ  -64932.3489   XYZZ  -32421.7750   YYZZ  -18190.8336
      XZZZ   27451.6878   YZZZ   14053.9040   ZZZZ   -8645.5762
 -----------------------------------------------------------------
 Calculating MO derivatives via CPSCF
 Full subspace dimension requested for CIS/TDDFT
 MAX_CIS_SUBSPACE fits in available memory
    1     0    36    0.0396522  
    2     0    36    0.0060882  
    3     0    36    0.0007148  
