                  Welcome to Q-Chem
     A Quantum Leap Into The Future Of Chemistry


 Q-Chem 5.4 (devel), Q-Chem, Inc., Pleasanton, CA (2021)

 E. Epifanovsky,  A. T. B. Gilbert,  Xintian Feng,  Joonho Lee,  Yuezhi Mao,  
 N. Mardirossian,  P. Pokhilko,  A. White,  M. Wormit,  M. P. Coons,  
 A. L. Dempwolff,  Zhengting Gan,  D. Hait,  P. R. Horn,  L. D. Jacobson,  
 I. Kaliman,  J. Kussmann,  A. W. Lange,  Ka Un Lao,  D. S. Levine,  Jie Liu,  
 S. C. McKenzie,  A. F. Morrison,  K. Nanda,  F. Plasser,  D. R. Rehn,  
 M. L. Vidal,  Zhi-Qiang You,  Ying Zhu,  B. Alam,  B. Albrecht,  
 A. Aldossary,  E. Alguire,  J. H. Andersen,  D. Barton,  K. Begam,  A. Behn,  
 Y. A. Bernard,  E. J. Berquist,  H. Burton,  A. Carreras,  K. Carter-Fenk,  
 R. Chakraborty,  A. D. Chien,  K. D. Closser,  V. Cofer-Shabica,  
 S. Dasgupta,  Jia Deng,  M. de Wergifosse,  M. Diedenhofen,  Hainam Do,  
 S. Ehlert,  Po-Tung Fang,  S. Fatehi,  Qingguo Feng,  T. Friedhoff,  
 J. Gayvert,  Qinghui Ge,  G. Gidofalvi,  M. Goldey,  J. Gomes,  
 C. Gonzalez-Espinoza,  S. Gulania,  A. Gunina,  M. W. D. Hanson-Heine,  
 P. H. P. Harbach,  A. W. Hauser,  M. F. Herbst,  M. Hernandez Vera,  
 M. Hodecker,  Z. C. Holden,  S. Houck,  Xunkun Huang,  Kerwin Hui,  
 B. C. Huynh,  M. Ivanov,  Hyunjun Ji,  Hanjie Jiang,  B. Kaduk,  S. Kaehler,  
 K. Khistyaev,  Jaehoon Kim,  P. Klunzinger,  Z. Koczor-Benda,  
 Joong Hoon Koh,  D. Kosenkov,  L. Koulias,  T. Kowalczyk,  C. M. Krauter,  
 K. Kue,  A. Kunitsa,  T. Kus,  A. Landau,  K. V. Lawler,  D. Lefrancois,  
 S. Lehtola,  Rain Li,  Yi-Pei Li,  Jiashu Liang,  M. Liebenthal,  
 Hung-Hsuan Lin,  You-Sheng Lin,  Fenglai Liu,  Kuan-Yu Liu,  
 M. Loipersberger,  A. Luenser,  A. Manjanath,  P. Manohar,  E. Mansoor,  
 S. F. Manzer,  Shan-Ping Mao,  A. V. Marenich,  T. Markovich,  S. Mason,  
 S. A. Maurer,  P. F. McLaughlin,  M. F. S. J. Menger,  J.-M. Mewes,  
 S. A. Mewes,  P. Morgante,  J. W. Mullinax,  K. J. Oosterbaan,  G. Paran,  
 Alexander C. Paul,  Suranjan K. Paul,  F. Pavosevic,  Zheng Pei,  S. Prager,  
 E. I. Proynov,  E. Ramos,  B. Rana,  A. E. Rask,  A. Rettig,  R. M. Richard,  
 F. Rob,  E. Rossomme,  T. Scheele,  M. Scheurer,  M. Schneider,  
 N. Sergueev,  S. M. Sharada,  W. Skomorowski,  D. W. Small,  C. J. Stein,  
 Yu-Chuan Su,  E. J. Sundstrom,  Zhen Tao,  J. Thirman,  T. Tsuchimochi,  
 N. M. Tubman,  S. P. Veccham,  O. Vydrov,  J. Wenzel,  J. Witte,  A. Yamada,  
 Kun Yao,  S. Yeganeh,  S. R. Yost,  A. Zech,  Igor Ying Zhang,  Xing Zhang,  
 Yu Zhang,  D. Zuev,  A. Aspuru-Guzik,  A. T. Bell,  N. A. Besley,  
 K. B. Bravaya,  B. R. Brooks,  D. Casanova,  Jeng-Da Chai,  S. Coriani,  
 C. J. Cramer,  A. E. DePrince, III,  R. A. DiStasio Jr.,  A. Dreuw,  
 B. D. Dunietz,  T. R. Furlani,  W. A. Goddard III,  S. Grimme,  
 S. Hammes-Schiffer,  T. Head-Gordon,  W. J. Hehre,  Chao-Ping Hsu,  
 T.-C. Jagau,  Yousung Jung,  A. Klamt,  Jing Kong,  D. S. Lambrecht,  
 WanZhen Liang,  N. J. Mayhall,  C. W. McCurdy,  J. B. Neaton,  
 C. Ochsenfeld,  J. A. Parkhill,  R. Peverati,  V. A. Rassolov,  Yihan Shao,  
 L. V. Slipchenko,  T. Stauch,  R. P. Steele,  J. E. Subotnik,  
 A. J. W. Thom,  A. Tkatchenko,  D. G. Truhlar,  T. Van Voorhis,  
 T. A. Wesolowski,  K. B. Whaley,  H. L. Woodcock III,  P. M. Zimmerman,  
 S. Faraji,  P. M. W. Gill,  M. Head-Gordon,  J. M. Herbert,  A. I. Krylov

 Additional authors for Version 5.4.1: 
 S. Kotaru,  Shaozhi Li,  Xiangyuan Li,  F. Matz,  A. Molle,  Haisheng Ren,  
 Yingli Su,  Hung-Yi Tsai,  C. Utku,  Fang Wang

 Contributors to earlier versions of Q-Chem not listed above: 
 R. D. Adamson,  B. Austin,  R. Baer,  J. Baker,  G. J. O. Beran,  
 K. Brandhorst,  S. T. Brown,  E. F. C. Byrd,  A. K. Chakraborty,  
 G. K. L. Chan,  Chun-Min Chang,  Yunqing Chen,  C.-L. Cheng,  
 Siu Hung Chien,  D. M. Chipman,  D. L. Crittenden,  H. Dachsel,  
 R. J. Doerksen,  A. D. Dutoi,  R. G. Edgar,  J. Fosso-Tande,  
 L. Fusti-Molnar,  D. Ghosh,  A. Ghysels,  A. Golubeva-Zadorozhnaya,  
 J. Gonthier,  M. S. Gordon,  S. R. Gwaltney,  G. Hawkins,  J. E. Herr,  
 A. Heyden,  S. Hirata,  E. G. Hohenstein,  G. Kedziora,  F. J. Keil,  
 C. Kelley,  Jihan Kim,  R. A. King,  R. Z. Khaliullin,  P. P. Korambath,  
 W. Kurlancheek,  A. Laurent,  A. M. Lee,  M. S. Lee,  S. V. Levchenko,  
 Ching Yeh Lin,  D. Liotard,  E. Livshits,  R. C. Lochan,  I. Lotan,  
 L. A. Martinez-Martinez,  P. E. Maslen,  N. Nair,  D. P. O'Neill,  
 D. Neuhauser,  E. Neuscamman,  C. M. Oana,  R. Olivares-Amaya,  R. Olson,  
 T. M. Perrine,  B. Peters,  P. A. Pieniazek,  A. Prociuk,  Y. M. Rhee,  
 J. Ritchie,  M. A. Rohrdanz,  E. Rosta,  N. J. Russ,  H. F. Schaefer III,  
 M. W. Schmidt,  N. E. Schultz,  S. Sharma,  N. Shenvi,  C. D. Sherrill,  
 A. C. Simmonett,  A. Sodt,  T. Stein,  D. Stuck,  K. S. Thanthiriwatte,  
 V. Vanovschi,  L. Vogt,  Tao Wang,  A. Warshel,  M. A. Watson,  
 C. F. Williams,  Q. Wu,  X. Xu,  Jun Yang,  W. Zhang,  Yan Zhao

 Please cite Q-Chem as follows:
 Y. Shao et al., Mol. Phys. 113, 184-215 (2015)
 DOI: 10.1080/00268976.2014.952696

 Q-Chem 5.4.1 for Intel X86 EM64T Linux

 Parts of Q-Chem use Armadillo 9.900.5 (Nocturnal Misbehaviour).
 http://arma.sourceforge.net/

 Q-Chem begins on Wed Jun 22 08:05:25 2022  

 Host: p09r16n04.grace.hpc.yale.internal
0

     Scratch files written to /home/tl686/scratch60/qchem_dev/scratch/qchem69662//
 Processing $rem in /home/tl686/qchem_dev/qchem/config/preferences:
 Processing $rem in /home/tl686/.qchemrc:
Applying user defined connections for MM calculations

 Checking the input file for inconsistencies... 	...done.

--------------------------------------------------------------
User input:
--------------------------------------------------------------
$molecule
0   1
 Fe 841.84460094 -63.38717975 50.29576269    -1  0   0   0   0
C 841.34238420 -66.68369362 51.35656429    -2  0   0   0   0 
C 842.57713866 -60.18086784 49.54749024    -2  0   0   0   0
C 838.57932539 -62.67291961 50.44351889    -2  0   0   0   0
C 843.76594840 -62.98924035 53.20387074    -2  0   0   0   0
C 843.23913852 -64.84186749 47.45505405    -2  0   0   0   0
O 841.10025045 -68.73297832 52.05766815    -3  0   0   0   0
O 843.05368241 -58.16620140 48.94670739    -3  0   0   0   0 
O 836.10951261 -62.33309804 51.09208047    -3  0   0   0   0
O 845.04808478 -62.42035884 55.06251253    -3  0   0   0   0 
O 844.06007797 -65.82429303 45.71572974    -3  0   0   0   0
H 821.33667770 -82.17026244 62.82893828      6     13    0    0    0 
C 822.29800821 -83.74206977 63.88336917     1     12    14    15    16
H 821.00847126 -85.37976753 64.01891814     6     13    0    0    0
H 823.97664064 -84.37752565 62.77197445     6     13    0    0    0
C 822.92478263 -82.81135452 66.56718247     2     13    17    18    19
H 821.15538445 -82.47064845 67.33979840     6     16    0    0    0
H 823.45826662 -84.28095070 67.80167113     6     16    0    0    0
C 824.42982357 -80.35527300 66.75761047     2     16    20   21   22
H 823.84128290 -79.10532832 65.16205916     6     19    0    0    0
H 823.89640383 -79.47451858 68.50324548     6     19    0    0    0
C 827.20096314 -81.11571253 66.82016248     2     19   23   24   25
H 826.91923938 -82.23839665 68.49590392     6    22    0    0    0
H 827.55916135 -82.30125288 65.29708459     6    22    0    0    0
C 828.99844585 -78.98683271 67.51790174     2    22   26   27   28
H 829.03520821 -77.35929694 66.05138895     6    25    0    0    0
H 828.70946040 -78.34794178 69.46885792     6    25    0    0    0
C 831.74832346 -79.89440536 67.38302337     2    25   29   30   31
H 831.81778713 -81.71723092 68.51887577     6    28    0    0    0
H 832.13210811 -80.36126149 65.38673508     6    28    0    0    0
C 833.60801253 -78.14515422 68.58989572     2    28   32   33   34
H 833.24894502 -76.13782206 68.02398924     6    31    0    0    0
H 833.34871733 -78.20951948 70.71068674     6    31    0    0    0
C 836.39345099 -78.94144658 68.07266961     2    31   35   36   37
H 836.75087157 -81.02276882 68.28469546     6    34    0    0    0
H 836.72955716 -78.82491733 65.93323718     6    34    0    0    0
C 838.26534635 -77.64384590 69.68358408     2    34   38   39   40
H 838.00036758 -75.64084043 69.65503855     6    37    0    0    0
H 837.84651271 -78.01551619 71.62345274     6    37    0    0    0
C 841.09095252 -78.07846358 69.05945634     2    37   41   42   43
H 841.36779717 -77.49176013 67.07914852     6    40    0    0    0
H 842.22822093 -76.84579989 70.13059486     6    40    0    0    0
C 841.86861722 -80.83867722 69.50125375     2    40   44   45   46
H 841.29735214 -81.47389077 71.29903837     6    43    0    0    0
H 840.85572211 -81.87079566 68.06947469     6    43    0    0    0
C 844.82518717 -81.13268625 69.26770424     1    43   47   48   49
H 845.82380028 -80.63634843 71.04037293     6    46    0    0    0
H 845.52027489 -80.04767406 67.65939627     6    46    0    0    0
H 845.31512480 -83.20316962 69.25364599     6    46    0    0    0
H 848.21102245 -69.92186294 57.68978076     6     51    0    0    0 
C 846.47811250 -69.13218713 56.96483185     1     50    52    53    54
H 846.80291320 -67.07137139 56.87387493     6     51    0    0    0
H 846.06867668 -69.86441583 55.16656748     6     51    0    0    0
C 844.47700106 -69.67461839 58.97899301     2     51    55    56    57
H 842.67626484 -69.19205672 58.36230013     6     54    0    0    0
H 844.65030164 -71.66469461 59.36434830     6     54    0    0    0
C 845.07746236 -68.18712665 61.32793528     2     54    58   59   60
H 845.68425304 -66.30500482 60.77562771     6     57    0    0    0
H 843.36124146 -67.93078237 62.42796238     6     57    0    0    0
C 846.94292213 -69.46029646 63.00393195     2     57   61   62   63
H 846.10690916 -71.28036275 63.52023739     6    60    0    0    0
H 848.67976704 -69.81644928 61.86882659     6    60    0    0    0
C 847.50451992 -67.89202122 65.33457983     2    60   64   65   66
H 848.15053573 -66.00199399 64.87847540     6    63    0    0    0
H 845.60883661 -67.68484931 66.35489610     6    63    0    0    0
C 849.37450658 -69.11923826 67.18293291     2    63   67   68   69
H 849.65082493 -67.86769046 68.74001992     6    66    0    0    0
H 848.56726602 -70.82998574 67.88681621     6    66    0    0    0
C 851.94259672 -69.74939784 66.11255003     2    66   70   71   72
H 851.88549772 -71.20595462 64.67890294     6    69    0    0    0
H 852.72400079 -68.08635328 65.10007747     6    69    0    0    0
C 853.82707405 -70.58082286 68.19797565     2    69   73   74   75
H 854.53231519 -69.12591258 69.42866188     6    72    0    0    0
H 852.56483598 -71.94070095 69.29820856     6    72    0    0    0
C 855.95914223 -72.28281754 67.20901683     2    72   76   77   78
H 855.33241239 -73.52043824 65.68844869     6    75    0    0    0
H 857.40575852 -71.27445560 66.34102704     6    75    0    0    0
C 857.04622711 -73.71349078 69.52536306     2    75   79   80   81
H 857.86573788 -72.51799571 70.97776026     6    78    0    0    0
H 855.57114941 -74.90280355 70.41769406     6    78    0    0    0
C 859.23934499 -75.54914254 68.97892180     2    78   82   83   84
H 858.63963165 -76.96251942 67.63785617     6    81    0    0    0
H 860.68677351 -74.58592698 68.02421084     6    81    0    0    0
C 860.47360368 -76.56804582 71.29114836     1    81   85   86   87
H 862.04803701 -77.70706665 70.70762158     6    84    0    0    0
H 859.20404468 -77.80107313 72.54788707     6    84    0    0    0
H 860.85724077 -74.98014277 72.57231849     6    84    0    0    0
H 829.19577235 -59.01545563 81.96534637     6     89    0    0    0 
C 831.25593330 -59.39031803 82.03912690     1     88    90    91    92
H 831.87935945 -59.42125568 80.10338010     6     89    0    0    0
H 832.17112840 -57.79570830 82.99579030     6     89    0    0    0
C 831.84489645 -62.01970126 83.37472880     2     89    93    94    95
H 830.93306440 -62.34667669 85.11022612     6     92    0    0    0
H 830.80645287 -63.44446024 82.13989673     6     92    0    0    0
C 834.64898290 -62.32298972 83.70084547     2     92    96   97   98
H 835.47815972 -61.73404417 81.96215856     6     95    0    0    0
H 835.23801434 -61.23035398 85.27564180     6     95    0    0    0
C 835.29788502 -65.15145711 84.56758905     2     95   99   100   101
H 834.23901622 -65.77423300 86.13117999     6    98    0    0    0
H 834.72653028 -66.43929147 83.04716245     6    98    0    0    0
C 838.23613005 -65.51149889 85.10184847     2    98   102   103   104
H 839.15170451 -64.90328141 83.41062514     6    101    0    0    0
H 838.89057482 -64.15385571 86.35584464     6    101    0    0    0
C 838.93770662 -68.30822583 85.98641648     2    101   105   106   107
H 838.10040352 -68.49773397 87.85349981     6    104    0    0    0
H 837.98318674 -69.79215704 84.82729684     6    104    0    0    0
C 841.84724486 -68.63914151 85.98037852     2    104   108   109   110
H 842.65129004 -68.56773813 84.04059637     6    107    0    0    0
H 842.63213270 -66.82022991 86.57132846     6    107    0    0    0
C 842.76183591 -70.95236288 87.43944016     2    107   111   112   113
H 841.81407168 -71.11559537 89.22081992     6    110    0    0    0
H 842.28421998 -72.56155348 86.27741474     6    110    0    0    0
C 845.59456511 -70.73398265 87.91189146     2    110   114   115   116
H 846.51639736 -70.17850877 86.15445980     6    113    0    0    0
H 845.99021998 -68.98056958 88.97802928     6    113    0    0    0
C 846.78679656 -72.94627418 89.26711762     2    113   117   118   119
H 846.19179303 -73.09977937 91.21118555     6    116    0    0    0
H 846.34241268 -74.72681338 88.23239742     6    116    0    0    0
C 849.65627637 -73.36092452 89.47389400     2    116   120   121   122
H 850.08237950 -74.84040213 90.81505729     6    119    0    0    0
H 850.55028246 -73.90219986 87.63716257     6    119    0    0    0
C 850.95569186 -70.94533237 90.43559019     1    119   123   124   125
H 852.92087433 -71.30726532 90.50102861     6    122    0    0    0
H 850.34966742 -70.05791473 92.11838114     6    122    0    0    0
H 850.78010781 -69.43203045 89.08113756     6    122    0    0    0
H 830.14956926 -46.92748434 76.45427045     6     127    0    0    0 
C 830.55064916 -46.33672196 74.57812780     1     126    128    129    130
H 829.41412594 -44.57884456 74.11456996     6     127    0    0    0
H 832.56947721 -45.86593850 74.43244929     6     127    0    0    0
C 829.89288344 -48.45833572 72.78640921     2     127    131    132    133
H 830.83425645 -50.24182088 73.24946396     6     130    0    0    0
H 827.87564625 -48.79609368 73.02925612     6     130    0    0    0
C 830.47351489 -47.78160397 70.05327924     2     130    134   135   136
H 829.10056502 -46.39945592 69.49619782     6     133    0    0    0
H 832.31456476 -47.07531937 69.89462967     6     133    0    0    0
C 830.02392018 -50.16429627 68.28775611     2     133   137   138   139
H 831.41787480 -51.63649537 68.73316499     6    136    0    0    0
H 828.33649816 -51.19509296 68.87947522     6    136    0    0    0
C 829.98833645 -49.69462230 65.36447670     2    136   140   141   142
H 828.63019321 -48.18249928 64.74864937     6    139    0    0    0
H 831.85876445 -49.19063923 64.58212101     6    139    0    0    0
C 829.15451109 -51.96671812 63.86660768     2    139   143   144   145
H 830.67718382 -53.28746952 64.01345847     6    142    0    0    0
H 827.28356783 -52.82977322 64.30387657     6    142    0    0    0
C 829.00598038 -51.44183538 60.93329000     2    142   146   147   148
H 827.93002694 -49.80224804 60.34605389     6    145    0    0    0
H 830.89852068 -50.71073714 60.36788946     6    145    0    0    0
C 828.10329502 -53.66158665 59.26702772     2    145   149   150   151
H 829.56238282 -55.13461201 59.39916706     6    148    0    0    0
H 826.36249085 -54.45817978 60.02252088     6    148    0    0    0
C 827.72560202 -52.81114936 56.51812890     2    148   152   153   154
H 827.09688939 -50.83624056 56.30752873     6    151    0    0    0
H 829.52280908 -52.78761076 55.38306726     6    151    0    0    0
C 825.74385699 -54.56124913 55.29689647     2    151   155   156   157
H 826.48419996 -55.04827503 53.48880943     6    154    0    0    0
H 825.79841485 -56.30960470 56.35835736     6    154    0    0    0
C 822.89936510 -53.70600613 55.14455936     2    154   158   159   160
H 821.82084483 -53.85258284 56.83124014     6    157    0    0    0
H 822.75849579 -51.68997844 54.67769566     6    157    0    0    0
C 821.71401173 -54.84834741 52.86264139     1    157   161   162   163
H 819.63058328 -54.80586120 52.92555087     6    160    0    0    0
H 822.04761119 -56.94215122 52.76817655     6    160    0    0    0
H 822.37732432 -54.18109338 51.04179657     6    160    0    0    0
H 841.32376831 -48.03969415 83.52497650     6     165    0    0    0 
C 839.79276173 -46.87530826 82.76860062     1     164    166    167    168
H 838.14571137 -48.10984995 82.26679001     6     165    0    0    0
H 839.20218971 -45.69038470 84.25602236     6     165    0    0    0
C 840.61378780 -45.28815158 80.51450814     2     165    169    170    171
H 841.90080127 -43.65431649 81.08730689     6     168    0    0    0
H 841.65959512 -46.46629615 79.15057990     6     168    0    0    0
C 838.17366692 -44.30012033 79.21239584     2     168    172   173   174
H 837.03547268 -45.82963182 78.45110722     6     171    0    0    0
H 836.92405762 -43.29822397 80.44850709     6     171    0    0    0
C 838.82972224 -42.32015431 77.29043099     2     171   175   176   177
H 839.68425329 -40.90936307 78.55091562     6    174    0    0    0
H 840.28775061 -42.63182848 75.81863460     6    174    0    0    0
C 836.44946996 -41.19533646 75.92681558     2    174   178   179   180
H 835.34980690 -42.68366551 74.87138522     6    177    0    0    0
H 835.15582747 -40.43558236 77.29870354     6    177    0    0    0
C 837.31398533 -39.00065527 74.18921353     2    177   181   182   183
H 838.51903254 -37.59419244 75.13242116     6    180    0    0    0
H 838.39559569 -39.63739756 72.58180244     6    180    0    0    0
C 834.96022881 -37.84297691 73.02663793     2    180   184   185   186
H 833.86710667 -39.24623735 72.07481999     6    183    0    0    0
H 833.81465671 -37.26626693 74.75602435     6    183    0    0    0
C 835.45961022 -35.65296454 70.94752664     2    183   187   188   189
H 836.52124270 -34.12563194 71.85649721     6    186    0    0    0
H 836.62924727 -36.09606876 69.31462317     6    186    0    0    0
C 832.97758221 -34.79340398 69.65300911     2    186   190   191   192
H 831.69160994 -36.24716950 68.96818873     6    189    0    0    0
H 831.82867801 -33.52469185 70.80005504     6    189    0    0    0
C 833.60099931 -32.91175928 67.63076780     2    189   193   194   195
H 834.72989657 -31.24776605 68.04019367     6    192    0    0    0
H 834.65465813 -33.91867788 66.16181155     6    192    0    0    0
C 831.27961618 -31.98551509 66.19102252     2    192   196   197   198
H 830.23334995 -33.45337350 65.22145604     6    195    0    0    0
H 829.88618843 -31.26313034 67.40180331     6    195    0    0    0
C 831.81065326 -29.99734005 63.98277770     1    195   199   200   201
H 830.20869710 -29.84744650 62.63894872     6    198    0    0    0
H 833.39287480 -30.51295967 62.73306874     6    198    0    0    0
H 832.36233863 -28.07141019 64.59243198     6    198    0    0    0
H 850.22480498 -52.54895346 67.56631259     6     203    0    0    0 
C 849.97693973 -50.79766169 68.51201205     1     202    204    205    206
H 850.87826448 -49.37930213 67.47104603     6     203    0    0    0
H 848.10404629 -50.16535379 68.51887875     6     203    0    0    0
C 851.07225730 -50.86719050 71.12664947     2     203    207    208    209
H 850.67275859 -49.17463200 72.12826430     6     206    0    0    0
H 850.12817761 -52.42625211 72.03322861     6     206    0    0    0
C 853.79791370 -51.43177112 71.37823332     2     206    210   211   212
H 854.10537536 -51.90524419 73.37615825     6     209    0    0    0
H 854.27381833 -53.09963949 70.23131362     6     209    0    0    0
C 855.76963270 -49.20712010 70.77789488     2     209   213   214   215
H 855.87226659 -48.93152992 68.76167186     6    212    0    0    0
H 855.04903339 -47.31778252 71.29073928     6    212    0    0    0
C 858.45874450 -49.45876745 72.15068531     2    212   216   217   218
H 858.29840785 -49.50606894 74.24973641     6    215    0    0    0
H 859.40844155 -51.19799164 71.52069137     6    215    0    0    0
C 860.25573511 -47.29907430 71.13032793     2    215   219   220   221
H 860.42878987 -47.07574203 69.05921893     6    218    0    0    0
H 859.28257963 -45.47586462 71.45961030     6    218    0    0    0
C 862.91429207 -47.58989247 72.34975073     2    218   222   223   224
H 862.57905111 -47.43691679 74.40987036     6    221    0    0    0
H 863.88283415 -49.34218319 71.72400205     6    221    0    0    0
C 864.56525352 -45.42177215 71.73136171     2    221   225   226   227
H 864.59196203 -45.32976609 69.72374915     6    224    0    0    0
H 863.79406044 -43.57058218 72.47489086     6    224    0    0    0
C 867.16025164 -45.52354271 73.05177646     2    224   228   229   230
H 867.09743162 -45.63531428 75.07648894     6    227    0    0    0
H 868.17406015 -47.22980199 72.32396263     6    227    0    0    0
C 869.02068002 -43.41400328 72.44320050     2    227   231   232   233
H 869.24443913 -43.26425695 70.38120257     6    230    0    0    0
H 868.36115503 -41.45823314 72.99326524     6    230    0    0    0
C 871.67913585 -43.76684014 73.58985438     2    230   234   235   236
H 871.45086832 -44.01583343 75.60816770     6    233    0    0    0
H 872.61915745 -45.54740460 72.83248754     6    233    0    0    0
C 873.75934823 -41.79204171 73.04482093     1    233   237   238   239
H 875.36458763 -42.08264630 74.28298766     6    236    0    0    0
H 873.07537475 -39.88397115 73.48507751     6    236    0    0    0
H 874.42591355 -41.77113701 71.10193186     6    236    0    0    0
H 853.54451332 -79.41254847 70.55740411     6     241    0    0    0 
C 851.68942651 -78.92468862 71.38320558     1     240    242    243    244
H 852.08052304 -77.19982923 72.39972734     6     241    0    0    0
H 850.40860277 -78.34817528 69.94922629     6     241    0    0    0
C 850.73495179 -80.90280990 73.14315640     2     241    245    246    247
H 852.07145792 -81.30495115 74.56932481     6     244    0    0    0
H 848.85744559 -80.32578596 73.85742990     6     244    0    0    0
C 850.41588317 -83.65120220 72.07340829     2     244    248   249   250
H 849.55092238 -85.04874342 73.35203666     6     247    0    0    0
H 848.98862003 -83.43985017 70.58723055     6     247    0    0    0
C 852.65288335 -84.88364491 70.65929287     2     247   251   252   253
H 851.94383096 -86.53702105 69.64673362     6    250    0    0    0
H 853.34637162 -83.48722307 69.20788838     6    250    0    0    0
C 854.96233124 -85.51916491 72.39682756     2    250   254   255   256
H 855.73034280 -83.71325782 73.05524896     6    253    0    0    0
H 854.05187185 -86.24903487 74.08992820     6    253    0    0    0
C 856.98720916 -87.21245744 71.33415172     2    253   257   258   259
H 858.34724531 -87.33213201 72.87014835     6    256    0    0    0
H 856.36279012 -89.12311767 71.07631092     6    256    0    0    0
C 858.20938601 -86.52830606 68.83676277     2    256   260   261   262
H 856.74612221 -86.21513842 67.39344353     6    259    0    0    0
H 858.95359964 -84.53792254 68.86180087     6    259    0    0    0
C 860.15535757 -88.52469433 67.85938980     2    259   263   264   265
H 861.53764353 -88.96242611 69.25086718     6    262    0    0    0
H 859.09030677 -90.13156337 67.40217122     6    262    0    0    0
C 861.56529063 -87.79000680 65.41810720     2    262   266   267   268
H 860.37810079 -88.13468079 63.73904571     6    265    0    0    0
H 861.95859147 -85.72999213 65.53158898     6    265    0    0    0
C 864.10154921 -89.22293031 65.08509766     2    265   269   270   271
H 865.23321651 -89.18350685 66.74759853     6    268    0    0    0
H 863.97205735 -91.23852833 64.76637739     6    268    0    0    0
C 865.63106037 -88.24640344 62.86726119     2    268   272   273   274
H 864.23042275 -87.81724277 61.47430380     6    271    0    0    0
H 866.30987333 -86.37895569 63.17527818     6    271    0    0    0
C 867.85828240 -89.80795853 61.71585586     1    271   275   276   277
H 869.53927920 -90.25878753 62.89265420     6    274    0    0    0
H 868.61586447 -88.75135520 60.06982030     6    274    0    0    0
H 867.02545855 -91.41017769 60.76923356     6    274    0    0    0
H 849.50273484 -55.22469700 81.72165408     6     279    0    0    0 
C 848.66414998 -55.57902873 79.82377331     1     278    280    281    282
H 848.05994283 -57.53881765 79.53629350     6     279    0    0    0
H 847.13517218 -54.35021002 79.47935860     6     279    0    0    0
C 850.75651616 -55.21256334 78.05924770     2     279    283    284    285
H 849.99380613 -54.86141035 76.18872867     6     282    0    0    0
H 851.74799028 -53.46502884 78.29011168     6     282    0    0    0
C 852.76813930 -57.43235313 78.07793959     2     282    286   287   288
H 853.54171565 -57.69341027 79.99604471     6     285    0    0    0
H 851.73596160 -59.18403878 77.48544728     6     285    0    0    0
C 855.13037382 -56.85942807 76.42446174     2     285   289   290   291
H 854.48030231 -56.93493322 74.48373668     6    288    0    0    0
H 855.87859320 -54.91746278 76.60978278     6    288    0    0    0
C 857.02591369 -58.96556734 77.00544859     2    288   292   293   294
H 857.69781610 -58.90504651 78.87215532     6    291    0    0    0
H 856.21468474 -60.91227247 76.59256250     6    291    0    0    0
C 859.34664494 -58.87735630 75.49326681     2    291   295   296   297
H 858.80365175 -59.31248140 73.61028564     6    294    0    0    0
H 859.89803586 -56.99871421 75.36266405     6    294    0    0    0
C 861.61796981 -60.60943734 76.17116374     2    294   298   299   300
H 862.87358830 -59.81051640 77.76599288     6    297    0    0    0
H 861.20860123 -62.56340887 76.73085123     6    297    0    0    0
C 863.31760978 -60.81785816 73.82573784     2    297   301   302   303
H 862.40199138 -61.53894506 72.07489625     6    300    0    0    0
H 864.04057069 -58.91893842 73.19949488     6    300    0    0    0
C 865.66211271 -62.52129963 74.18903474     2    300   304   305   306
H 866.78723067 -61.85207564 75.78385830     6    303    0    0    0
H 865.03084370 -64.27569427 74.56104299     6    303    0    0    0
C 867.24442021 -62.57573731 71.79301794     2    303   307   308   309
H 866.43959679 -63.52518566 70.13347188     6    306    0    0    0
H 867.62585988 -60.59253273 71.30427838     6    306    0    0    0
C 869.88859772 -63.74366149 72.07960091     2    306   310   311   312
H 870.90506450 -62.65418783 73.53657553     6    309    0    0    0
H 869.53810414 -65.81089520 72.71781242     6    309    0    0    0
C 871.33570376 -63.65495037 69.51577601     1    309   313   314   315
H 871.42860298 -61.83535994 68.51079435     6    312    0    0    0
H 870.60981955 -65.14734212 68.30457406     6    312    0    0    0
H 873.33122595 -64.07205347 69.64746444     6    312    0    0    0
H 831.99406702 -64.02795876 75.96264049     6     317    0    0    0 
C 833.88494774 -63.28905591 75.54703645     1     316    318    319    320
H 834.13686323 -61.54929671 76.58996131     6     317    0    0    0
H 835.29642795 -64.46390306 76.39066752     6     317    0    0    0
C 834.32088559 -63.05641297 72.72822381     2     317    321    322    323
H 836.06448167 -61.95822982 72.37159427     6     320    0    0    0
H 834.75971935 -64.92932510 72.15631125     6     320    0    0    0
C 832.05976444 -62.08631765 71.17196448     2     320    324   325   326
H 830.27205467 -63.11595398 71.57229045     6     323    0    0    0
H 831.76641582 -60.21410232 71.76219302     6     323    0    0    0
C 832.38126937 -62.13823525 68.26384003     2     323   327   328   329
H 833.91107390 -60.77138439 67.84937981     6    326    0    0    0
H 832.99991606 -64.03329755 67.79589482     6    326    0    0    0
C 829.95557021 -61.45914837 66.94913673     2    326   330   331   332
H 828.30413115 -62.18344394 68.15283739     6    329    0    0    0
H 829.72982927 -59.38707296 66.95189323     6    329    0    0    0
C 829.72918091 -62.59885257 64.40855715     2    329   333   334   335
H 830.59663949 -64.48097567 64.42271945     6    332    0    0    0
H 827.74991923 -62.87443175 63.93883139     6    332    0    0    0
C 831.35360942 -61.11070957 62.51049514     2    332   336   337   338
H 830.82602525 -59.14717731 62.68582039     6    335    0    0    0
H 833.42083777 -61.33432454 62.90528103     6    335    0    0    0
C 831.12427960 -62.05767034 59.64112125     2    335   339   340   341
H 832.58035536 -61.42946264 58.33414148     6    338    0    0    0
H 831.10973626 -63.99097938 59.85126537     6    338    0    0    0
C 828.47197975 -61.23677510 58.43989183     2    338   342   343   344
H 827.02834435 -61.96847065 59.58777242     6    341    0    0    0
H 828.27294546 -59.20631931 58.64564080     6    341    0    0    0
C 828.06636438 -61.96921392 55.60659569     2    341   345   346   347
H 826.32999406 -61.05337934 55.02497784     6    344    0    0    0
H 829.36468677 -61.11122732 54.30187432     6    344    0    0    0
C 827.87952986 -64.95583878 55.27502504     2    344   348   349   350
H 829.66812535 -65.85315432 55.69645233     6    347    0    0    0
H 826.48779206 -65.78904729 56.58530551     6    347    0    0    0
C 827.03728835 -65.64280772 52.55438823     1    347   351   352   353
H 826.53489337 -67.67355461 52.26580587     6    350    0    0    0
H 828.43030434 -64.82330771 51.16857496     6    350    0    0    0
H 825.14070445 -64.81006295 52.05154891     6    350    0    0    0
H 852.41494783 -70.53952013 74.01836968     6     355    0    0    0 
C 851.03690711 -69.17898263 74.51689563     1     354    356    357    358
H 851.19622323 -68.28985796 76.42199909     6     355    0    0    0
H 851.29290818 -67.52355709 73.24398466     6     355    0    0    0
C 848.35378771 -70.25411641 74.16067069     2     355    359    360    361
H 848.19063854 -70.38779875 72.09796449     6     358    0    0    0
H 848.15035773 -72.04275085 75.18641282     6     358    0    0    0
C 846.42037952 -68.50236661 75.10623148     2     358    362   363   364
H 844.48570951 -69.41195246 74.83878057     6     361    0    0    0
H 846.77494247 -68.01209417 77.11210421     6     361    0    0    0
C 846.28121463 -65.95007272 73.92294813     2     361   365   366   367
H 848.03182964 -64.92715339 74.20557594     6    364    0    0    0
H 845.94109713 -65.93054624 71.90632786     6    364    0    0    0
C 844.13167055 -64.56730284 75.14953246     2    364   368   369   370
H 842.36799143 -65.47530356 74.46823663     6    367    0    0    0
H 844.20386369 -64.57858973 77.20515140     6    367    0    0    0
C 844.25184659 -61.85294728 74.31743004     2    367   371   372   373
H 845.83503603 -60.66384125 74.92105649     6    370    0    0    0
H 843.89472996 -61.71106676 72.18220878     6    370    0    0    0
C 841.96805019 -60.37666041 75.18260738     2    370   374   375   376
H 840.20252547 -61.11800292 74.30542506     6    373    0    0    0
H 841.65113212 -60.82600615 77.13157018     6    373    0    0    0
C 841.97811924 -57.47769809 74.61130957     2    373   377   378   379
H 843.90978090 -57.00388466 75.41349264     6    376    0    0    0
H 841.91595488 -56.89494713 72.55809854     6    376    0    0    0
C 839.95580210 -55.87541757 76.28344858     2    376   380   381   382
H 839.93888028 -56.97221933 78.10640189     6    379    0    0    0
H 840.43787747 -53.98357124 76.76325656     6    379    0    0    0
C 837.31618681 -55.46121253 75.04307858     2    379   383   384   385
H 837.58883600 -54.85710855 73.05771792     6    382    0    0    0
H 836.46802574 -57.24603343 74.65686672     6    382    0    0    0
C 835.48583038 -53.58710430 76.37168965     2    382   386   387   388
H 833.64883680 -54.02659216 75.56594223     6    385    0    0    0
H 835.38600704 -54.26477712 78.37489458     6    385    0    0    0
C 836.02906634 -50.69810008 76.51663349     1    385   389   390   391
H 836.18310028 -49.99174246 74.55641137     6    388    0    0    0
H 837.66181378 -50.15798727 77.72841005     6    388    0    0    0
H 834.57010453 -49.39806696 77.22976553     6    388    0    0    0
H 830.53990057 -80.22275279 31.12668935     6     393    0    0    0 
C 832.45213669 -80.51159675 31.58920659     1     392    394    395    396
H 832.56476495 -82.50183834 31.84190104     6     393    0    0    0
H 833.24687208 -80.26153723 29.68556349     6     393    0    0    0
C 833.39871010 -78.67315157 33.68473900     2     393    397    398    399
H 833.35507908 -76.54594891 33.26493996     6     396    0    0    0
H 832.13875586 -78.95636798 35.21161784     6     396    0    0    0
C 836.02178423 -79.59614642 34.62194813     2     396    400   401   402
H 835.65736036 -81.44090173 35.47503812     6     399    0    0    0
H 837.10320128 -80.02646236 32.94141125     6     399    0    0    0
C 837.67387425 -78.05764612 36.38120314     2     399   403   404   405
H 838.34985830 -76.40403312 35.40486386     6    402    0    0    0
H 836.64985074 -77.49514507 38.10634137     6    402    0    0    0
C 839.76304873 -79.83454201 37.15374536     2    402   406   407   408
H 839.11766075 -81.22549053 38.34364934     6    405    0    0    0
H 840.52658817 -80.78279893 35.49358973     6    405    0    0    0
C 841.93461785 -78.44576720 38.40825446     2    405   409   410   411
H 842.63840452 -77.03805948 37.08269469     6    408    0    0    0
H 841.22901668 -77.50452540 40.00696642     6    408    0    0    0
C 844.17417924 -80.17261277 39.13883086     2    408   412   413   414
H 843.44259492 -81.72259704 40.34169265     6    411    0    0    0
H 844.92674607 -80.87238985 37.29659768     6    411    0    0    0
C 846.45741165 -78.85646314 40.43245389     2    411   415   416   417
H 846.74208871 -76.97444507 39.63909190     6    414    0    0    0
H 845.90880520 -78.51977030 42.40578286     6    414    0    0    0
C 848.80922254 -80.47227521 40.19996341     2    414   418   419   420
H 848.31594562 -82.33460530 40.55604693     6    417    0    0    0
H 849.63595657 -80.38515812 38.23689836     6    417    0    0    0
C 850.88177395 -79.61983764 42.17020731     2    417   421   422   423
H 850.47494949 -80.27831422 44.07171545     6    420    0    0    0
H 852.83835982 -80.54992462 41.93358716     6    420    0    0    0
C 851.53940287 -76.78432473 42.10092815     2    420   424   425   426
H 851.82253770 -76.27173346 40.20456650     6    423    0    0    0
H 849.80563842 -75.81618304 42.52111540     6    423    0    0    0
C 853.73099700 -75.88015645 43.67070705     1    423   427   428   429
H 854.10263195 -73.88314064 43.22389552     6    426    0    0    0
H 855.42035621 -77.15643732 43.40516876     6    426    0    0    0
H 853.22217528 -75.92629668 45.50550552     6    426    0    0    0
H 837.92471611 -88.48733777 55.71030905     6     431    0    0    0 
C 837.03271395 -89.45110520 54.16254191     1     430    432    433    434
H 838.39672853 -89.41282634 52.66298583     6     431    0    0    0
H 836.45960778 -91.29461646 54.69535008     6     431    0    0    0
C 834.74280695 -87.84123578 53.23362879     2     431    435    436    437
H 833.81484034 -86.98317758 54.89348004     6     434    0    0    0
H 835.60951488 -86.28217877 52.32842776     6     434    0    0    0
C 833.10903489 -89.43053619 51.46663934     2     434    438   439   440
H 834.37032555 -90.82219775 50.40306155     6     437    0    0    0
H 831.67462493 -90.57714453 52.42145202     6     437    0    0    0
C 831.51335389 -87.73539330 49.64732809     2     437   441   442   443
H 829.63684179 -88.62344961 49.38139479     6    440    0    0    0
H 831.19707559 -86.00240199 50.58004578     6    440    0    0    0
C 833.03268627 -87.20850089 47.08591988     2    440   444   445   446
H 834.61351609 -85.85484631 47.40332787     6    443    0    0    0
H 833.86826690 -88.83276598 46.14054345     6    443    0    0    0
C 831.35238892 -86.06133669 45.20790876     2    443   447   448   449
H 830.55296602 -84.32006621 45.92206620     6    446    0    0    0
H 832.60158161 -85.64329354 43.65166479     6    446    0    0    0
C 828.97392066 -87.64558807 44.35753003     2    446   450   451   452
H 829.58828351 -89.43616460 43.52363823     6    449    0    0    0
H 827.80922433 -88.50341044 45.87691213     6    449    0    0    0
C 827.01987784 -86.16193808 42.86674315     2    449   453   454   455
H 825.32012515 -87.23805727 43.13363973     6    452    0    0    0
H 826.62986360 -84.50937018 43.90813732     6    452    0    0    0
C 827.44525244 -85.65071029 39.95123552     2    452   456   457   458
H 829.09799784 -84.51295724 39.89817061     6    455    0    0    0
H 827.88470134 -87.20026691 39.01979082     6    455    0    0    0
C 825.17802050 -84.31778442 38.69838536     2    455   459   460   461
H 823.78797686 -85.72254111 38.55789718     6    458    0    0    0
H 824.58549328 -82.94260200 40.04066013     6    458    0    0    0
C 825.44091340 -83.24078920 36.02136673     2    458   462   463   464
H 826.99800676 -81.86389281 36.02015745     6    461    0    0    0
H 825.75730922 -84.86186715 34.82929883     6    461    0    0    0
C 823.22077958 -81.64389487 34.94827391     1    461   465   466   467
H 822.99092221 -80.13670101 36.39159312     6    464    0    0    0
H 821.28128641 -82.46973648 35.04124155     6    464    0    0    0
H 823.46182769 -80.80841718 33.10683576     6    464    0    0    0
H 835.72892030 -54.55254786 84.14435746     6     469    0    0    0 
C 837.24106732 -53.34626175 84.85895066     1     468    470    471    472
H 837.76785808 -52.18728493 83.21338449     6     469    0    0    0
H 836.46696121 -52.17017350 86.41383999     6     469    0    0    0
C 839.50379318 -54.86176603 85.88278577     2     469    473    474    475
H 840.78320720 -53.67314577 87.11657386     6     472    0    0    0
H 838.67781966 -56.24838052 87.11058689     6     472    0    0    0
C 841.08375636 -56.33209175 83.88029262     2     472    476   477   478
H 839.61679295 -57.57716529 83.04671444     6     475    0    0    0
H 841.74340237 -55.12499647 82.38438400     6     475    0    0    0
C 843.04638382 -57.96788267 85.25044189     2     475   479   480   481
H 844.42604255 -56.88225829 86.30116954     6    478    0    0    0
H 842.15326033 -59.13294176 86.63345695     6    478    0    0    0
C 844.16555992 -59.83284868 83.37684526     2    478   482   483   484
H 842.83707166 -61.32570090 83.03920057     6    481    0    0    0
H 844.66440507 -58.86575667 81.52416196     6    481    0    0    0
C 846.46822542 -61.17014879 84.53091203     2    481   485   486   487
H 847.52621167 -59.76452125 85.72752440     6    484    0    0    0
H 845.66949430 -62.60424790 85.89309820     6    484    0    0    0
C 848.23558007 -62.51056028 82.63431076     2    484   488   489   490
H 847.02435456 -63.70601588 81.59748113     6    487    0    0    0
H 849.02797866 -61.06564658 81.29335305     6    487    0    0    0
C 850.31408205 -64.15552025 84.02336846     2    487   491   492   493
H 851.76041700 -62.79379137 84.70017890     6    490    0    0    0
H 849.37606428 -64.99945218 85.59735358     6    490    0    0    0
C 851.12570806 -66.07332687 82.15188697     2    490   494   495   496
H 849.72168438 -66.87880269 81.01054860     6    493    0    0    0
H 852.40465068 -64.89832997 80.93798733     6    493    0    0    0
C 852.57579029 -68.31989776 83.14221787     2    493   497   498   499
H 854.37917255 -67.57621754 83.69437050     6    496    0    0    0
H 851.52959367 -68.88924228 84.79127088     6    496    0    0    0
C 852.63280640 -70.55546301 81.40002620     2    496   500   501   502
H 850.75244992 -71.12392587 80.89728286     6    499    0    0    0
H 853.56637698 -69.85930864 79.60962501     6    499    0    0    0
C 853.97180018 -72.92206271 82.55783027     1    499   503   504   505
H 853.60618862 -74.51445976 81.45775597     6    502    0    0    0
H 853.34848286 -73.24852056 84.44367426     6    502    0    0    0
H 856.05242985 -72.74700939 82.81853523     6    502    0    0    0
H 864.89452159 -95.79602791 56.42185399     6     507    0    0    0 
C 863.71420024 -94.84224567 54.88651735     1     506    508    509    510
H 864.75115487 -93.26137187 54.30733624     6     507    0    0    0
H 863.61682991 -96.13614958 53.25612317     6     507    0    0    0
C 861.19292240 -93.95957772 56.10289733     2     507    511    512    513
H 860.30319311 -95.43671475 57.32778332     6     510    0    0    0
H 861.61144228 -92.31185881 57.28394380     6     510    0    0    0
C 859.35253825 -93.04103819 54.04098343     2     510    514   515   516
H 860.35967933 -92.06798021 52.51751238     6     513    0    0    0
H 858.40858123 -94.62888664 53.12114736     6     513    0    0    0
C 857.32261446 -91.24547178 55.02053785     2     513   517   518   519
H 855.95098828 -92.16716006 56.22510884     6    516    0    0    0
H 858.16911532 -89.82716813 56.30621188     6    516    0    0    0
C 856.25633909 -89.64430167 52.81326734     2    516   520   521   522
H 857.53036979 -88.28023190 52.16762139     6    519    0    0    0
H 855.94671051 -90.91749581 51.27083058     6    519    0    0    0
C 853.86832681 -88.15609502 53.58463611     2    519   523   524   525
H 852.45536291 -89.36865014 54.28563637     6    522    0    0    0
H 854.47485602 -86.87149698 55.05624223     6    522    0    0    0
C 853.01005510 -86.77791974 51.19866800     2    522   526   527   528
H 854.34668605 -85.24483063 50.75663870     6    525    0    0    0
H 852.92422542 -87.93866775 49.47036133     6    525    0    0    0
C 850.31196871 -85.85078772 51.48914899     2    525   529   530   531
H 849.03546816 -87.27456225 52.11779727     6    528    0    0    0
H 850.19036970 -84.66906697 53.20592946     6    528    0    0    0
C 849.12981726 -84.56720993 49.29922868     2    528   532   533   534
H 849.43576572 -82.59351216 49.63814740     6    531    0    0    0
H 849.89291435 -85.38709840 47.53188423     6    531    0    0    0
C 846.26016743 -84.81376060 49.26944089     2    531   535   536   537
H 845.50949284 -86.72867611 48.94814890     6    534    0    0    0
H 845.66934872 -84.18730020 51.09074731     6    534    0    0    0
C 845.14593993 -83.11801450 47.24128806     2    534   538   539   540
H 846.11027387 -81.32398292 47.40283927     6    537    0    0    0
H 845.44024865 -83.76035107 45.31588768     6    537    0    0    0
C 842.42332384 -82.22430449 47.74305735     1    537   541   542   543
H 841.99549757 -80.40125784 46.70129029     6    540    0    0    0
H 842.29658961 -82.02906503 49.77199071     6    540    0    0    0
H 841.29072785 -83.75973031 47.02036072     6    540    0    0    0
H 836.68217653 -70.35295436 46.40332030     6     545    0    0    0 
C 836.37422431 -68.61972640 45.42137478     1     544    546    547    548
H 838.19480359 -67.62456954 45.54379610     6     545    0    0    0
H 836.23468889 -69.37434289 43.57204868     6     545    0    0    0
C 834.11166776 -67.28546619 46.37316034     2     545    549    550    551
H 832.48258700 -68.48111083 46.23740796     6     548    0    0    0
H 834.27366316 -66.59092262 48.43753879     6     548    0    0    0
C 833.62656940 -64.68232470 44.95985888     2     548    552   553   554
H 835.35280973 -63.50553597 44.96241093     6     551    0    0    0
H 833.25548646 -65.09582722 42.98480436     6     551    0    0    0
C 831.49800638 -63.13638721 46.13154414     2     551   555   556   557
H 829.60316698 -64.10447891 45.75972532     6    554    0    0    0
H 831.57225069 -63.45940995 48.11177576     6    554    0    0    0
C 831.30808065 -60.40159436 45.22843174     2    554   558   559   560
H 833.12572360 -59.52333405 45.01486426     6    557    0    0    0
H 830.69780101 -60.70999403 43.26449922     6    557    0    0    0
C 829.32815227 -58.79205570 46.56104900     2    557   561   562   563
H 827.42912276 -59.56508263 46.26268850     6    560    0    0    0
H 829.64018701 -59.10029850 48.60610492     6    560    0    0    0
C 829.43822073 -55.93782958 45.87839967     2    560   564   565   566
H 831.28746711 -55.48438114 45.96698164     6    563    0    0    0
H 828.80016486 -55.98471525 43.97703332     6    563    0    0    0
C 827.88184121 -54.31290276 47.64004256     2    563   567   568   569
H 826.16769705 -55.25530774 48.31670318     6    566    0    0    0
H 828.93248109 -54.10145557 49.37891686     6    566    0    0    0
C 827.00023121 -52.06745387 46.20585720     2    566   570   571   572
H 826.18617165 -52.71516696 44.38259573     6    569    0    0    0
H 825.37979199 -51.24418730 47.34588696     6    569    0    0    0
C 829.08046664 -49.96455012 45.79094449     2    569   573   574   575
H 829.76488763 -49.16943281 47.60394714     6    572    0    0    0
H 830.75400233 -50.85755727 45.05034575     6    572    0    0    0
C 828.05399760 -47.93984227 43.95641938     2    572   576   577   578
H 826.15399655 -47.36409137 44.31688059     6    575    0    0    0
H 829.47527016 -46.32775530 44.13550798     6    575    0    0    0
C 828.21098198 -48.67623171 41.11330375     1    575   579   580   581
H 826.96399630 -50.19693810 40.91484888     6    578    0    0    0
H 830.12723204 -49.19534869 40.51761162     6    578    0    0    0
H 827.55074890 -47.04562061 39.99781477     6    578    0    0    0
H 844.97299391 -52.30097080 76.02245396     6     583    0    0    0 
C 844.96731032 -50.76144575 74.78753447     1     582    584    585    586
H 845.92709614 -49.16811671 75.75030930     6     583    0    0    0
H 846.19750685 -51.31254832 73.21855825     6     583    0    0    0
C 842.30165439 -50.06926411 73.83122804     2     583    587    588    589
H 841.12195695 -51.59646466 73.17155681     6     586    0    0    0
H 841.24172714 -49.42371984 75.52966301     6     586    0    0    0
C 842.34827387 -48.00344902 71.72653883     2     586    590   591   592
H 843.32750301 -46.38087812 72.41509690     6     589    0    0    0
H 843.21302193 -48.56779172 69.96710388     6     589    0    0    0
C 839.59869015 -47.17345653 71.17945213     2     589   593   594   595
H 838.43599350 -48.74994312 70.59033308     6    592    0    0    0
H 838.83234594 -46.44097460 73.03194578     6    592    0    0    0
C 839.47114268 -45.04446188 69.04157593     2    592   596   597   598
H 840.23950435 -43.30623929 69.80476442     6    595    0    0    0
H 840.57015597 -45.39633449 67.40753644     6    595    0    0    0
C 836.77926625 -44.43817359 68.27694505     2    595   599   600   601
H 835.76473156 -46.06461413 67.77767854     6    598    0    0    0
H 835.72014099 -43.54519859 69.93238524     6    598    0    0    0
C 836.80106607 -42.58471575 66.09891728     2    598   602   603   604
H 837.80399102 -40.75102377 66.74052465     6    601    0    0    0
H 838.00267708 -43.18276804 64.52279133     6    601    0    0    0
C 834.19541099 -42.09956322 64.77398185     2    601   605   606   607
H 833.87176609 -43.84836059 63.59249267     6    604    0    0    0
H 832.85376884 -41.78052698 66.15467079     6    604    0    0    0
C 834.32235487 -39.89003253 62.87436149     2    604   608   609   610
H 834.62001740 -38.20443464 63.91727846     6    607    0    0    0
H 836.04263127 -40.09443461 61.69795916     6    607    0    0    0
C 831.66765608 -39.58054433 61.37827193     2    607   611   612   613
H 831.23067300 -41.32342530 60.32322284     6    610    0    0    0
H 830.17015081 -39.33910231 62.75118101     6    610    0    0    0
C 831.75344924 -37.27532111 59.59091592     2    610   614   615   616
H 832.11305864 -35.46024989 60.45965449     6    613    0    0    0
H 833.24926923 -37.80358831 58.15849263     6    613    0    0    0
C 829.25301400 -37.09801951 58.24838476     1    613   617   618   619
H 829.11093209 -35.56196786 56.83893644     6    616    0    0    0
H 827.69343540 -36.93839365 59.71906434     6    616    0    0    0
H 828.87451054 -38.74848268 57.03702779     6    616    0    0    0
H 854.57675758 -61.89340469 42.26485540     6     621    0    0    0 
C 854.65207038 -63.31763196 43.68395362     1     620    622    623    624
H 852.76293666 -63.91382139 44.42919052     6     621    0    0    0
H 855.48866386 -64.92422850 42.52162671     6     621    0    0    0
C 856.84692533 -63.00837246 45.50550807     2     621    625    626    627
H 856.98030031 -64.54290182 46.78116204     6     624    0    0    0
H 858.41576172 -63.36311793 44.28109866     6     624    0    0    0
C 857.08101229 -60.35046710 46.71799182     2     624    628   629   630
H 855.69562984 -59.06531385 45.71466762     6     627    0    0    0
H 856.23454067 -60.27840392 48.65501758     6     627    0    0    0
C 859.84157207 -59.33544229 46.79135581     2     627   631   632   633
H 860.99173298 -60.71036723 47.76013323     6    630    0    0    0
H 860.35483610 -59.28957352 44.80601208     6    630    0    0    0
C 860.10980708 -56.66081855 47.94862983     2    630   634   635   636
H 859.02171626 -55.27537670 47.05832145     6    633    0    0    0
H 859.53798698 -56.67016099 49.88697215     6    633    0    0    0
C 862.88907996 -55.85602154 47.91316653     2    633   637   638   639
H 864.16466933 -57.15903642 48.88696820     6    636    0    0    0
H 863.59810154 -55.83711527 46.03929648     6    636    0    0    0
C 863.41454605 -53.37970114 49.27011422     2    636   640   641   642
H 862.21057292 -51.96836372 48.28218410     6    639    0    0    0
H 862.83875732 -53.55748355 51.25590659     6    639    0    0    0
C 866.09681503 -52.49428674 49.01591703     2    639   643   644   645
H 867.46211982 -53.70189696 49.73470353     6    642    0    0    0
H 866.75477802 -52.31322876 47.07299772     6    642    0    0    0
C 866.56423396 -50.04712564 50.48393831     2    642   646   647   648
H 865.39825802 -48.69345393 49.40866894     6    645    0    0    0
H 865.53279464 -49.96916630 52.26890014     6    645    0    0    0
C 869.31721519 -49.48485949 51.02574920     2    645   649   650   651
H 870.12261948 -50.88967059 52.38811005     6    648    0    0    0
H 870.25604027 -49.75953593 49.25348927     6    648    0    0    0
C 869.68185637 -46.92143648 52.35525583     2    648   652   653   654
H 869.02171572 -45.42168035 51.25902770     6    651    0    0    0
H 868.67663768 -46.83597827 54.14993789     6    651    0    0    0
C 872.53060050 -46.62952421 53.06240153     1    651   655   656   657
H 873.16329489 -47.71212950 54.60025613     6    654    0    0    0
H 872.63424464 -44.65172944 53.59093554     6    654    0    0    0
H 873.61746599 -47.41119775 51.48053797     6    654    0    0    0
H 846.47185918 -51.96299556 63.86597666     6     659    0    0    0 
C 845.77749567 -50.72484068 62.50007679     1     658    660    661    662
H 847.32784644 -49.73567776 61.26029145     6     659    0    0    0
H 844.61331345 -51.99835009 61.34895338     6     659    0    0    0
C 844.40905711 -48.59485144 63.96581007     2     659    663    664    665
H 843.05262562 -49.52020086 65.08893138     6     662    0    0    0
H 845.77679227 -47.57106260 65.14378905     6     662    0    0    0
C 842.72536434 -46.89204065 62.26300449     2     662    666   667   668
H 842.26528138 -45.17796345 63.44974851     6     665    0    0    0
H 844.04573376 -46.35702593 60.70702872     6     665    0    0    0
C 840.35139428 -48.43924663 61.46819150     2     665   669   670   671
H 841.01127300 -50.36047108 60.87906075     6    668    0    0    0
H 838.98943001 -48.85790519 63.04255437     6    668    0    0    0
C 838.72157285 -47.12503471 59.60060499     2    668   672   673   674
H 837.67298447 -45.40160036 60.61067794     6    671    0    0    0
H 839.99424191 -46.50912774 58.26838028     6    671    0    0    0
C 836.57724501 -48.99946214 58.65185948     2    671   675   676   677
H 837.47288815 -50.74424804 58.28659718     6    674    0    0    0
H 835.40115910 -49.38862420 60.22811711     6    674    0    0    0
C 834.66397882 -48.01489628 56.64925931     2    674   678   679   680
H 833.00065926 -49.20006917 56.37725676     6    677    0    0    0
H 833.88597612 -46.22523899 57.29273060     6    677    0    0    0
C 835.81607146 -47.65471374 53.93437279     2    677   681   682   683
H 837.85794231 -47.71047070 54.16208490     6    680    0    0    0
H 835.42453034 -49.41102817 53.08705934     6    680    0    0    0
C 834.87330630 -45.47502210 52.30262364     2    680   684   685   686
H 835.19384750 -43.51204309 53.00299332     6    683    0    0    0
H 835.82329251 -45.63800177 50.42547799     6    683    0    0    0
C 832.03365562 -45.92272892 51.87761304     2    683   687   688   689
H 831.88317594 -47.63751958 50.88645052     6    686    0    0    0
H 830.72253687 -45.98263105 53.54742603     6    686    0    0    0
C 830.86829236 -44.02590856 50.00443913     2    686   690   691   692
H 831.31447270 -42.19993034 50.61712570     6    689    0    0    0
H 831.57281030 -44.31776971 48.07528895     6    689    0    0    0
C 828.08048630 -44.35437856 50.15526216     1    689   693   694   695
H 826.97653274 -42.92834523 49.06488117     6    692    0    0    0
H 827.43409876 -44.18912768 52.07664051     6    692    0    0    0
H 827.33289648 -46.22076393 49.47183170     6    692    0    0    0
H 836.49230970 -61.94191636 33.59492937     6     697    0    0    0 
C 835.06955320 -63.07295763 32.55961894     1     696    698    699    700
H 834.38061947 -61.69967813 31.06835330     6     697    0    0    0
H 836.18790756 -64.41752733 31.73617935     6     697    0    0    0
C 833.09443709 -64.08617305 34.17644241     2     697    701    702    703
H 834.06697413 -64.83813573 35.79851347     6     700    0    0    0
H 831.98698001 -62.59382057 34.98182509     6     700    0    0    0
C 831.35950320 -66.19328133 33.29870043     2     700    704   705   706
H 830.36277863 -65.61030594 31.61206163     6     703    0    0    0
H 832.32697835 -68.06539109 32.96905566     6     703    0    0    0
C 829.37544182 -66.90907042 35.30947087     2     703   707   708   709
H 830.36782425 -67.04622892 37.16095733     6    706    0    0    0
H 828.41630053 -65.19421061 35.70801119     6    706    0    0    0
C 827.81006783 -69.27493244 34.90919528     2    706   710   711   712
H 827.13217918 -69.40663136 32.94871488     6    709    0    0    0
H 829.01866110 -70.82208955 35.32027509     6    709    0    0    0
C 825.67123501 -69.40934234 36.76536160     2    709   713   714   715
H 826.44592258 -68.79836064 38.56414682     6    712    0    0    0
H 824.19392197 -68.20786999 36.07634122     6    712    0    0    0
C 824.58527283 -72.11713534 36.82411355     2    712   716   717   718
H 824.15017288 -72.66401329 34.96832499     6    715    0    0    0
H 825.94627059 -73.59844732 37.56816074     6    715    0    0    0
C 822.40875758 -72.32994497 38.52677176     2    715   719   720   721
H 823.20176081 -71.87273535 40.35468007     6    718    0    0    0
H 821.00489166 -70.85906201 38.35577116     6    718    0    0    0
C 821.09000730 -75.03969067 38.43469745     2    718   722   723   724
H 820.30804281 -75.34569465 36.48909757     6    721    0    0    0
H 822.52297592 -76.64374459 38.69096547     6    721    0    0    0
C 818.86063682 -75.41057102 40.29756423     2    721   725   726   727
H 819.63537838 -75.35398231 42.28032226     6    724    0    0    0
H 817.56337994 -73.86749362 40.28283270     6    724    0    0    0
C 817.64942868 -77.93452230 40.04280886     2    724   728   729   730
H 816.59694234 -77.89081364 38.37916179     6    727    0    0    0
H 819.07428462 -79.41055214 39.81776234     6    727    0    0    0
C 815.70850312 -78.76138738 42.02451088     1    727   731   732   733
H 814.54144830 -80.31799087 41.19711566     6    730    0    0    0
H 814.50594000 -77.11608574 42.47553857     6    730    0    0    0
H 816.53014809 -79.54155484 43.77339910     6    730    0    0    0
H 820.78240181 -70.55980609 66.13545208     6     735    0    0    0 
C 820.48376992 -70.49942697 68.27073012     1     734    736    737    738
H 818.78968593 -69.36424294 68.51013181     6     735    0    0    0
H 819.91302346 -72.30053954 69.01047138     6     735    0    0    0
C 822.79146754 -69.24301688 69.55999449     2     735    739    740    741
H 823.27249470 -67.61631202 68.39573429     6     738    0    0    0
H 822.17263972 -68.84552474 71.46219037     6     738    0    0    0
C 825.29400167 -70.78484517 69.77856786     2     738    742   743   744
H 824.94642963 -72.17114595 71.17236995     6     741    0    0    0
H 826.00005461 -71.39635874 67.83191028     6     741    0    0    0
C 827.31041436 -69.14626846 70.99942733     2     741   745   746   747
H 827.74536674 -67.66182811 69.66005299     6    744    0    0    0
H 826.69483160 -68.03522581 72.68479337     6    744    0    0    0
C 829.66900730 -70.58882682 71.72367858     2    744   748   749   750
H 829.83473012 -71.86874327 70.23478535     6    747    0    0    0
H 831.29688184 -69.32779166 71.25804893     6    747    0    0    0
C 829.94897910 -71.75679534 74.46363650     2    747   751   752   753
H 829.95194515 -70.30986015 75.94262914     6    750    0    0    0
H 828.42447468 -72.95036622 75.09346461     6    750    0    0    0
C 832.46750920 -72.98385264 74.71737362     2    750   754   755   756
H 832.41988848 -74.27781486 73.07091591     6    753    0    0    0
H 834.02078568 -71.45517805 74.63305725     6    753    0    0    0
C 832.80019502 -74.33458568 77.22096321     2    753   757   758   759
H 832.61411410 -72.96196657 78.64274089     6    756    0    0    0
H 831.48156709 -75.82675509 77.92397569     6    756    0    0    0
C 835.49345873 -75.25057761 77.64595373     2    756   760   761   762
H 835.96072838 -76.91460982 76.52316855     6    759    0    0    0
H 836.90445961 -74.02063302 76.81606893     6    759    0    0    0
C 835.98306337 -75.78854182 80.53355905     2    759   763   764   765
H 835.95327257 -74.06140672 81.68531842     6    762    0    0    0
H 834.29529938 -76.61855760 81.31354600     6    762    0    0    0
C 838.59573752 -77.22237501 81.04771259     2    762   766   767   768
H 839.82665556 -77.64542987 79.49515196     6    765    0    0    0
H 839.78544093 -75.95502303 82.26927137     6    765    0    0    0
C 838.17243643 -79.86594344 82.46461931     1    765   769   770   771
H 839.50244789 -80.01121248 84.07822632     6    768    0    0    0
H 838.69805860 -81.49942113 81.40399364     6    768    0    0    0
H 836.28522405 -80.13900664 83.11080761     6    768    0    0    0
H 872.01008278 -64.24363372 48.58911130     6     773    0    0    0 
C 870.19796904 -63.93016050 47.81852874     1     772    774    775    776
H 869.05697325 -62.79149309 49.17363073     6     773    0    0    0
H 870.67660888 -62.98930116 45.96843926     6     773    0    0    0
C 868.93872674 -66.48851593 47.12703755     2     773    777    778    779
H 870.43958744 -67.78372141 46.67063514     6     776    0    0    0
H 867.99566101 -67.51729468 48.69465775     6     776    0    0    0
C 867.02354804 -66.50992128 44.80556618     2     776    780   781   782
H 865.65295916 -65.18116721 45.39672708     6     779    0    0    0
H 868.06004534 -65.73032545 43.12589206     6     779    0    0    0
C 865.62120214 -69.03245897 44.27855460     2     779   783   784   785
H 866.88198055 -70.45794964 43.45248191     6    782    0    0    0
H 864.95390960 -69.74139545 46.06249719     6    782    0    0    0
C 863.36383277 -68.42480543 42.48465280     2    782   786   787   788
H 862.04311143 -67.17678101 43.27331774     6    785    0    0    0
H 864.35274813 -67.49373113 40.79525033     6    785    0    0    0
C 861.67613475 -70.70461472 41.79288325     2    785   789   790   791
H 862.96759262 -72.22922841 41.34660953     6    788    0    0    0
H 860.84115864 -71.53016775 43.47535456     6    788    0    0    0
C 860.00877301 -70.27313566 39.50953810     2    788   792   793   794
H 858.35271518 -69.15752290 40.08161862     6    791    0    0    0
H 861.19983240 -69.16412766 38.14631418     6    791    0    0    0
C 859.16309587 -72.60535399 38.11191639     2    791   795   796   797
H 860.79731051 -73.89975291 37.75458221     6    794    0    0    0
H 857.92661644 -73.55759292 39.43275871     6    794    0    0    0
C 857.77292881 -71.99286250 35.61019202     2    794   798   799   800
H 855.93875551 -70.94300955 35.77877989     6    797    0    0    0
H 859.16975549 -70.93674608 34.50210927     6    797    0    0    0
C 857.20702904 -74.44207671 34.16333777     2    797   801   802   803
H 858.89868484 -75.63111505 34.02961161     6    800    0    0    0
H 855.65645684 -75.27559881 35.20958085     6    800    0    0    0
C 855.95094775 -74.27699221 31.49344653     2    800   804   805   806
H 854.35653802 -72.97029227 31.57016493     6    803    0    0    0
H 857.41143785 -73.39760235 30.33659382     6    803    0    0    0
C 855.14914136 -76.77453417 30.48252974     1    803   807   808   809
H 853.91227506 -77.87390546 31.67354737     6    806    0    0    0
H 856.87992156 -77.84697137 30.25054746     6    806    0    0    0
H 854.21134590 -76.59427307 28.69924231     6    806    0    0    0
H 846.67995426 -58.79490619 69.84442611     6     811    0    0    0 
C 847.55241987 -56.89601034 70.24599972     1     810    812    813    814
H 846.80092862 -55.44556401 68.99842199     6     811    0    0    0
H 847.37819664 -56.27299107 72.03330600     6     811    0    0    0
C 850.24166721 -57.59997678 69.70743891     2     811    815    816    817
H 850.44620105 -57.73341958 67.63058484     6     814    0    0    0
H 851.37173911 -56.08053779 70.24949826     6     814    0    0    0
C 850.82308841 -60.27673495 70.76446031     2     814    818   819   820
H 850.28733523 -60.41631169 72.82902787     6     817    0    0    0
H 849.44977475 -61.62512868 70.05335826     6     817    0    0    0
C 853.65551348 -61.01496896 70.30084917     2     817   821   822   823
H 854.11108445 -60.79472928 68.31638093     6    820    0    0    0
H 854.80427034 -59.72973576 71.18842561     6    820    0    0    0
C 854.18340510 -63.69451492 71.13520882     2    820   824   825   826
H 853.82873079 -63.82023191 73.17630681     6    823    0    0    0
H 853.00140609 -65.14043184 70.18545785     6    823    0    0    0
C 857.00624923 -64.48040364 70.70084785     2    823   827   828   829
H 857.00082747 -65.09271870 68.66843338     6    826    0    0    0
H 858.36920324 -62.98816009 70.62935691     6    826    0    0    0
C 858.31295093 -66.39854657 72.51915384     2    826   830   831   832
H 858.76174305 -65.39147047 74.34286921     6    829    0    0    0
H 857.17459437 -68.01368672 73.19907099     6    829    0    0    0
C 860.64447867 -67.76610957 71.31365459     2    829   833   834   835
H 860.07378735 -68.69606858 69.55915649     6    832    0    0    0
H 861.75528151 -66.19195382 70.42973211     6    832    0    0    0
C 862.24927690 -69.51020946 73.07416715     2    832   836   837   838
H 862.33921585 -68.53642138 74.88229564     6    835    0    0    0
H 861.09363059 -71.18071817 73.51186961     6    835    0    0    0
C 864.75617792 -70.31961820 72.03191846     2    835   839   840   841
H 864.37234716 -71.49991508 70.54688461     6    838    0    0    0
H 865.62258985 -68.51476508 71.36287968     6    838    0    0    0
C 866.47209961 -72.05017988 73.70445542     2    838   842   843   844
H 867.01212707 -70.79120513 75.29398279     6    841    0    0    0
H 865.33437980 -73.56987731 74.52259941     6    841    0    0    0
C 868.98126669 -72.63561188 72.48155313     1    841   845   846   847
H 870.21842203 -71.04431816 72.28353208     6    844    0    0    0
H 868.89683467 -73.70929393 70.69123572     6    844    0    0    0
H 869.95122516 -73.79464982 73.88020377     6    844    0    0    0
H 830.18105530 -32.19065824 44.39197834     6     849    0    0    0 
C 831.61488925 -32.85997791 42.89461252     1     848    850    851    852
H 830.68145709 -33.15496271 40.95073046     6     849    0    0    0
H 833.05322960 -31.31808457 42.59234124     6     849    0    0    0
C 832.83595838 -35.23715948 43.93169409     2     849    853    854    855
H 831.52204995 -36.70802649 44.43704811     6     852    0    0    0
H 833.77387633 -36.10358694 42.28942952     6     852    0    0    0
C 834.41054827 -34.58903551 46.39184987     2     852    856   857   858
H 835.95218423 -33.21622617 46.27868630     6     855    0    0    0
H 833.33768729 -33.79865256 47.82567202     6     855    0    0    0
C 835.66207977 -37.00918822 47.62153723     2     855   859   860   861
H 834.16623270 -38.13632676 48.39431481     6    858    0    0    0
H 836.90816898 -38.15094131 46.33169253     6    858    0    0    0
C 837.68283201 -36.58528395 49.74041559     2    858   862   863   864
H 839.42059271 -35.81565987 48.98019213     6    861    0    0    0
H 837.10949787 -35.08058572 50.98238226     6    861    0    0    0
C 838.14563987 -38.99534503 51.20946583     2    861   865   866   867
H 836.34031046 -39.35024794 52.23235078     6    864    0    0    0
H 838.34594149 -40.68406855 49.99578850     6    864    0    0    0
C 839.98188106 -38.86017905 53.33416246     2    864   868   869   870
H 841.78357133 -38.35551430 52.64757371     6    867    0    0    0
H 839.22082289 -37.31646130 54.54650728     6    867    0    0    0
C 840.09553440 -41.27451460 54.90775813     2    867   871   872   873
H 838.20885655 -41.79567702 55.75091071     6    870    0    0    0
H 840.40227720 -42.86127659 53.61818289     6    870    0    0    0
C 842.28693571 -41.17383362 56.71766284     2    870   874   875   876
H 843.35617497 -42.90973655 56.73653086     6    873    0    0    0
H 843.74732818 -39.79359892 56.18527190     6    873    0    0    0
C 841.32995015 -40.59936090 59.48132562     2    873   877   878   879
H 840.21459879 -38.98909564 59.32493818     6    876    0    0    0
H 840.13915482 -42.11454574 60.26080525     6    876    0    0    0
C 843.68091494 -39.88800514 61.15879080     2    876   880   881   882
H 844.90081845 -41.54152873 61.40003487     6    879    0    0    0
H 844.84493482 -38.51754765 60.10239550     6    879    0    0    0
C 842.71344008 -38.99566049 63.71933309     1    879   883   884   885
H 842.05257281 -40.64738838 64.86087270     6    882    0    0    0
H 841.10430912 -37.69007462 63.96435106     6    882    0    0    0
H 844.22574110 -38.17169033 64.74414554     6    882    0    0    0
H 858.58118349 -67.57094288 61.10669990     6     887    0    0    0 
C 857.31371770 -67.24152836 59.47533588     1     886    888    889    890
H 858.15947821 -65.76478416 58.29905483     6     887    0    0    0
H 857.59610470 -69.02370750 58.60304795     6     887    0    0    0
C 854.42702822 -66.68821043 59.63757344     2     887    891    892    893
H 853.88291202 -66.26561563 57.74992173     6     890    0    0    0
H 853.35783572 -68.23053405 60.55099619     6     890    0    0    0
C 854.15453674 -64.32281096 61.25815070     2     890    894   895   896
H 854.53623409 -65.00183922 63.12005236     6     893    0    0    0
H 855.53637727 -62.90336403 60.79993326     6     893    0    0    0
C 851.49841417 -63.30193553 60.72615803     2     893   897   898   899
H 851.35879614 -62.50579181 58.85747515     6    896    0    0    0
H 850.28173885 -65.02935814 60.72090042     6    896    0    0    0
C 850.29337437 -61.40266930 62.69925029     2    896   900   901   902
H 850.23249186 -62.43774111 64.44362730     6    899    0    0    0
H 851.55041494 -59.79707492 63.13431957     6    899    0    0    0
C 847.60834671 -60.45236979 61.92690498     2    899   903   904   905
H 847.63361616 -58.99419966 60.50846120     6    902    0    0    0
H 846.65467581 -62.02376832 61.14683531     6    902    0    0    0
C 846.14030810 -59.62775956 64.19120666     2    902   906   907   908
H 846.17365534 -61.10067936 65.63753339     6    905    0    0    0
H 847.05633577 -58.11586434 65.15611528     6    905    0    0    0
C 843.32151846 -59.20089285 63.77362558     2    905   909   910   911
H 842.99247861 -58.00215688 62.10776968     6    908    0    0    0
H 842.18039118 -60.91476208 63.40206051     6    908    0    0    0
C 842.03468102 -57.83101189 66.04082314     2    908   912   913   914
H 841.49481237 -59.11449991 67.59858037     6    911    0    0    0
H 843.37158013 -56.58780738 67.01525096     6    911    0    0    0
C 839.81968231 -56.17901940 65.25872718     2    911   915   916   917
H 840.15382839 -55.24406361 63.41812979     6    914    0    0    0
H 838.23848265 -57.33651861 64.55028489     6    914    0    0    0
C 838.89197103 -54.65255760 67.45980689     2    914   918   919   920
H 838.88450498 -55.87936444 69.02200590     6    917    0    0    0
H 840.17206882 -53.11080714 68.08137763     6    917    0    0    0
C 836.20989290 -53.46395566 67.18350177     1    917   921   922   923
H 834.93886110 -54.81614025 66.83141180     6    920    0    0    0
H 836.13630440 -52.06371585 65.66584760     6    920    0    0    0
H 835.54826847 -52.63220338 68.93766449     6    920    0    0    0
H 849.82676081 -41.13937446 54.15310551     6     925    0    0    0 
C 851.72719302 -41.22749927 55.10670312     1     924    926    927    928
H 853.06191908 -40.73849456 53.58034564     6     925    0    0    0
H 851.70393271 -39.74920173 56.52529242     6     925    0    0    0
C 852.21178163 -43.71136558 56.25287032     2     925    929    930    931
H 852.12105667 -45.25974617 54.87994176     6     928    0    0    0
H 854.27454032 -43.46034619 56.74940292     6     928    0    0    0
C 850.71056084 -44.51915428 58.58174272     2     928    932   933   934
H 848.70075188 -44.59870975 57.79303009     6     931    0    0    0
H 851.54858959 -46.36303758 59.08540922     6     931    0    0    0
C 851.07468645 -42.69752223 60.91022232     2     931   935   936   937
H 852.94805450 -42.07498948 60.95214676     6    934    0    0    0
H 849.85817693 -41.02076237 60.62936931     6    934    0    0    0
C 850.40641755 -43.98415654 63.31677293     2    934   938   939   940
H 848.47153952 -43.55985176 64.10217393     6    937    0    0    0
H 850.58239571 -46.02156382 63.13707866     6    937    0    0    0
C 852.52089273 -43.60597404 65.30213267     2    937   941   942   943
H 854.11476993 -44.92368382 64.92026809     6    940    0    0    0
H 853.26389315 -41.70041113 64.91591422     6    940    0    0    0
C 851.56704702 -43.80044051 67.97518391     2    940   944   945   946
H 850.14449982 -45.42785363 67.89721023     6    943    0    0    0
H 852.83700244 -44.09505108 69.47731258     6    943    0    0    0
C 850.09263473 -41.46405626 68.72138313     2    943   947   948   949
H 851.39494949 -39.91346494 69.14325332     6    946    0    0    0
H 849.15249184 -40.85629854 67.01810286     6    946    0    0    0
C 848.04930706 -41.91821527 70.87507462     2    946   950   951   952
H 846.94404180 -43.53646297 70.14169861     6    949    0    0    0
H 849.22260509 -42.40524840 72.55879491     6    949    0    0    0
C 846.25630455 -39.55563447 71.22512803     2    949   953   954   955
H 847.53313352 -38.05764897 72.00236715     6    952    0    0    0
H 845.32906580 -38.78627533 69.56200484     6    952    0    0    0
C 844.26975396 -39.78650573 73.22719944     2    952   956   957   958
H 842.83257637 -38.20922107 73.16541874     6    955    0    0    0
H 843.21380549 -41.48441393 72.76576186     6    955    0    0    0
C 845.32698705 -40.00269630 75.88574812     1    955   959   960   961
H 843.88867807 -40.36732611 77.23052644     6    958    0    0    0
H 846.23713694 -38.34193700 76.52027555     6    958    0    0    0
H 846.74226241 -41.57091969 76.06336235     6    958    0    0    0
H 839.01842644 -74.63079684 59.54845913     6     963    0    0    0 
C 840.06163409 -76.45415610 59.38980476     1     962    964    965    966
H 840.99021041 -76.16962613 57.69788083     6     963    0    0    0
H 841.23412240 -76.43147132 61.02067789     6     963    0    0    0
C 838.19140093 -78.56227273 59.44954875     2     963    967    968    969
H 839.04020706 -80.39263628 59.19494779     6     966    0    0    0
H 836.94791091 -78.58067953 61.18345454     6     966    0    0    0
C 836.45052651 -78.42833721 57.16516233     2     966    970   971   972
H 834.56204501 -78.93841961 57.53078818     6     969    0    0    0
H 836.33253632 -76.42561344 56.76761283     6     969    0    0    0
C 837.37591429 -79.79071190 54.73970687     2     969   973   974   975
H 839.27247161 -79.58426681 54.22805088     6    972    0    0    0
H 836.82275423 -81.63284710 55.01287004     6    972    0    0    0
C 836.02843452 -78.80935739 52.46109451     2    972   976   977   978
H 834.07755673 -79.02666080 52.61504332     6    975    0    0    0
H 836.19739567 -76.77653465 52.32395996     6    975    0    0    0
C 836.51864613 -80.15471695 50.04591809     2    975   979   980   981
H 838.47298371 -79.78211852 49.64246182     6    978    0    0    0
H 836.23962627 -82.17911553 50.45320295     6    978    0    0    0
C 834.96133661 -79.07217507 47.98188765     2    978   982   983   984
H 832.99325699 -79.65264634 48.27922269     6    981    0    0    0
H 834.84419191 -77.03719998 48.15672514     6    981    0    0    0
C 835.68039746 -79.78844299 45.38765916     2    981   985   986   987
H 837.49564419 -78.92437225 44.73419578     6    984    0    0    0
H 836.20440026 -81.74077103 44.98962412     6    984    0    0    0
C 833.74457842 -79.28001949 43.31639758     2    984   988   989   990
H 834.14199888 -80.13172669 41.42489829     6    987    0    0    0
H 831.83505779 -79.87364018 44.02202752     6    987    0    0    0
C 833.63168991 -76.44253985 42.97311127     2    987   991   992   993
H 833.04945374 -75.38008652 44.77799811     6    990    0    0    0
H 835.49828683 -75.81706251 42.41487981     6    990    0    0    0
C 831.80252057 -75.51274375 40.86114891     2    990   994   995   996
H 832.38716635 -76.02757737 38.90062884     6    993    0    0    0
H 830.11553511 -76.64304769 41.13424873     6    993    0    0    0
C 831.22187044 -72.63445754 40.82678207     1    993   997   998   999
H 831.55745099 -71.93531263 42.64811984     6    996    0    0    0
H 829.30843542 -72.30561684 40.16789794     6    996    0    0    0
H 832.58188478 -71.35287075 39.83196041     6    996    0    0    0
H 848.24169957 -89.23139567 68.53536502     6     1001    0    0    0 
C 847.59772954 -90.41992415 66.98583089     1     1000    1002    1003    1004
H 847.13152008 -89.16755469 65.35369376     6     1001    0    0    0
H 849.19229430 -91.42712781 66.22650722     6     1001    0    0    0
C 845.46729411 -92.11011473 67.60560956     2     1001    1005    1006    1007
H 844.89412172 -93.27215483 65.93792438     6     1004    0    0    0
H 845.84184926 -93.48745532 69.00070830     6     1004    0    0    0
C 843.03109016 -90.74823634 68.11384251     2     1004    1008   1009   1010
H 843.51698607 -89.01200953 69.19455927     6     1007    0    0    0
H 842.39949144 -89.98026641 66.37112461     6     1007    0    0    0
C 840.77290662 -92.22263382 69.12204163     2     1007   1011   1012   1013
H 840.38476931 -94.18046491 68.35539376     6    1010    0    0    0
H 841.50770761 -92.62177397 70.95802541     6    1010    0    0    0
C 838.51033922 -90.50587143 69.37309155     2    1010   1014   1015   1016
H 837.41856141 -91.45504351 70.92538464     6    1013    0    0    0
H 839.24060254 -88.70633834 69.98483970     6    1013    0    0    0
C 836.86478197 -90.30987344 66.81670306     2    1013   1017   1018   1019
H 837.66362785 -89.10402420 65.41256253     6    1016    0    0    0
H 836.48667619 -92.12374123 65.99492583     6    1016    0    0    0
C 834.34153639 -88.92549270 67.54324735     2    1016   1020   1021   1022
H 833.32997026 -90.15993039 68.65230670     6    1019    0    0    0
H 834.74124222 -87.35214994 68.92542939     6    1019    0    0    0
C 832.75652344 -88.25516306 65.18876942     2    1019   1023   1024   1025
H 832.59338052 -90.08281182 64.07186860     6    1022    0    0    0
H 830.95112116 -87.80011847 65.90469834     6    1022    0    0    0
C 833.67078791 -86.08293234 63.56617256     2    1022   1026   1027   1028
H 833.81977248 -84.26317307 64.70393692     6    1025    0    0    0
H 835.38569859 -86.56093452 62.51962003     6    1025    0    0    0
C 831.69191175 -85.24726494 61.58626917     2    1025   1029   1030   1031
H 831.16016813 -86.96109837 60.66059603     6    1028    0    0    0
H 829.95675127 -84.67929329 62.46368792     6    1028    0    0    0
C 832.63854112 -83.15421368 59.68221456     2    1028   1032   1033   1034
H 833.32134031 -81.66393284 60.89122975     6    1031    0    0    0
H 834.32674751 -83.86653674 58.64986588     6    1031    0    0    0
C 830.84513595 -82.27374849 57.58411529     1    1031   1035   1036   1037
H 831.64088568 -81.53672331 55.81841761     6    1034    0    0    0
H 829.39385279 -81.07569890 58.37892786     6    1034    0    0    0
H 829.73590127 -83.97366624 56.97756740     6    1034    0    0    0
H 859.61778074 -68.34941524 49.39407730     6     1039    0    0    0 
C 859.50879273 -69.36300556 51.29789393     1     1038    1040    1041    1042
H 858.05071217 -68.48902167 52.43705063     6     1039    0    0    0
H 858.89378989 -71.27596214 51.16497008     6     1039    0    0    0
C 862.05447848 -69.45139297 52.65644961     2     1039    1043    1044    1045
H 861.92875626 -70.15317768 54.53661708     6     1042    0    0    0
H 863.58814958 -70.65698039 51.75787538     6     1042    0    0    0
C 863.14047481 -66.73151410 52.62513160     2     1042    1046   1047   1048
H 863.46680248 -66.14567949 50.58360010     6     1045    0    0    0
H 861.81806798 -65.28696657 53.08412187     6     1045    0    0    0
C 865.60955696 -66.61316872 54.17380856     2     1045   1049   1050   1051
H 865.59720721 -67.32720967 56.07585801     6    1048    0    0    0
H 866.97764163 -67.65075746 53.06687487     6    1048    0    0    0
C 866.51482892 -63.81009625 54.35213712     2    1048   1052   1053   1054
H 866.27793767 -62.96594453 52.58042046     6    1051    0    0    0
H 865.31049185 -62.88274024 55.76473513     6    1051    0    0    0
C 869.39111701 -63.42892693 55.16240119     2    1051   1055   1056   1057
H 869.70936038 -64.13414318 57.04552774     6    1054    0    0    0
H 870.39680612 -64.70064011 53.95991367     6    1054    0    0    0
C 870.46874635 -60.82448971 54.78500735     2    1054   1058   1059   1060
H 869.80835447 -60.05453626 53.03354923     6    1057    0    0    0
H 869.78367628 -59.57677150 56.38657845     6    1057    0    0    0
C 873.36550743 -60.78159675 54.99961336     2    1057   1061   1062   1063
H 874.13921674 -62.11948382 56.19567085     6    1060    0    0    0
H 873.96690763 -61.12880422 53.17605319     6    1060    0    0    0
C 874.55255866 -58.16924089 55.72794347     2    1060   1064   1065   1066
H 876.52279988 -58.00055170 55.08896137     6    1063    0    0    0
H 873.52627790 -56.75182521 54.73277164     6    1063    0    0    0
C 874.53547513 -57.55196862 58.57322980     2    1063   1067   1068   1069
H 872.63359026 -57.67180354 59.30378617     6    1066    0    0    0
H 875.63994774 -58.91986583 59.54124607     6    1066    0    0    0
C 875.70306482 -54.98547513 58.95624658     2    1066   1070   1071   1072
H 877.42658550 -54.94899850 57.91996500     6    1069    0    0    0
[...]
 1619      H     865.0814901900   -73.5816564200    31.8634122400
 1620      H     868.1871865800   -73.0383134100    31.0448549100
 1621      C     867.2139688500   -76.9862653300    30.8048828100
 1622      H     869.0331690200   -77.9204108500    31.1078054200
 1623      H     865.9997791900   -78.3585361300    31.7574764800
 1624      C     866.4085022500   -76.9637921400    28.0388512400
 1625      H     864.3319748100   -76.9585986100    27.9612228000
 1626      H     866.9699337400   -75.0771419200    27.4057409000
 1627      C     867.5616242600   -79.0913869900    26.5887512100
 1628      H     869.5912817300   -78.8625792600    26.5489214000
 1629      H     867.1568729700   -80.8616722100    27.4829279700
 1630      C     866.5197684000   -79.4170633700    23.9688104900
 1631      H     864.5255327600   -80.0151732200    24.1395963200
 1632      H     866.5605925400   -77.7796406000    22.6538378700
 1633      C     867.7658769400   -81.5807252300    22.4625920000
 1634      H     869.6828380000   -81.2173699900    22.8958090000
 1635      H     867.4654791600   -83.3364141200    23.5028298400
 1636      C     867.0472711700   -81.7563042200    19.7495247000
 1637      H     865.1828934500   -81.1232093100    19.5074759900
 1638      H     868.2420354700   -80.4958091700    18.5934979900
 1639      C     867.8252426700   -84.2247280900    18.4316672000
 1640      H     869.6959718100   -84.4001733900    18.8447702000
 1641      H     866.9644911100   -85.8363652000    19.3329400600
 1642      C     867.2641985700   -84.2038537500    15.6148399600
 1643      H     865.2582798600   -83.7650319800    15.1619926900
 1644      H     867.5453821400   -85.9684459500    14.8106971600
 1645      H     868.1985219400   -82.6477432600    14.7007902900
 1646      H     867.0036256500   -81.2309140900    57.0538522500
 1647      C     866.7997806100   -83.3680204700    57.4224303300
 1648      H     868.7313705300   -84.0647510800    57.8026892600
 1649      H     865.7832902800   -83.2379174500    59.2008281600
 1650      C     865.2789375600   -84.6127686400    55.3860560600
 1651      H     864.5410193400   -86.3730598500    55.8597095700
 1652      H     863.7371445800   -83.2265588700    55.3087619800
 1653      C     866.6523443800   -84.7866632800    52.8466460600
 1654      H     868.0852102000   -83.3573413500    52.6966660300
 1655      H     867.6996007100   -86.4682058700    52.8319510500
 1656      C     865.0297786400   -84.4396671900    50.5293324900
 1657      H     863.6198357000   -82.9373547100    50.6556412700
 1658      H     866.3709715400   -83.9667898400    48.9673844700
 1659      C     863.5916345900   -86.8846667700    49.6874677900
 1660      H     864.9099341900   -88.2580400300    49.1471517500
 1661      H     862.5477094200   -87.5852585800    51.3773297400
 1662      C     861.6706673900   -86.1439345800    47.7347396200
 1663      H     860.3175444000   -84.7018000900    48.3431943600
 1664      H     862.7546228700   -85.4005034400    46.1127053300
 1665      C     860.2909223600   -88.4604295200    46.7744101200
 1666      H     861.5671204300   -89.6390838700    45.6645426300
 1667      H     859.6650893500   -89.3620520200    48.4198235300
 1668      C     858.0768150600   -87.8079098600    45.1155385500
 1669      H     856.8611597700   -86.5302439200    46.1188105100
 1670      H     858.8190987200   -86.5198849200    43.7028946600
 1671      C     856.4911467800   -90.1055037700    44.1045515100
 1672      H     857.5338831200   -91.2664656300    42.7910551000
 1673      H     855.9012040700   -91.2845315700    45.6383886900
 1674      C     854.1969795500   -89.3338705200    42.5341346700
 1675      H     853.2496076300   -87.9195694700    43.7203477800
 1676      H     854.8321751600   -88.2965432100    40.8895299100
 1677      C     852.5524640500   -91.6393506800    41.7685949000
 1678      H     853.4447608700   -92.9435382800    40.4997492500
 1679      H     851.8774807400   -92.6397745900    43.4053827100
 1680      C     850.1578401000   -90.7991296000    40.3681310500
 1681      H     849.1896232700   -92.5038828600    39.4812194200
 1682      H     850.5863857000   -89.4913939300    38.8650729100
 1683      H     848.7441781500   -89.8845004700    41.4736916200
 1684      H     851.2925587200   -94.8478361400    63.1516115800
 1685      C     851.5823535300   -93.3235975400    61.8099627500
 1686      H     852.3555336900   -93.8838207200    59.9605758400
 1687      H     849.8629651000   -92.2678910100    61.3825125100
 1688      C     853.7236633800   -91.5829711200    62.6886285900
 1689      H     853.6339158600   -91.0205144200    64.6878502600
 1690      H     855.5520050100   -92.6574200900    62.6799858300
 1691      C     853.8118650500   -89.3023561900    60.8916583600
 1692      H     854.9551502300   -89.8860116700    59.4107762600
 1693      H     851.9133150000   -89.1595013200    59.9109513000
 1694      C     854.5907714100   -86.7681274000    61.8831676600
 1695      H     856.3429968400   -86.9417570900    62.8760828700
 1696      H     854.8160712600   -85.5435317300    60.1685342900
 1697      C     852.6680637200   -85.3426934500    63.5982075000
 1698      H     850.7568264500   -85.8405553800    63.0548746700
 1699      H     852.8751909900   -86.0812746200    65.5263579700
 1700      C     853.0509374700   -82.3948519000    63.7893991600
 1701      H     851.4466039900   -81.8129589300    65.1578292000
 1702      H     854.9150030200   -81.9747870800    64.7976944800
 1703      C     852.7185729600   -80.8102816800    61.4586672300
 1704      H     853.7479798200   -81.4329456400    59.8308909500
 1705      H     850.7153277900   -80.8457110100    60.8101417400
 1706      C     853.1988114400   -77.7893862100    61.4750588500
 1707      H     851.8205172100   -76.8542219200    62.5792955000
 1708      H     855.1228645000   -77.4875736600    62.2521441500
 1709      C     852.9799550700   -76.6607397600    58.7273975500
 1710      H     854.5472615300   -77.3908419500    57.6482730700
 1711      H     851.2656848500   -77.0180959000    57.7395151500
 1712      C     853.2569506400   -73.7694916100    58.7012665900
 1713      H     851.4583141300   -72.8448106600    58.8912479100
 1714      H     854.1914287300   -72.9908963000    60.3990698500
 1715      C     854.3576822300   -72.7267821800    56.2089647900
 1716      H     854.0584310800   -70.6767065900    56.2236644800
 1717      H     856.4509619000   -73.0097779400    56.2696653700
 1718      C     853.1551064300   -73.8886928200    53.7901102300
 1719      H     853.0487118100   -75.9192746500    53.6579684100
 1720      H     854.1849668900   -73.3277662500    52.1952012200
 1721      H     851.3069736000   -73.0628892000    53.3417776000
 1722      H     822.0984083700   -77.8372865800    45.4959553600
 1723      C     823.3950314900   -79.3715915900    45.0311401100
 1724      H     823.0595458800   -80.6732595500    46.5390987000
 1725      H     822.8155753500   -80.3491648600    43.2738677300
 1726      C     826.1802095000   -78.4273126100    45.2450813200
 1727      H     827.6000337400   -79.9281396100    45.1933930500
 1728      H     826.4521493200   -77.1620609900    43.7222407600
 1729      C     826.4506247400   -77.2132258300    47.8132907100
 1730      H     824.6180228000   -77.3571805400    48.7013089300
 1731      H     827.7993849100   -78.6201432500    48.6746083100
 1732      C     827.8112809500   -74.6516906100    48.0965029900
 1733      H     829.5213230700   -74.7079092900    47.0972852500
 1734      H     826.7711132300   -73.0707779000    47.3350730300
 1735      C     828.6751121600   -74.1721772500    50.8635619800
 1736      H     827.1428676400   -73.2438196600    52.0980614800
 1737      H     829.0891005200   -75.8363325600    52.0203778800
 1738      C     830.9051913000   -72.4010935000    50.9782913900
 1739      H     832.5169672600   -72.9332836000    49.8640850300
 1740      H     830.4012774700   -70.5423321800    50.3440552000
 1741      C     831.9272426400   -72.1184926200    53.5532581100
 1742      H     830.3707479100   -71.4771408900    54.7565293700
 1743      H     832.4560977500   -73.9040782700    54.4907540400
 1744      C     834.0704056200   -70.1450514200    53.6913537200
 1745      H     835.8027134900   -70.8429375500    52.6725956000
 1746      H     833.4536690500   -68.4714008400    52.7306997700
 1747      C     834.3615479100   -69.2735792500    56.4494363800
 1748      H     832.5680555400   -68.8188358000    57.3907463500
 1749      H     834.9851981900   -70.7894215900    57.7875557400
 1750      C     836.0391216900   -66.9366455700    56.9070674500
 1751      H     837.8898831500   -67.0826477600    56.0785138800
 1752      H     835.3698155500   -65.1822413400    55.9204474800
 1753      C     836.3613909400   -66.4647304000    59.7707563200
 1754      H     834.4053847900   -66.4099796700    60.5284540700
 1755      H     837.1093379800   -68.0009267900    60.7137124400
 1756      C     837.7768627000   -64.1110037300    60.3801920600
 1757      H     838.2028464900   -63.8612661600    62.4808058600
 1758      H     837.0757930200   -62.1558323600    59.8166946800
 1759      H     839.7067745800   -64.1139457800    59.5766387900
 1760      H     821.1919423800   -64.6237744900    62.7201321400
 1761      C     820.1665482500   -63.8603955700    61.1127143100
 1762      H     818.5530525900   -62.6922087300    61.9188378000
 1763      H     821.3876252700   -62.5630961400    59.9985649000
 1764      C     819.1912570800   -66.1254149300    59.5785550200
 1765      H     820.9179627200   -67.0986989400    58.8806090700
 1766      H     818.1086848000   -67.5553985300    60.7828579300
 1767      C     817.3932117300   -65.3297087300    57.4504976200
 1768      H     815.9112663500   -64.1941421600    58.2730599700
 1769      H     818.5525330100   -64.3364493400    56.0489157400
 1770      C     816.4491370800   -67.7792266800    56.2412122500
 1771      H     818.2029084000   -69.0216952800    55.9516606700
 1772      H     815.1059861500   -68.7665155000    57.5312710000
 1773      C     815.1239313200   -67.3609648800    53.7183584400
 1774      H     813.6982361100   -66.0793430900    54.1119808400
 1775      H     816.3205412400   -66.4585690000    52.2692727800
 1776      C     814.1017706400   -69.8136502700    52.7306647300
 1777      H     815.6584382400   -71.2327101100    52.8247301200
 1778      H     812.6043235500   -70.6831242800    53.8504894200
 1779      C     813.1464237100   -69.6552385500    49.8981062700
 1780      H     811.5734433700   -68.4203134100    49.7988637200
 1781      H     814.7548865800   -68.8048550000    48.8453063500
 1782      C     812.2477700500   -72.2927084800    48.7322580000
 1783      H     810.6671780200   -73.0353544600    49.7962104300
 1784      H     811.2561448800   -72.0675809500    47.0602343300
 1785      C     814.2016293000   -74.2180567100    48.5264457900
 1786      H     815.3834787300   -73.9013471000    46.9302285100
 1787      H     815.4480451500   -74.1107144500    50.0134593700
 1788      C     813.1120197200   -76.9632784000    48.1268479400
 1789      H     811.3677006000   -77.1655139700    49.1581573100
 1790      H     812.5157853000   -77.4094912400    46.1850955200
 1791      C     815.0342547900   -78.9565984400    49.0333791400
 1792      H     816.7616247800   -78.8175927000    47.7657354400
 1793      H     815.5145776400   -78.6821517500    51.0426948400
 1794      C     813.7461082200   -81.5932329500    48.9277527200
 1795      H     812.8645974500   -81.9119186600    47.1732154800
 1796      H     812.3055952500   -81.7524943500    50.3858539400
 1797      H     815.2400764000   -83.0897424300    49.1489828400
 1798      H     860.8142069300   -44.8206357400    35.4083537600
 1799      C     861.0108281800   -45.9920323100    37.2270942900
 1800      H     861.2186172000   -47.9489552200    36.5500620300
 1801      H     862.6751667100   -45.7276066700    38.2156789900
 1802      C     858.8053390300   -45.3365305100    38.9886168800
 1803      H     859.0462562600   -43.3140184100    39.4511517900
 1804      H     857.1288743600   -45.8793639800    38.0238173800
 1805      C     859.1351088200   -46.9025509500    41.5047918200
 1806      H     859.3985050200   -48.7651356300    40.9946048900
 1807      H     861.0271616100   -46.5175211400    42.3678537700
 1808      C     857.0428161400   -46.7497463200    43.4284354000
 1809      H     857.0820658200   -44.9483559300    44.3598443500
 1810      H     855.2829622400   -46.6801826400    42.5191467000
 1811      C     857.1684107700   -48.7658462900    45.5239217900
 1812      H     856.5974835000   -50.4394677300    44.4800928300
 1813      H     859.0299737100   -49.0338027900    46.4050652200
 1814      C     855.2209626400   -48.5644166000    47.7420907700
 1815      H     855.6806268800   -46.6663440400    48.5804705500
 1816      H     853.2435501600   -48.4129671400    46.9758931400
 1817      C     855.2147173300   -50.6505529500    49.6464355900
 1818      H     854.4945942100   -52.2483312600    48.7895247600
 1819      H     857.1328646000   -50.8696329900    50.0163649600
 1820      C     853.8136780500   -50.1307541800    52.1221159600
 1821      H     854.7375897900   -48.5631406400    53.0573257400
 1822      H     851.8802087100   -49.4788583200    51.9358670100
 1823      C     853.8915409900   -52.4757942500    53.8448080600
 1824      H     852.7026483800   -53.7662264400    53.0356276300
 1825      H     855.9080119900   -53.2414562700    53.7090863400
 1826      C     853.1911286700   -51.8479893300    56.5222544500
 1827      H     854.5146989500   -50.4690136300    57.3388028000
 1828      H     851.3871893000   -50.9183773200    56.3445697600
 1829      C     853.2608964700   -54.1467974200    58.4279581300
 1830      H     851.7799204900   -55.3366414200    57.8169430300
 1831      H     854.9453506800   -55.2018868100    58.2460101200
 1832      C     852.7047575100   -53.5037956100    61.0793335800
 1833      H     854.0336211900   -52.4441389200    62.0988915400
 1834      H     852.1575646000   -55.1658584200    62.0851722700
 1835      H     850.8567305300   -52.4563318500    61.0974141900
 1836      H     847.2711312400   -54.9178309500    55.0986653300
 1837      C     845.4848392200   -53.9516184200    55.6870788600
 1838      H     843.9870291900   -54.6217237000    54.3069741400
 1839      H     845.1097391000   -54.3984921500    57.6427282400
 1840      C     845.5996104200   -51.0335012200    55.4810836100
 1841      H     843.9623159400   -50.3586743300    56.6363659100
 1842      H     847.3048702000   -50.1752066500    56.1842827900
 1843      C     845.4035052100   -50.1059063800    52.7887189300
 1844      H     846.7439636700   -51.1072787100    51.5521691100
 1845      H     843.5695028100   -50.4992858900    51.9432370700
 1846      C     845.8321798800   -47.1967459800    52.3320587100
 1847      H     844.4536536600   -46.1519887600    53.3921745000
 1848      H     847.6261322800   -46.7079902600    53.1811192800
 1849      C     845.8247248300   -46.2877601300    49.4268394200
 1850      H     846.5614192400   -47.8084159700    48.2813563100
 1851      H     843.8813947200   -46.2082673500    48.7881550900
 1852      C     847.1813578600   -43.6784539800    49.0907500800
 1853      H     846.3978137000   -42.4991085500    50.6259148300
 1854      H     849.1862675600   -43.9579620900    49.6204256000
 1855      C     846.6810266300   -42.3419651900    46.4832462900
 1856      H     848.0449676600   -40.8880860800    46.3499613300
 1857      H     847.1248157100   -43.7117212900    44.9272914400
 1858      C     844.0438938600   -41.1874055400    46.5632916300
 1859      H     842.9008365400   -42.3357477600    47.8229406900
 1860      H     844.1732531500   -39.3509982400    47.3565678500
 1861      C     842.5066673100   -40.9873790300    44.0922291300
 1862      H     841.9384939100   -42.7849217900    43.4385889700
 1863      H     840.8137597000   -39.9303410700    44.4100547000
 1864      C     843.9730259100   -39.5558936900    41.9427933400
 1865      H     844.2336320800   -37.4882199600    42.3248080800
 1866      H     846.0142162100   -40.1976735900    42.0582114100
 1867      C     842.6342466300   -39.9244294300    39.2674343900
 1868      H     842.6055027500   -41.8703353800    38.6001794700
 1869      H     840.6724256500   -39.5299153900    39.6460433300
 1870      C     843.8715782200   -38.2544070100    37.5052501000
 1871      H     843.4455988700   -38.4711897400    35.6667150900
 1872      H     845.8561508800   -38.4287554100    37.6412670900
 1873      H     843.6016899600   -36.3113065000    38.0027911500
 1874      H     837.9009000100   -68.4177565300    29.7705752500
 1875      C     839.1910593100   -69.0869266300    31.1980153900
 1876      H     839.6917763200   -70.9436033800    30.7683237500
 1877      H     840.9989002400   -68.1216947100    30.7796430200
 1878      C     838.3380599500   -68.7823403600    33.9931098600
 1879      H     838.3157383000   -66.8068008000    34.4490322600
 1880      H     836.4246018200   -69.2881537400    34.3146226200
 1881      C     840.2088361900   -70.1588297200    35.7057485200
 1882      H     839.6501733200   -72.0879007300    35.4707973400
 1883      H     842.2752428200   -69.8273435400    35.0739153700
 1884      C     839.9117336500   -69.8240302100    38.5733112200
 1885      H     840.0707793100   -67.7296640100    39.0478099800
 1886      H     837.9893086900   -70.4653049100    38.9712184400
 1887      C     841.8145951400   -71.3750186200    40.1340578500
 1888      H     841.7547636500   -73.3164611400    39.4024952000
 1889      H     843.7643857700   -70.8665960800    39.6015067200
 1890      C     841.5084436700   -71.3053701200    43.0946469200
 1891      H     841.4429055600   -69.4223229100    43.8554448500
 1892      H     839.6080181100   -71.8990527700    43.4343197400
 1893      C     843.5324353000   -72.9736722900    44.3321098300
 1894      H     843.6274758900   -74.8364215600    43.6925048100
 1895      H     845.3140366900   -72.0624982000    44.0118719300
 1896      C     843.2752154600   -73.1749490100    47.1876483700
 1897      H     843.0484319600   -71.2378510000    47.8747860800
 1898      H     841.2868701600   -73.8285275700    47.6775645100
 1899      C     845.3420674700   -74.8042187000    48.6111454700
 1900      H     845.3131536000   -76.6920572700    47.8061748800
 1901      H     847.1642087000   -73.9540838200    48.2551358100
 1902      C     844.7824356500   -74.8094529600    51.5373612200
 1903      H     845.3118556000   -72.9149264500    52.2061487400
 1904      H     842.7854911400   -74.9239324800    51.8479931700
 1905      C     846.3430998800   -76.9261825300    52.7500023700
 1906      H     845.6232505800   -78.8491978000    52.2399857200
 1907      H     848.1919781300   -76.7433985600    51.8612926100
 1908      C     846.5968337900   -76.7877634400    55.7493774200
 1909      H     844.7945741800   -76.5563958200    56.5896208800
 1910      H     847.7258505900   -75.1480916700    56.2989211700
 1911      H     847.1757486800   -78.5382394900    56.5349838700
 ----------------------------------------------------------------
 Nuclear Repulsion Energy =           0.00000000 hartrees
 There are       48 alpha and       48 beta electrons
 Total job time:  119.70s(wall), 236.04s(cpu) 
 Wed Jun 22 08:07:41 2022

        *************************************************************
        *                                                           *
        *  Thank you very much for using Q-Chem.  Have a nice day.  *
        *                                                           *
        *************************************************************


