                  Welcome to Q-Chem
     A Quantum Leap Into The Future Of Chemistry


 Q-Chem 5.4 (devel), Q-Chem, Inc., Pleasanton, CA (2021)

 E. Epifanovsky,  A. T. B. Gilbert,  Xintian Feng,  Joonho Lee,  Yuezhi Mao,  
 N. Mardirossian,  P. Pokhilko,  A. White,  M. Wormit,  M. P. Coons,  
 A. L. Dempwolff,  Zhengting Gan,  D. Hait,  P. R. Horn,  L. D. Jacobson,  
 I. Kaliman,  J. Kussmann,  A. W. Lange,  Ka Un Lao,  D. S. Levine,  Jie Liu,  
 S. C. McKenzie,  A. F. Morrison,  K. Nanda,  F. Plasser,  D. R. Rehn,  
 M. L. Vidal,  Zhi-Qiang You,  Ying Zhu,  B. Alam,  B. Albrecht,  
 A. Aldossary,  E. Alguire,  J. H. Andersen,  D. Barton,  K. Begam,  A. Behn,  
 Y. A. Bernard,  E. J. Berquist,  H. Burton,  A. Carreras,  K. Carter-Fenk,  
 R. Chakraborty,  A. D. Chien,  K. D. Closser,  V. Cofer-Shabica,  
 S. Dasgupta,  Jia Deng,  M. de Wergifosse,  M. Diedenhofen,  Hainam Do,  
 S. Ehlert,  Po-Tung Fang,  S. Fatehi,  Qingguo Feng,  T. Friedhoff,  
 J. Gayvert,  Qinghui Ge,  G. Gidofalvi,  M. Goldey,  J. Gomes,  
 C. Gonzalez-Espinoza,  S. Gulania,  A. Gunina,  M. W. D. Hanson-Heine,  
 P. H. P. Harbach,  A. W. Hauser,  M. F. Herbst,  M. Hernandez Vera,  
 M. Hodecker,  Z. C. Holden,  S. Houck,  Xunkun Huang,  Kerwin Hui,  
 B. C. Huynh,  M. Ivanov,  Hyunjun Ji,  Hanjie Jiang,  B. Kaduk,  S. Kaehler,  
 K. Khistyaev,  Jaehoon Kim,  P. Klunzinger,  Z. Koczor-Benda,  
 Joong Hoon Koh,  D. Kosenkov,  L. Koulias,  T. Kowalczyk,  C. M. Krauter,  
 K. Kue,  A. Kunitsa,  T. Kus,  A. Landau,  K. V. Lawler,  D. Lefrancois,  
 S. Lehtola,  Rain Li,  Yi-Pei Li,  Jiashu Liang,  M. Liebenthal,  
 Hung-Hsuan Lin,  You-Sheng Lin,  Fenglai Liu,  Kuan-Yu Liu,  
 M. Loipersberger,  A. Luenser,  A. Manjanath,  P. Manohar,  E. Mansoor,  
 S. F. Manzer,  Shan-Ping Mao,  A. V. Marenich,  T. Markovich,  S. Mason,  
 S. A. Maurer,  P. F. McLaughlin,  M. F. S. J. Menger,  J.-M. Mewes,  
 S. A. Mewes,  P. Morgante,  J. W. Mullinax,  K. J. Oosterbaan,  G. Paran,  
 Alexander C. Paul,  Suranjan K. Paul,  F. Pavosevic,  Zheng Pei,  S. Prager,  
 E. I. Proynov,  E. Ramos,  B. Rana,  A. E. Rask,  A. Rettig,  R. M. Richard,  
 F. Rob,  E. Rossomme,  T. Scheele,  M. Scheurer,  M. Schneider,  
 N. Sergueev,  S. M. Sharada,  W. Skomorowski,  D. W. Small,  C. J. Stein,  
 Yu-Chuan Su,  E. J. Sundstrom,  Zhen Tao,  J. Thirman,  T. Tsuchimochi,  
 N. M. Tubman,  S. P. Veccham,  O. Vydrov,  J. Wenzel,  J. Witte,  A. Yamada,  
 Kun Yao,  S. Yeganeh,  S. R. Yost,  A. Zech,  Igor Ying Zhang,  Xing Zhang,  
 Yu Zhang,  D. Zuev,  A. Aspuru-Guzik,  A. T. Bell,  N. A. Besley,  
 K. B. Bravaya,  B. R. Brooks,  D. Casanova,  Jeng-Da Chai,  S. Coriani,  
 C. J. Cramer,  A. E. DePrince, III,  R. A. DiStasio Jr.,  A. Dreuw,  
 B. D. Dunietz,  T. R. Furlani,  W. A. Goddard III,  S. Grimme,  
 S. Hammes-Schiffer,  T. Head-Gordon,  W. J. Hehre,  Chao-Ping Hsu,  
 T.-C. Jagau,  Yousung Jung,  A. Klamt,  Jing Kong,  D. S. Lambrecht,  
 WanZhen Liang,  N. J. Mayhall,  C. W. McCurdy,  J. B. Neaton,  
 C. Ochsenfeld,  J. A. Parkhill,  R. Peverati,  V. A. Rassolov,  Yihan Shao,  
 L. V. Slipchenko,  T. Stauch,  R. P. Steele,  J. E. Subotnik,  
 A. J. W. Thom,  A. Tkatchenko,  D. G. Truhlar,  T. Van Voorhis,  
 T. A. Wesolowski,  K. B. Whaley,  H. L. Woodcock III,  P. M. Zimmerman,  
 S. Faraji,  P. M. W. Gill,  M. Head-Gordon,  J. M. Herbert,  A. I. Krylov

 Additional authors for Version 5.4.1: 
 S. Kotaru,  Shaozhi Li,  Xiangyuan Li,  F. Matz,  A. Molle,  Haisheng Ren,  
 Yingli Su,  Hung-Yi Tsai,  C. Utku,  Fang Wang

 Contributors to earlier versions of Q-Chem not listed above: 
 R. D. Adamson,  B. Austin,  R. Baer,  J. Baker,  G. J. O. Beran,  
 K. Brandhorst,  S. T. Brown,  E. F. C. Byrd,  A. K. Chakraborty,  
 G. K. L. Chan,  Chun-Min Chang,  Yunqing Chen,  C.-L. Cheng,  
 Siu Hung Chien,  D. M. Chipman,  D. L. Crittenden,  H. Dachsel,  
 R. J. Doerksen,  A. D. Dutoi,  R. G. Edgar,  J. Fosso-Tande,  
 L. Fusti-Molnar,  D. Ghosh,  A. Ghysels,  A. Golubeva-Zadorozhnaya,  
 J. Gonthier,  M. S. Gordon,  S. R. Gwaltney,  G. Hawkins,  J. E. Herr,  
 A. Heyden,  S. Hirata,  E. G. Hohenstein,  G. Kedziora,  F. J. Keil,  
 C. Kelley,  Jihan Kim,  R. A. King,  R. Z. Khaliullin,  P. P. Korambath,  
 W. Kurlancheek,  A. Laurent,  A. M. Lee,  M. S. Lee,  S. V. Levchenko,  
 Ching Yeh Lin,  D. Liotard,  E. Livshits,  R. C. Lochan,  I. Lotan,  
 L. A. Martinez-Martinez,  P. E. Maslen,  N. Nair,  D. P. O'Neill,  
 D. Neuhauser,  E. Neuscamman,  C. M. Oana,  R. Olivares-Amaya,  R. Olson,  
 T. M. Perrine,  B. Peters,  P. A. Pieniazek,  A. Prociuk,  Y. M. Rhee,  
 J. Ritchie,  M. A. Rohrdanz,  E. Rosta,  N. J. Russ,  H. F. Schaefer III,  
 M. W. Schmidt,  N. E. Schultz,  S. Sharma,  N. Shenvi,  C. D. Sherrill,  
 A. C. Simmonett,  A. Sodt,  T. Stein,  D. Stuck,  K. S. Thanthiriwatte,  
 V. Vanovschi,  L. Vogt,  Tao Wang,  A. Warshel,  M. A. Watson,  
 C. F. Williams,  Q. Wu,  X. Xu,  Jun Yang,  W. Zhang,  Yan Zhao

 Please cite Q-Chem as follows:
 Y. Shao et al., Mol. Phys. 113, 184-215 (2015)
 DOI: 10.1080/00268976.2014.952696

 Q-Chem 5.4.1 for Intel X86 EM64T Linux

 Parts of Q-Chem use Armadillo 9.900.5 (Nocturnal Misbehaviour).
 http://arma.sourceforge.net/

 Q-Chem begins on Wed Jun  1 23:30:23 2022  

 Host: p09r14n13.grace.hpc.yale.internal
0

     Scratch files written to /home/tl686/scratch60/qchem_dev/scratch/qchem244501//
 Processing $rem in /home/tl686/qchem_dev/qchem/config/preferences:
 Processing $rem in /home/tl686/.qchemrc:
Applying user defined connections for MM calculations

 Checking the input file for inconsistencies... 	...done.

--------------------------------------------------------------
User input:
--------------------------------------------------------------
$molecule
0   1
 Fe 74.50762445 34.29171322 -43.55198601    -1  0   0   0   0
C 72.66782174 33.79099499 -40.61557947    -2  0   0   0   0 
C 74.50566336 37.73845518 -44.11301377    -2  0   0   0   0
C 77.41863900 34.94307169 -41.79227471    -2  0   0   0   0
C 76.21927154 32.18055575 -45.66149798    -2  0   0   0   0
C 71.72445050 33.76899488 -45.34636260    -2  0   0   0   0
O 71.75245934 33.62604953 -38.64735134    -3  0   0   0   0
O 74.66882924 39.89484772 -44.63512013    -3  0   0   0   0 
O 79.03224396 35.72920444 -40.56764151    -3  0   0   0   0
O 77.52818087 31.06231065 -47.17846249    -3  0   0   0   0 
O 69.94912630 33.67417843 -46.78178631    -3  0   0   0   0
H 78.53900800 19.22999895 -20.53348031      6     13    0    0    0 
C 77.46111657 20.91159689 -21.00154370     1     12    14    15    16
H 76.88536477 21.98810467 -19.22589611     6     13    0    0    0
H 78.75850444 22.11060710 -22.05016915     6     13    0    0    0
C 75.13687735 20.35031957 -22.76965980     2     13    17    18    19
H 73.80323357 19.10081666 -21.85537884     6     16    0    0    0
H 74.32856668 22.25754503 -22.81567095     6     16    0    0    0
C 75.99723503 19.73592969 -25.42662995     2     16    20   21   22
H 76.29955288 21.61079804 -26.39926593     6     19    0    0    0
H 77.88446480 18.93658462 -25.44384287     6     19    0    0    0
C 74.04683648 18.21232707 -27.04973749     2     19   23   24   25
H 73.19965386 16.51403498 -26.10881578     6    22    0    0    0
H 72.29837203 19.32224782 -27.67636118     6    22    0    0    0
C 75.39980754 17.60122989 -29.45592847     2    22   26   27   28
H 76.32955001 19.30489513 -30.38279344     6    25    0    0    0
H 77.11408149 16.63340687 -28.88963370     6    25    0    0    0
C 74.10554449 15.81998040 -31.45882477     2    25   29   30   31
H 73.35717379 14.19920584 -30.31220607     6    28    0    0    0
H 72.51508870 16.68441244 -32.47719582     6    28    0    0    0
C 75.75012419 14.51246074 -33.50719224     2    28   32   33   34
H 76.15213602 15.98778268 -35.03034179     6    31    0    0    0
H 77.58885212 13.83185953 -32.98355005     6    31    0    0    0
C 74.11407482 12.32808209 -34.70719949     2    31   35   36   37
H 73.71671433 10.90696644 -33.25457643     6    34    0    0    0
H 72.37018928 12.89989724 -35.39134923     6    34    0    0    0
C 75.50092689 11.09439880 -36.87564375     2    34   38   39   40
H 76.50399544 12.53283106 -38.11755637     6    37    0    0    0
H 77.23334418 10.16980903 -36.09636600     6    37    0    0    0
C 74.12096742 9.28405747 -38.28906460     2    37   41   42   43
H 73.27673653 7.80101472 -37.12086700     6    40    0    0    0
H 72.61556328 10.53481796 -39.10786918     6    40    0    0    0
C 75.49276735 7.86968253 -40.54172368     2    40   44   45   46
H 76.62545450 9.12337969 -41.61701390     6    43    0    0    0
H 76.76162845 6.52424070 -39.64225922     6    43    0    0    0
C 73.62394503 6.34058870 -42.09415798     1    43   47   48   49
H 72.07962355 5.71832871 -40.74417061     6    46    0    0    0
H 74.38671386 4.59949082 -42.93008881     6    46    0    0    0
H 72.33047739 7.42108308 -43.41207364     6    46    0    0    0
H 69.58877396 25.55810256 -42.44828562     6     51    0    0    0 
C 70.85360071 27.06745113 -41.83667494     1     50    52    53    54
H 72.45573967 26.97932403 -43.10592977     6     51    0    0    0
H 69.74250705 28.85751821 -42.02407000     6     51    0    0    0
C 71.85860793 26.84654166 -39.13271182     2     51    55    56    57
H 72.53999439 28.60231486 -38.35760774     6     54    0    0    0
H 70.23649520 26.43008121 -37.96612854     6     54    0    0    0
C 73.85946979 24.73759893 -39.05743767     2     54    58   59   60
H 75.52520750 25.08004195 -40.35168900     6     57    0    0    0
H 74.70246077 24.72156864 -37.18047424     6     57    0    0    0
C 72.82475577 22.02154729 -39.80580651     2     57   61   62   63
H 71.29586760 21.44971522 -38.56064721     6    60    0    0    0
H 72.04848753 22.12234121 -41.63796090     6    60    0    0    0
C 75.01644895 20.03245322 -39.71292809     2    60   64   65   66
H 76.46697796 20.59037712 -40.96956361     6    63    0    0    0
H 75.77834248 19.89344081 -37.82034788     6    63    0    0    0
C 74.10004877 17.39642404 -40.55559300     2    63   67   68   69
H 75.72268196 16.22053012 -40.27335023     6    66    0    0    0
H 72.76660860 16.55747126 -39.20090603     6    66    0    0    0
C 73.00566928 17.11114639 -43.23878573     2    66   70   71   72
H 71.40713863 18.22310406 -43.97388594     6    69    0    0    0
H 74.56103877 17.59167142 -44.52101141     6    69    0    0    0
C 72.50933609 14.27261259 -43.66989804     2    69   73   74   75
H 74.02082188 13.08790819 -42.83182887     6    72    0    0    0
H 70.62260724 13.78773321 -42.73132290     6    72    0    0    0
C 72.43951438 13.68436213 -46.47456224     2    72   76   77   78
H 71.55243703 15.26042532 -47.52029110     6    75    0    0    0
H 74.33873661 13.62293853 -47.31357131     6    75    0    0    0
C 71.05954839 11.25200236 -47.34024479     2    75   79   80   81
H 72.11065685 9.51692501 -47.01094436     6    78    0    0    0
H 69.44925733 11.11694767 -46.10252154     6    78    0    0    0
C 70.06209844 11.61421815 -50.04821648     2    78   82   83   84
H 68.99697284 13.43194559 -50.29662306     6    81    0    0    0
H 71.64153902 11.74810646 -51.44937347     6    81    0    0    0
C 68.52274511 9.17375816 -50.81751549     1    81   85   86   87
H 67.34274903 9.84826844 -52.46759610     6    84    0    0    0
H 67.19138048 8.58591466 -49.30491900     6    84    0    0    0
H 69.78017847 7.57359035 -51.09977421     6    84    0    0    0
H 97.58861994 14.04056914 -29.92085284     6     89    0    0    0 
C 97.46995702 12.07192688 -30.35924030     1     88    90    91    92
H 98.65412003 11.56385687 -31.94604919     6     89    0    0    0
H 98.42079774 10.89715466 -28.85352305     6     89    0    0    0
C 94.69464004 11.12692937 -30.83084049     2     89    93    94    95
H 93.68416569 12.21752401 -29.44758747     6     92    0    0    0
H 94.06186719 11.66606740 -32.73997001     6     92    0    0    0
C 94.05898930 8.27041297 -30.61973170     2     92    96   97   98
H 95.31562503 7.02004779 -31.50738079     6     95    0    0    0
H 94.52502741 7.72257116 -28.65223923     6     95    0    0    0
C 91.40699217 7.42556303 -31.38914198     2     95   99   100   101
H 89.82377894 8.57725027 -30.46252483     6    98    0    0    0
H 91.14685563 7.72894036 -33.48284143     6    98    0    0    0
C 90.75534688 4.71860498 -30.77722456     2    98   102   103   104
H 92.17776691 3.53435546 -31.56839745     6    101    0    0    0
H 90.83589036 4.38810877 -28.78404709     6    101    0    0    0
C 88.47922184 3.66306469 -32.04506711     2    101   105   106   107
H 86.81361188 4.71570824 -31.23232322     6    104    0    0    0
H 88.42508172 4.34620419 -33.96554291     6    104    0    0    0
C 88.10938564 0.85471887 -31.79851444     2    104   108   109   110
H 89.71172423 0.08979296 -32.63774526     6    107    0    0    0
H 88.32417458 0.30268622 -29.81293650     6    107    0    0    0
C 85.73083029 -0.38668017 -32.95889353     2    107   111   112   113
H 84.12914863 0.86439958 -32.56268846     6    110    0    0    0
H 85.83956702 -0.41040191 -35.10426665     6    110    0    0    0
C 85.29403056 -3.15902790 -32.00832891     2    110   114   115   116
H 86.93131369 -4.18176309 -31.30099287     6    113    0    0    0
H 84.15618652 -3.17210016 -30.28911605     6    113    0    0    0
C 83.79627496 -4.74912695 -34.16931492     2    113   117   118   119
H 81.97315844 -3.97113598 -34.80000148     6    116    0    0    0
H 84.88363691 -4.78223394 -36.01081119     6    116    0    0    0
C 83.46377487 -7.53378211 -33.48340929     2    116   120   121   122
H 85.24445922 -8.35525549 -33.25105100     6    119    0    0    0
H 82.50859848 -7.69970823 -31.71386444     6    119    0    0    0
C 81.90267804 -8.92700233 -35.42599256     1    119   123   124   125
H 81.28828387 -10.77476110 -34.68804444     6    122    0    0    0
H 82.86247866 -9.18372393 -37.32472398     6    122    0    0    0
H 80.08145296 -7.96960350 -35.79072249     6    122    0    0    0
H 103.39828114 24.26634495 -30.25019850     6     127    0    0    0 
C 103.05444323 24.27813009 -32.21485706     1     126    128    129    130
H 104.59687670 23.41672375 -33.19904739     6     127    0    0    0
H 101.36878627 23.14656653 -32.65698190     6     127    0    0    0
C 102.88752126 26.92138354 -33.28101793     2     127    131    132    133
H 101.31967369 27.87025046 -32.37540451     6     130    0    0    0
H 104.39713289 28.21763076 -32.59714555     6     130    0    0    0
C 102.56252096 27.07453319 -36.10621859     2     130    134   135   136
H 104.29246874 27.07977762 -37.21636037     6     133    0    0    0
H 101.29370817 25.48494026 -36.72825907     6     133    0    0    0
C 100.88755052 29.30382220 -36.78594976     2     133   137   138   139
H 99.18273207 29.44273670 -35.65018977     6    136    0    0    0
H 101.80017626 31.05694399 -36.39384483     6    136    0    0    0
C 100.02333732 29.23787291 -39.55636085     2    136   140   141   142
H 101.62750848 29.62798029 -40.76575019     6    139    0    0    0
H 98.99414706 27.57696052 -39.98418497     6    139    0    0    0
C 98.09701035 31.53967716 -40.04026023     2    139   143   144   145
H 96.82068789 31.41503896 -38.40616459     6    142    0    0    0
H 99.13272081 33.37574787 -39.83870193     6    142    0    0    0
C 96.72238944 31.15180069 -42.65995395     2    142   146   147   148
H 98.22397588 31.59283959 -44.00903023     6    145    0    0    0
H 96.12741608 29.09363212 -42.90966510     6    145    0    0    0
C 94.60148091 33.08571443 -43.11215153     2    145   149   150   151
H 93.21542651 32.82800010 -41.72147675     6    148    0    0    0
H 95.08039615 35.04030345 -42.79185965     6    148    0    0    0
C 93.06329467 32.75448845 -45.55295351     2    148   152   153   154
H 94.21276594 33.18866614 -47.18267618     6    151    0    0    0
H 92.81030565 30.68369081 -45.81427779     6    151    0    0    0
C 90.70656592 34.37598971 -45.73696632     2    151   155   156   157
H 89.39668146 33.53828828 -47.08403003     6    154    0    0    0
H 89.69699801 34.45853697 -43.91569146     6    154    0    0    0
C 91.18071238 37.15391378 -46.59884487     2    154   158   159   160
H 92.21126490 38.11318657 -45.05427897     6    157    0    0    0
H 92.52549787 37.56822076 -48.16742178     6    157    0    0    0
C 88.69076357 38.56282543 -46.96557659     1    157   161   162   163
H 89.03576069 40.53906117 -47.32471697     6    160    0    0    0
H 87.45533384 38.23420473 -45.27447034     6    160    0    0    0
H 87.44150421 37.75605676 -48.38012694     6    160    0    0    0
H 100.92880489 2.30059566 -45.73836387     6     165    0    0    0 
C 99.88220239 4.12348858 -46.09809190     1     164    166    167    168
H 98.80335206 3.76114342 -47.80875569     6     165    0    0    0
H 98.82539213 4.49216669 -44.36804184     6     165    0    0    0
C 101.76509952 6.39761033 -46.44010824     2     165    169    170    171
H 103.12949129 6.52582944 -44.92812512     6     168    0    0    0
H 102.93748813 5.98862887 -48.18238765     6     168    0    0    0
C 100.59510814 8.98165594 -46.96576696     2     168    172   173   174
H 99.23788583 8.85585395 -48.48836167     6     171    0    0    0
H 99.31913466 9.44924548 -45.39707376     6     171    0    0    0
C 102.45743242 11.05113837 -47.44298010     2     171   175   176   177
H 104.35403756 10.42229464 -46.84786079     6    174    0    0    0
H 102.77838451 11.30160621 -49.48663511     6    174    0    0    0
C 101.74061609 13.64225759 -46.07877491     2    174   178   179   180
H 99.95679678 14.18223329 -46.72318443     6    177    0    0    0
H 101.73907627 13.63436600 -44.01941365     6    177    0    0    0
C 103.27711882 15.80923067 -47.10795458     2    177   181   182   183
H 105.21911306 15.14356261 -47.15018079     6    180    0    0    0
H 102.76261663 15.96106137 -49.13717038     6    180    0    0    0
C 102.83102568 18.52764212 -46.22936459     2    180   184   185   186
H 100.91096307 19.14734013 -46.59031861     6    183    0    0    0
H 102.84038912 18.74079611 -44.22423561     6    183    0    0    0
C 104.70300809 20.27227359 -47.50483791     2    183   187   188   189
H 106.73981799 19.71390733 -47.09725272     6    186    0    0    0
H 104.41391412 20.20891326 -49.55353615     6    186    0    0    0
C 104.48506894 23.06357641 -46.40282240     2    186   190   191   192
H 102.49270196 23.54408355 -46.27205040     6    189    0    0    0
H 105.09297562 23.38437941 -44.54323146     6    189    0    0    0
C 105.94606754 24.98260901 -48.14363418     2    189   193   194   195
H 107.88771027 24.41940532 -48.31598118     6    192    0    0    0
H 104.90914235 25.06472840 -49.91939299     6    192    0    0    0
C 106.15941413 27.73933245 -46.95780345     2    192   196   197   198
H 104.25748686 28.47066365 -46.33667689     6    195    0    0    0
H 107.22407298 27.34491695 -45.20575823     6    195    0    0    0
C 107.35142311 29.56300088 -48.79590087     1    195   199   200   201
H 107.81669624 31.34135711 -47.82418590     6    198    0    0    0
H 105.98721039 30.14291465 -50.28795259     6    198    0    0    0
H 109.12830671 28.93374918 -49.64695585     6    198    0    0    0
H 92.89513152 11.90594198 -56.90379854     6     203    0    0    0 
C 94.02876098 13.35416024 -57.91994294     1     202    204    205    206
H 92.82154407 15.04241297 -58.25857054     6     203    0    0    0
H 95.60414482 13.99007857 -56.69307885     6     203    0    0    0
C 95.06780518 12.03038138 -60.37857521     2     203    207    208    209
H 96.71376202 12.86594228 -61.03077573     6     206    0    0    0
H 95.55235663 10.15727117 -59.87511908     6     206    0    0    0
C 93.08170510 12.11441397 -62.47612281     2     206    210   211   212
H 93.43818542 10.56904296 -63.72423480     6     209    0    0    0
H 91.20060756 11.68813554 -61.59295776     6     209    0    0    0
C 92.92440993 14.73272188 -63.69770707     2     209   213   214   215
H 92.14351295 16.06798334 -62.35028913     6    212    0    0    0
H 94.80475698 15.44248756 -64.21854618     6    212    0    0    0
C 91.25181137 14.93618133 -66.00940318     2    212   216   217   218
H 91.95902815 13.79586776 -67.64407283     6    215    0    0    0
H 89.48676820 14.07248707 -65.71471931     6    215    0    0    0
C 90.69461550 17.62486584 -66.97631394     2    215   219   220   221
H 90.27061807 18.97382974 -65.49653968     6    218    0    0    0
H 92.28473727 18.56277054 -68.00196148     6    218    0    0    0
C 88.60645188 17.55037349 -68.94988593     2    218   222   223   224
H 89.13447356 16.39070409 -70.53929255     6    221    0    0    0
H 86.73089316 16.80358841 -68.37045081     6    221    0    0    0
C 88.22724136 19.98799216 -70.37753571     2    221   225   226   227
H 87.45044738 21.11894429 -68.92747717     6    224    0    0    0
H 89.92824253 21.01614588 -70.90655774     6    224    0    0    0
C 86.27334848 19.89433813 -72.58500299     2    224   228   229   230
H 86.51555018 18.29311158 -73.93139634     6    227    0    0    0
H 84.47998685 19.38060788 -71.74622204     6    227    0    0    0
C 86.15146862 22.37165841 -73.98868883     2    227   231   232   233
H 86.26884796 24.03206330 -72.79864217     6    230    0    0    0
H 87.82818237 22.48433270 -75.18903426     6    230    0    0    0
C 83.78815571 22.51952248 -75.66316612     2    230   234   235   236
H 84.24402138 21.20220567 -77.20667089     6    233    0    0    0
H 82.01567250 22.01332491 -74.77352813     6    233    0    0    0
C 83.49109084 24.98294172 -77.18547183     1    233   237   238   239
H 82.16871936 24.73918630 -78.71490065     6    236    0    0    0
H 85.38685667 25.49186640 -77.89042240     6    236    0    0    0
H 82.74717909 26.61834153 -76.19722767     6    236    0    0    0
H 66.47808167 -2.22223369 -50.60186557     6     241    0    0    0 
C 67.67572003 -1.17094043 -52.02957511     1     240    242    243    244
H 68.50602795 -2.42635884 -53.46016970     6     241    0    0    0
H 66.32740821 0.04690466 -53.18298695     6     241    0    0    0
C 69.80293306 0.25986842 -50.58005359     2     241    245    246    247
H 71.18118245 -0.91312904 -49.76463030     6     244    0    0    0
H 70.76028320 1.55633962 -51.87288699     6     244    0    0    0
C 68.61803235 1.89848312 -48.59555802     2     244    248   249   250
H 69.79580099 3.54618212 -48.21110835     6     247    0    0    0
H 66.98792984 2.72162752 -49.41272694     6     247    0    0    0
C 67.87720694 0.56280587 -46.07741302     2     247   251   252   253
H 66.32445806 1.58937287 -45.19942186     6    250    0    0    0
H 66.68130510 -1.12601015 -46.31226507     6    250    0    0    0
C 69.93368755 -0.05127635 -44.16434703     2    250   254   255   256
H 71.00461557 -1.45543127 -45.03699910     6    253    0    0    0
H 71.38701319 1.61011316 -44.16886762     6    253    0    0    0
C 69.12830137 -0.99029153 -41.57478677     2    253   257   258   259
H 70.49850892 -2.11037872 -40.57390518     6    256    0    0    0
H 68.81809369 0.75124630 -40.54222745     6    256    0    0    0
C 66.64881409 -2.80226313 -41.45186764     2    256   260   261   262
H 64.96214639 -1.73380391 -42.14708728     6    259    0    0    0
H 66.78830391 -4.42173766 -42.71376286     6    259    0    0    0
C 65.96198881 -4.00208195 -38.79522309     2    259   263   264   265
H 67.09457821 -5.55921185 -38.40062583     6    262    0    0    0
H 66.28916578 -2.46725116 -37.61909609     6    262    0    0    0
C 63.19621164 -4.94365304 -38.58002598     2    262   266   267   268
H 62.90709190 -5.41759244 -36.52259873     6    265    0    0    0
H 61.70378193 -3.66859239 -38.70754852     6    265    0    0    0
C 62.51401368 -7.07318626 -40.40084179     2    265   269   270   271
H 62.90822859 -6.42426999 -42.37169678     6    268    0    0    0
H 63.74716383 -8.65413733 -40.07733138     6    268    0    0    0
C 59.62340875 -8.04460300 -40.46586777     2    268   272   273   274
H 59.16379066 -8.90968730 -38.70720883     6    271    0    0    0
H 58.29292366 -6.58772208 -40.83748375     6    271    0    0    0
C 58.95876937 -10.07325508 -42.40140392     1    271   275   276   277
H 58.83969453 -9.45754552 -44.29666955     6    274    0    0    0
H 57.03738198 -10.75413173 -41.82345755     6    274    0    0    0
H 59.87078530 -11.85431048 -42.52064712     6    274    0    0    0
H 88.32537828 0.41185450 -51.77775289     6     279    0    0    0 
C 87.77301811 2.13869022 -52.71962525     1     278    280    281    282
H 87.67280607 3.90320549 -51.62762915     6     279    0    0    0
H 89.03903081 2.53068042 -54.18586117     6     279    0    0    0
C 85.35448983 1.44986089 -54.29235797     2     279    283    284    285
H 85.70763322 -0.24777098 -55.24979866     6     282    0    0    0
H 83.76696070 1.30109039 -53.03274426     6     282    0    0    0
C 84.46974461 3.49318782 -56.18429306     2     282    286   287   288
H 83.42015444 4.92040446 -54.94851693     6     285    0    0    0
H 86.07060216 4.32599823 -57.32423371     6     285    0    0    0
C 82.63398154 2.34795634 -57.99024868     2     285   289   290   291
H 83.48175519 0.92763288 -59.12465752     6    288    0    0    0
H 81.04905136 1.43891924 -57.15484289     6    288    0    0    0
C 81.73122598 4.53297279 -59.74202359     2    288   292   293   294
H 80.87400749 6.22838429 -58.91485518     6    291    0    0    0
H 83.39790901 5.15827684 -60.80803225     6    291    0    0    0
C 79.97358093 3.79446560 -61.93634889     2    291   295   296   297
H 81.25639349 2.77235568 -63.31669857     6    294    0    0    0
H 78.74170970 2.38013929 -61.27344557     6    294    0    0    0
C 78.77185520 6.06093322 -63.23196055     2    294   298   299   300
H 77.67842077 6.87106294 -61.65417116     6    297    0    0    0
H 79.91568240 7.62577188 -63.91611135     6    297    0    0    0
C 76.79692121 5.31660201 -65.42350716     2    297   301   302   303
H 77.70874717 3.93245291 -66.77403443     6    300    0    0    0
H 75.27467296 4.44155703 -64.53142624     6    300    0    0    0
C 75.55496494 7.44537403 -66.85024859     2    300   304   305   306
H 74.40520913 8.58890049 -65.52881949     6    303    0    0    0
H 77.10859030 8.73280743 -67.42971214     6    303    0    0    0
C 73.94495651 6.81259590 -69.20384666     2    303   307   308   309
H 75.12146313 6.05218821 -70.72416837     6    306    0    0    0
H 72.60379831 5.32490118 -68.73920526     6    306    0    0    0
C 72.49781503 9.18674996 -70.24234035     2    306   310   311   312
H 71.44969296 10.38304843 -68.89530634     6    309    0    0    0
H 73.83875139 10.47616935 -71.03326252     6    309    0    0    0
C 70.48274126 8.23863924 -72.14189479     1    309   313   314   315
H 69.24171595 6.69100802 -71.53841632     6    312    0    0    0
H 71.32558431 7.56675593 -73.82868557     6    312    0    0    0
H 69.24966219 9.72668933 -72.59945469     6    312    0    0    0
H 94.57275174 17.79987620 -33.07702959     6     317    0    0    0 
C 92.76213059 18.33516906 -32.33088013     1     316    318    319    320
H 91.59957674 16.56691170 -32.14555638     6     317    0    0    0
H 93.22202005 19.13370552 -30.51925006     6     317    0    0    0
C 91.75892428 20.21621740 -34.21911497     2     317    321    322    323
H 93.58362933 21.23380434 -34.89224480     6     320    0    0    0
H 91.26979746 19.20792569 -35.99111818     6     320    0    0    0
C 89.68308870 21.87174294 -33.26835742     2     320    324   325   326
H 87.97092565 20.84787385 -32.89781496     6     323    0    0    0
H 90.16272362 22.65734816 -31.37782210     6     323    0    0    0
C 89.35797447 24.28226833 -34.95684034     2     323   327   328   329
H 90.90016739 24.72362117 -36.32562088     6    326    0    0    0
H 87.71595244 23.83835538 -36.07993357     6    326    0    0    0
C 88.86558313 26.84100158 -33.69432796     2    326   330   331   332
H 88.29435929 26.50394110 -31.73651073     6    329    0    0    0
H 90.77697363 27.77517270 -33.65989470     6    329    0    0    0
C 87.00511229 28.53187699 -35.13076836     2    329   333   334   335
H 85.34525260 27.51805865 -35.70259493     6    332    0    0    0
H 86.39089986 29.96001927 -33.81889185     6    332    0    0    0
C 88.07679046 29.71162712 -37.51607725     2    332   336   337   338
H 90.12175165 29.82835703 -37.59919239     6    335    0    0    0
H 87.94687075 28.05807778 -38.69185230     6    335    0    0    0
C 86.67915657 32.02792544 -38.57998012     2    335   339   340   341
H 86.47480423 31.87195492 -40.63964985     6    338    0    0    0
H 84.63893475 32.19748219 -37.99897935     6    338    0    0    0
C 88.08673395 34.51803086 -37.96592347     2    338   342   343   344
H 88.15064788 34.66870924 -35.95635321     6    341    0    0    0
H 89.93240693 34.37727939 -38.76880812     6    341    0    0    0
C 86.58693051 36.87551365 -38.95229582     2    341   345   346   347
H 86.42668052 36.88219912 -41.02476625     6    344    0    0    0
H 84.53730232 36.65250800 -38.21828812     6    344    0    0    0
C 87.85510607 39.45130472 -38.36770662     2    344   348   349   350
H 87.51380423 39.82659709 -36.31644474     6    347    0    0    0
H 89.87496438 39.33369681 -38.51709537     6    347    0    0    0
C 86.70163435 41.69508920 -39.77917269     1    347   351   352   353
H 87.81929022 43.42709082 -39.73795551     6    350    0    0    0
H 84.74583401 42.10794265 -39.21836128     6    350    0    0    0
H 86.40576171 41.14575528 -41.63985753     6    350    0    0    0
H 78.89629945 4.88433737 -45.98618204     6     355    0    0    0 
C 79.85788427 6.14639134 -44.77484808     1     354    356    357    358
H 78.80444257 7.87799879 -44.82411721     6     355    0    0    0
H 79.89107914 5.43344910 -42.84083754     6     355    0    0    0
C 82.56334201 6.73532187 -45.48431476     2     355    359    360    361
H 83.53557173 4.93251584 -45.63295252     6     358    0    0    0
H 82.61744237 7.79386289 -47.29083697     6     358    0    0    0
C 83.79843236 8.42165122 -43.49773777     2     358    362   363   364
H 83.05864321 10.21178885 -43.62337668     6     361    0    0    0
H 83.42939100 7.73218671 -41.67274124     6     361    0    0    0
C 86.63643639 8.88083498 -43.92412893     2     361   365   366   367
H 87.67862686 7.16176559 -44.11638426     6    364    0    0    0
H 86.55662921 9.80565668 -45.72810237     6    364    0    0    0
C 87.74773678 10.60824986 -41.91258245     2    364   368   369   370
H 86.78717988 12.34466771 -42.42732916     6    367    0    0    0
H 87.13290312 10.21856945 -40.04551310     6    367    0    0    0
C 90.56909732 11.16725331 -41.98185080     2    367   371   372   373
H 91.72492747 9.53114266 -41.72842582     6    370    0    0    0
H 90.71050289 11.70426921 -43.97509631     6    370    0    0    0
C 91.31235504 13.33379085 -40.29056957     2    370   374   375   376
H 89.88366263 14.79461978 -40.71640548     6    373    0    0    0
H 90.77578256 12.80616734 -38.39000602     6    373    0    0    0
C 94.06217647 14.11279095 -40.76364828     2    373   377   378   379
H 95.18058709 12.60373014 -41.02832690     6    376    0    0    0
H 94.09179247 14.96855117 -42.62028970     6    376    0    0    0
C 95.14569453 16.04519949 -38.90489239     2    376   380   381   382
H 93.90883769 17.75007571 -39.19585323     6    379    0    0    0
H 95.32067393 15.40573629 -36.87015269     6    379    0    0    0
C 97.79414555 17.11420443 -39.55801854     2    379   383   384   385
H 99.08469927 15.56165313 -39.97233617     6    382    0    0    0
H 97.66791443 18.19455659 -41.35549768     6    382    0    0    0
C 98.86138470 18.79388830 -37.36957695     2    382   386   387   388
H 100.28932750 19.83645104 -38.22075479     6    385    0    0    0
H 97.49119936 20.14795975 -36.94156773     6    385    0    0    0
C 99.81157254 17.19614419 -35.06154652     1    385   389   390   391
H 101.13027624 15.87206126 -35.92465483     6    388    0    0    0
H 98.25179457 16.22759980 -34.04974324     6    388    0    0    0
H 100.69344571 18.16895585 -33.46978716     6    388    0    0    0
H 68.72570856 57.90182761 -34.28923994     6     393    0    0    0 
C 68.20292071 56.43626601 -35.74701317     1     392    394    395    396
H 66.62351292 57.23150054 -36.84434768     6     393    0    0    0
H 69.69548327 56.47733809 -37.07311610     6     393    0    0    0
C 67.53500577 53.93954052 -34.48875646     2     393    397    398    399
H 69.33146517 53.10957012 -33.92109359     6     396    0    0    0
H 66.46243999 54.26484889 -32.66227521     6     396    0    0    0
C 66.22046378 52.00211578 -36.15171793     2     396    400   401   402
H 64.42377223 52.93649421 -36.58825165     6     399    0    0    0
H 67.35885128 51.83380268 -37.85354328     6     399    0    0    0
C 65.70484623 49.51467592 -34.84471371     2     399   403   404   405
H 67.63419942 49.00825932 -34.40576784     6    402    0    0    0
H 64.65792266 49.97939845 -33.07487024     6    402    0    0    0
C 64.31411625 47.53905898 -36.36688056     2    402   406   407   408
H 62.61740203 48.48426605 -37.14357299     6    405    0    0    0
H 65.46948592 46.76893516 -37.79771649     6    405    0    0    0
C 63.21487211 45.41033769 -34.76067579     2    405   409   410   411
H 64.78128365 44.60084401 -33.76129178     6    408    0    0    0
H 62.09465896 46.13762016 -33.27298056     6    408    0    0    0
C 61.85264841 43.41017249 -36.40148114     2    408   412   413   414
H 60.83440750 44.24401959 -37.92607517     6    411    0    0    0
H 63.16551275 42.14184261 -37.31582262     6    411    0    0    0
C 60.21919876 41.44746885 -34.93543046     2    411   415   416   417
H 61.43650471 40.50860552 -33.56291367     6    414    0    0    0
H 58.74287290 42.47128690 -34.02134397     6    414    0    0    0
C 59.06301595 39.45720088 -36.67650657     2    414   418   419   420
H 58.11173192 40.51636669 -38.24836227     6    417    0    0    0
H 60.56221561 38.43179180 -37.52085743     6    417    0    0    0
C 57.47674360 37.55332373 -35.32589033     2    417   421   422   423
H 58.52043489 36.33085230 -34.00644678     6    420    0    0    0
H 56.11609355 38.55776891 -34.20063441     6    420    0    0    0
C 56.04300654 35.69012796 -37.23445653     2    420   424   425   426
H 54.28055298 34.90227865 -36.63436429     6    423    0    0    0
H 55.10548983 36.77776950 -38.70393327     6    423    0    0    0
C 57.77324274 33.54315232 -38.52395623     1    423   427   428   429
H 56.90136122 32.43172787 -39.93930105     6    426    0    0    0
H 58.48165172 32.14586740 -37.26603100     6    426    0    0    0
H 59.53889038 33.91258877 -39.36800717     6    426    0    0    0
H 61.89886345 20.52287809 -29.99778387     6     431    0    0    0 
C 60.26362109 21.27831514 -28.94449760     1     430    432    433    434
H 58.73126933 21.56626323 -30.32625176     6     431    0    0    0
H 59.74461374 19.60331400 -27.95269939     6     431    0    0    0
C 60.93239283 23.68377292 -27.13638104     2     431    435    436    437
H 62.88873412 23.50410660 -26.55230697     6     434    0    0    0
H 60.68028169 25.38311597 -28.34325111     6     434    0    0    0
C 59.26546346 23.86781833 -24.83931201     2     434    438   439   440
H 57.30269894 23.83088896 -25.18498669     6     437    0    0    0
H 59.59286319 22.22687129 -23.54030288     6     437    0    0    0
C 59.75028539 26.38446214 -23.23493634     2     437   441   442   443
H 58.88445222 26.11944622 -21.27627824     6    440    0    0    0
H 61.68684089 26.90286748 -23.08815893     6    440    0    0    0
C 58.49078909 28.67544480 -24.53288667     2    440   444   445   446
H 59.85993056 30.16562363 -25.04639074     6    443    0    0    0
H 57.60948790 28.04571935 -26.26902972     6    443    0    0    0
C 56.31286147 29.92616817 -23.01625997     2    443   447   448   449
H 54.74615492 28.53978606 -22.56045918     6    446    0    0    0
H 57.16461757 30.77569019 -21.26359869     6    446    0    0    0
C 55.06903833 32.07895793 -24.40286944     2    446   450   451   452
H 56.24964242 33.77017570 -24.56792359     6    449    0    0    0
H 54.42577378 31.55298300 -26.27640380     6    449    0    0    0
C 52.61073859 32.99884630 -23.17183389     2    449   453   454   455
H 51.25742792 31.56731738 -22.38579594     6    452    0    0    0
H 53.25766320 33.90685573 -21.28103633     6    452    0    0    0
C 50.99494293 34.77212662 -24.78930106     2    452   456   457   458
H 52.17346087 36.53122577 -25.12266197     6    455    0    0    0
H 50.67745534 33.80762737 -26.61647096     6    455    0    0    0
C 48.55473472 35.62069149 -23.39650949     2    455   459   460   461
H 47.48872210 36.74386250 -24.67791829     6    458    0    0    0
H 47.14431875 34.15465529 -23.01718896     6    458    0    0    0
C 48.93400347 37.34216818 -20.96120878     2    458   462   463   464
H 49.65206417 36.29359331 -19.25433146     6    461    0    0    0
H 50.25448924 38.79907438 -21.71135619     6    461    0    0    0
C 46.58535404 38.85734514 -20.06652129     1    461   465   466   467
H 45.39154700 37.71173234 -18.94994590     6    464    0    0    0
H 45.42748453 39.73171670 -21.49146321     6    464    0    0    0
H 47.27548907 40.52936409 -18.98139661     6    464    0    0    0
H 99.61952013 9.88005416 -39.00935140     6     469    0    0    0 
C 99.89577140 8.91859129 -37.26851770     1     468    470    471    472
H 101.65043488 7.69173954 -37.30126313     6     469    0    0    0
H 100.27467882 10.52184243 -36.06616889     6     469    0    0    0
C 97.55683725 7.27116235 -36.56292791     2     469    473    474    475
H 98.01407680 5.99742259 -34.94226624     6     472    0    0    0
H 96.11894129 8.69184360 -35.98346999     6     472    0    0    0
C 96.39113840 5.78790815 -38.76792778     2     472    476   477   478
H 96.45019825 6.89952290 -40.57252238     6     475    0    0    0
H 97.59754889 4.23394165 -39.23729369     6     475    0    0    0
C 93.75992564 4.68721238 -38.05586260     2     475   479   480   481
H 93.99709789 3.48213669 -36.35994710     6    478    0    0    0
H 92.57152802 6.27766955 -37.59634792     6    478    0    0    0
C 92.69745964 3.16013525 -40.36751511     2    478   482   483   484
H 92.93332412 4.33826275 -42.00316044     6    481    0    0    0
H 93.86206525 1.54048148 -40.73620535     6    481    0    0    0
C 90.01261464 2.22956338 -39.98701531     2    481   485   486   487
H 89.78993566 1.02671864 -38.43537500     6    484    0    0    0
H 88.63700705 3.84090698 -39.82183579     6    484    0    0    0
C 89.08672520 0.88325787 -42.32693062     2    484   488   489   490
H 89.34874934 2.20048837 -43.92857483     6    487    0    0    0
H 90.31354210 -0.68718968 -42.82973900     6    487    0    0    0
C 86.31457473 0.00354310 -42.26153534     2    487   491   492   493
H 86.04028930 -0.69126218 -40.39325164     6    490    0    0    0
H 85.05362315 1.72327264 -42.48649517     6    490    0    0    0
C 85.73287195 -1.78636557 -44.46334057     2    490   494   495   496
H 86.01337835 -0.78803824 -46.31300249     6    493    0    0    0
H 87.27555738 -3.20957465 -44.28707861     6    493    0    0    0
C 83.36538243 -3.15337267 -44.32686810     2    493   497   498   499
H 83.39957398 -4.08721697 -42.52816751     6    496    0    0    0
H 81.83033558 -1.77947165 -44.14603813     6    496    0    0    0
C 82.82777555 -5.06020763 -46.51004720     2    496   500   501   502
H 82.96252529 -4.13646280 -48.26717924     6    499    0    0    0
H 84.41277857 -6.49497094 -46.43393115     6    499    0    0    0
C 80.33004053 -6.43700052 -46.38514840     1    499   503   504   505
H 78.96895694 -5.32480495 -47.49130196     6    502    0    0    0
H 79.48747387 -6.80319736 -44.51724883     6    502    0    0    0
H 80.43765867 -8.21762571 -47.36339954     6    502    0    0    0
H 62.68302695 5.43788770 -48.00652120     6     507    0    0    0 
C 60.90718922 6.08881706 -46.85883695     1     506    508    509    510
H 59.31621955 5.34658836 -47.93511945     6     507    0    0    0
H 60.72471862 4.96273089 -45.12376580     6     507    0    0    0
C 61.06181402 8.96642613 -46.43632541     2     507    511    512    513
H 63.01583670 9.68638488 -46.20290247     6     510    0    0    0
H 60.50196725 9.89347558 -48.20053015     6     510    0    0    0
C 59.36183465 9.89399248 -44.27618294     2     510    514   515   516
H 57.42179330 9.38533143 -44.37839100     6     513    0    0    0
H 59.89584218 8.83635787 -42.71934748     6     513    0    0    0
C 59.79135147 12.65137797 -43.61591361     2     513   517   518   519
H 61.76077052 13.18695990 -43.22106862     6    516    0    0    0
H 59.11528435 13.69246417 -45.25766230     6    516    0    0    0
C 58.17122015 13.44271815 -41.42125781     2    516   520   521   522
H 56.26566811 12.97372257 -41.81046093     6    519    0    0    0
H 58.53649742 12.41783379 -39.66795402     6    519    0    0    0
C 58.40452833 16.20629267 -40.87079256     2    519   523   524   525
H 60.24522498 16.59331677 -40.12940302     6    522    0    0    0
H 58.22796299 17.31806177 -42.51549461     6    522    0    0    0
C 56.49072844 17.09643000 -38.80589994     2    522   526   527   528
H 54.40628537 17.04684103 -39.31872299     6    525    0    0    0
H 56.58040014 16.03066372 -36.98040956     6    525    0    0    0
C 57.28275575 19.76150233 -37.99468900     2    525   529   530   531
H 59.14839343 19.56994810 -37.28071816     6    528    0    0    0
H 57.42509165 20.89944605 -39.64736219     6    528    0    0    0
C 55.65733476 21.09602609 -36.08597813     2    528   532   533   534
H 53.72730024 21.27686647 -36.87877716     6    531    0    0    0
H 55.49896076 19.98788730 -34.37091802     6    531    0    0    0
C 56.78328284 23.81277678 -35.36022854     2    531   535   536   537
H 58.81907480 23.66002232 -34.85764642     6    534    0    0    0
H 56.80821842 24.74307648 -37.22039096     6    534    0    0    0
C 55.33281450 25.23469494 -33.38387702     2    534   538   539   540
H 53.40174239 25.68423641 -33.98863990     6    537    0    0    0
H 55.49077449 23.96291571 -31.60261209     6    537    0    0    0
C 56.48852275 27.86414711 -32.82644278     1    537   541   542   543
H 55.44008551 28.68119409 -31.22426799     6    540    0    0    0
H 56.72771321 28.97449368 -34.46860759     6    540    0    0    0
H 58.33053734 27.53819225 -32.01514398     6    540    0    0    0
H 67.96896179 38.71887571 -34.44098188     6     545    0    0    0 
C 69.37084080 40.32194898 -34.25304735     1     544    546    547    548
H 68.76566867 42.08183964 -35.19724911     6     545    0    0    0
H 69.47967333 40.45561404 -32.17199913     6     545    0    0    0
C 71.89777824 39.39099749 -35.42253023     2     545    549    550    551
H 73.18805974 38.57112333 -34.00682050     6     548    0    0    0
H 71.80199960 37.99360743 -36.82578903     6     548    0    0    0
C 73.16641453 41.65723585 -36.66762923     2     548    552   553   554
H 71.99739110 42.55836766 -38.05820542     6     551    0    0    0
H 73.40330920 42.97169914 -35.15636771     6     551    0    0    0
C 75.69909061 40.92372126 -37.97236614     2     551   555   556   557
H 77.19497271 40.65765559 -36.59139308     6    554    0    0    0
H 75.50837811 39.26413487 -39.30249933     6    554    0    0    0
C 76.68089024 43.01570237 -39.64856030     2    554   558   559   560
H 75.32519037 44.00331381 -40.81133377     6    557    0    0    0
H 77.08523854 44.49378654 -38.26564598     6    557    0    0    0
C 79.22633880 42.31159175 -41.05503902     2    557   561   562   563
H 80.71878579 42.64788995 -39.78553067     6    560    0    0    0
H 79.35852796 40.32686765 -41.70126199     6    560    0    0    0
C 79.76820019 44.13759179 -43.31721432     2    560   564   565   566
H 78.06365487 43.97116317 -44.64985960     6    563    0    0    0
H 79.83510965 46.18932643 -42.69636694     6    563    0    0    0
C 82.27044916 43.69496010 -44.62790086     2    563   567   568   569
H 83.67656332 44.39295396 -43.23828016     6    566    0    0    0
H 82.60717274 41.74786433 -44.98580052     6    566    0    0    0
C 82.59471279 45.29645770 -47.16451587     2    566   570   571   572
H 81.06251436 44.94634095 -48.42541318     6    569    0    0    0
H 82.41616937 47.36575645 -46.76555426     6    569    0    0    0
C 85.18822339 44.72152734 -48.40445955     2    569   573   574   575
H 86.60861615 44.34090984 -46.96475459     6    572    0    0    0
H 85.06540861 43.01357975 -49.35110939     6    572    0    0    0
C 85.98904824 46.64804840 -50.36766664     2    572   576   577   578
H 86.08324737 48.44511765 -49.50541800     6    575    0    0    0
H 87.93104797 46.21573428 -51.16936170     6    575    0    0    0
C 84.32088611 46.59013253 -52.79607564     1    575   579   580   581
H 84.54976250 44.85256436 -53.83095635     6    578    0    0    0
H 84.82602912 48.25866053 -53.91086266     6    578    0    0    0
H 82.29072337 46.50973083 -52.27410435     6    578    0    0    0
H 93.65190107 9.22656453 -49.02629709     6     583    0    0    0 
C 93.78892419 10.89278918 -50.31483740     1     582    584    585    586
H 95.16751233 10.24051342 -51.66822935     6     583    0    0    0
H 92.07484461 11.08279897 -51.46201920     6     583    0    0    0
C 94.44414002 13.27402266 -48.94785419     2     583    587    588    589
H 92.58704988 13.86288514 -48.07221612     6     586    0    0    0
H 95.75624394 13.03193797 -47.36674115     6     586    0    0    0
C 95.58309384 15.36942138 -50.69152279     2     586    590   591   592
H 97.69074624 15.00881105 -50.69638884     6     589    0    0    0
H 95.04669077 15.45206038 -52.70445609     6     589    0    0    0
C 95.29034675 17.97059811 -49.33107010     2     589   593   594   595
H 93.27500518 18.57185276 -49.41277636     6    592    0    0    0
H 95.73869782 17.68829093 -47.33304462     6    592    0    0    0
C 96.73791588 20.21683499 -50.52077404     2    592   596   597   598
H 98.61412760 19.42248417 -50.95408354     6    595    0    0    0
H 96.05133624 20.55204336 -52.58980936     6    595    0    0    0
C 96.85451480 22.75952899 -49.01322046     2    595   599   600   601
H 94.90242013 23.52722484 -48.72184867     6    598    0    0    0
H 97.57447684 22.41120185 -47.06797754     6    598    0    0    0
C 98.75312014 24.50401558 -50.49371529     2    598   602   603   604
H 100.65499124 23.94840618 -50.15105118     6    601    0    0    0
H 98.55445843 24.42856920 -52.63537366     6    601    0    0    0
C 98.32383406 27.24254102 -49.56781377     2    601   605   606   607
H 96.33400099 27.89516137 -49.59188561     6    604    0    0    0
H 98.86953803 27.45405808 -47.58522283     6    604    0    0    0
C 99.68136735 29.19341437 -51.29082224     2    604   608   609   610
H 101.72748796 28.77132468 -51.63350432     6    607    0    0    0
H 98.80620934 28.80144375 -53.16106769     6    607    0    0    0
C 99.21859830 31.94116303 -50.17232167     2    607   611   612   613
H 97.22891140 32.36928772 -49.85495695     6    610    0    0    0
H 100.13199267 32.09325790 -48.30161799     6    610    0    0    0
C 100.37030686 33.82254068 -52.02547541     2    610   614   615   616
H 102.15994253 32.98344722 -52.54799232     6    613    0    0    0
H 99.46103806 33.66336666 -53.89417813     6    613    0    0    0
C 100.84948617 36.61255111 -51.05669767     1    613   617   618   619
H 102.30364233 37.40399612 -52.29815429     6    616    0    0    0
H 101.62650827 36.62437170 -49.15563373     6    616    0    0    0
H 99.20163096 37.70657492 -51.36750413     6    616    0    0    0
H 57.40647771 36.89486025 -59.30203993     6     621    0    0    0 
C 57.73756331 35.72999864 -57.66442141     1     620    622    623    624
H 59.09495454 36.72429154 -56.59457832     6     621    0    0    0
H 56.00330501 35.72863606 -56.59748020     6     621    0    0    0
C 58.72103046 33.00332535 -58.36994595     2     621    625    626    627
H 58.90313813 31.79829697 -56.69407129     6     624    0    0    0
H 57.29570785 31.96961444 -59.47567541     6     624    0    0    0
C 61.26150311 33.30090439 -59.74590591     2     624    628   629   630
H 60.83400957 34.56567927 -61.30101556     6     627    0    0    0
H 62.54788670 34.50389636 -58.56438567     6     627    0    0    0
C 62.46385552 30.94815117 -61.03064232     2     627   631   632   633
H 63.17340998 29.65159487 -59.62518718     6    630    0    0    0
H 61.21952153 29.75025953 -62.15058625     6    630    0    0    0
C 64.52019670 31.77507073 -62.93957022     2    630   634   635   636
H 63.55354541 32.72785335 -64.44480269     6    633    0    0    0
H 65.50071469 33.37350176 -61.98755654     6    633    0    0    0
C 66.09159457 29.87546899 -64.39874006     2    633   637   638   639
H 67.33858805 28.91693124 -63.08582730     6    636    0    0    0
H 64.89552748 28.37303576 -65.09440874     6    636    0    0    0
C 67.75852223 30.97339405 -66.37753999     2    636   640   641   642
H 66.62232174 31.98729722 -67.80480894     6    639    0    0    0
H 69.02947039 32.52694081 -65.53390979     6    639    0    0    0
C 69.64869575 29.13722342 -67.66810371     2    639   643   644   645
H 70.81135007 28.21579184 -66.35372708     6    642    0    0    0
H 68.60666735 27.45886320 -68.38270108     6    642    0    0    0
C 71.08203095 30.59817040 -69.76917521     2    642   646   647   648
H 69.74657944 31.61296202 -70.90226084     6    645    0    0    0
H 72.27850537 32.06549841 -68.99519125     6    645    0    0    0
C 72.86919098 28.86171790 -71.25009277     2    645   649   650   651
H 73.80491558 27.71494575 -69.93198251     6    648    0    0    0
H 71.83876345 27.38948029 -72.30945866     6    648    0    0    0
C 74.68536301 30.02957293 -73.05441425     2    648   652   653   654
H 73.40190703 31.12711059 -74.29630854     6    651    0    0    0
H 76.19015252 31.19399278 -72.08950715     6    651    0    0    0
C 75.77787745 27.99667479 -74.81993851     1    651   655   656   657
H 77.02781949 26.54672468 -73.63933402     6    654    0    0    0
H 76.71212827 28.85002299 -76.54005192     6    654    0    0    0
H 74.31984037 26.86114049 -75.73619828     6    654    0    0    0
H 85.94825642 22.72025633 -50.47583800     6     659    0    0    0 
C 86.74821779 23.24117899 -52.29580221     1     658    660    661    662
H 85.30687991 22.97904718 -53.73730849     6     659    0    0    0
H 87.27421014 25.30263763 -52.10063178     6     659    0    0    0
C 89.05500747 21.59163954 -52.44608612     2     659    663    664    665
H 90.15888061 21.62059388 -50.68536535     6     662    0    0    0
H 88.51463289 19.55314045 -52.52885403     6     662    0    0    0
C 90.76724757 22.14503662 -54.66154807     2     662    666   667   668
H 91.82105528 20.46831520 -55.25162688     6     665    0    0    0
H 89.55557448 22.45362189 -56.27216596     6     665    0    0    0
C 92.40891457 24.44777767 -54.02512599     2     665   669   670   671
H 92.73309376 24.33178157 -52.03755392     6    668    0    0    0
H 94.31747366 24.00076711 -54.84866662     6    668    0    0    0
C 91.50583565 26.91919177 -55.21137531     2    668   672   673   674
H 90.95159967 26.50870515 -57.16853080     6    671    0    0    0
H 89.70190792 27.45359633 -54.39419817     6    671    0    0    0
C 93.60214958 29.03303918 -55.26265609     2    671   675   676   677
H 94.17779872 28.81619932 -53.41320438     6    674    0    0    0
H 95.11002712 28.85361493 -56.48328561     6    674    0    0    0
C 92.41198394 31.74115936 -55.46510637     2    674   678   679   680
H 93.86674052 33.14451729 -56.02736732     6    677    0    0    0
H 90.83467094 31.72501136 -56.76202472     6    677    0    0    0
C 91.30009839 32.44392110 -53.01676549     2    677   681   682   683
H 90.18974123 30.91749140 -52.32249379     6    680    0    0    0
H 92.83365639 32.43011585 -51.39816590     6    680    0    0    0
C 89.57350527 34.77282863 -53.01204395     2    680   684   685   686
H 88.29276638 34.41880571 -54.53099202     6    683    0    0    0
H 88.60214980 35.16909754 -51.30902659     6    683    0    0    0
C 91.17875817 37.15840689 -53.68488116     2    683   687   688   689
H 92.83969513 37.42295711 -52.64879919     6    686    0    0    0
H 91.81522996 36.91553692 -55.63191967     6    686    0    0    0
C 89.55065700 39.64827392 -53.84476655     2    686   690   691   692
H 87.65288810 39.33935447 -54.64109531     6    689    0    0    0
H 89.24943958 40.66822596 -52.01501196     6    689    0    0    0
C 90.74296867 41.49735955 -55.75566517     1    689   693   694   695
H 89.83709962 43.33730176 -55.83817647     6    692    0    0    0
H 90.38460251 40.99419353 -57.74297555     6    692    0    0    0
H 92.81531424 41.51550277 -55.32076028     6    692    0    0    0
H 78.72138663 54.91214990 -49.53844733     6     697    0    0    0 
C 78.68744860 55.57029783 -47.66777448     1     696    698    699    700
H 80.57707259 56.52979548 -47.52174108     6     697    0    0    0
H 77.09834724 56.88665434 -47.35860583     6     697    0    0    0
C 78.59735680 53.37674458 -45.76330472     2     697    701    702    703
H 76.79425452 52.44937404 -46.19675431     6     700    0    0    0
H 79.93973758 51.93459355 -46.09970856     6     700    0    0    0
C 78.76955469 54.26356900 -42.96609785     2     700    704   705   706
H 80.72868338 54.73992433 -42.73802110     6     703    0    0    0
H 77.40038064 55.85424919 -42.68840431     6     703    0    0    0
C 78.24061415 52.06195122 -41.11957521     2     703   707   708   709
H 76.22369940 51.75272677 -41.07413236     6    706    0    0    0
H 78.90751295 50.21888022 -41.67263615     6    706    0    0    0
C 79.14672841 52.52372264 -38.51139179     2    706   710   711   712
H 81.02778620 52.11944389 -38.34228509     6    709    0    0    0
H 79.13005390 54.41174562 -37.61887871     6    709    0    0    0
C 77.76755016 50.61525137 -36.67182106     2    709   713   714   715
H 77.84031268 48.57284213 -37.13816252     6    712    0    0    0
H 78.98076289 50.75584677 -35.00349724     6    712    0    0    0
C 75.11754127 51.57904652 -35.99841483     2    712   716   717   718
H 74.96114560 53.47683230 -35.17144433     6    715    0    0    0
H 74.02793243 51.58128414 -37.71771573     6    715    0    0    0
C 73.75090143 49.38073767 -34.36856276     2    715   719   720   721
H 71.68182611 49.40795452 -34.83157777     6    718    0    0    0
H 74.36729450 47.56872844 -35.05789315     6    718    0    0    0
C 73.92630311 49.47921446 -31.36449613     2    718   722   723   724
H 75.85077221 48.99033034 -31.08750960     6    721    0    0    0
H 73.59752798 51.43101674 -30.66009703     6    721    0    0    0
C 71.99404791 47.59120976 -30.15736375     2    721   725   726   727
H 70.14278201 47.82348342 -30.90618264     6    724    0    0    0
H 72.53870319 45.75037270 -30.47144865     6    724    0    0    0
C 71.70543637 48.17154117 -27.29632899     2    724   728   729   730
H 71.06606241 50.22271561 -27.21471881     6    727    0    0    0
H 70.30430778 46.81547929 -26.61802770     6    727    0    0    0
C 74.27136073 47.75087241 -25.94952119     1    727   731   732   733
H 74.06272960 47.57089532 -23.81146152     6    730    0    0    0
H 75.74966630 49.03631197 -26.50130464     6    730    0    0    0
H 74.96712152 45.84193990 -26.19435156     6    730    0    0    0
H 80.92881877 14.07156163 -28.68711772     6     735    0    0    0 
C 82.50236852 14.68075700 -29.80240287     1     734    736    737    738
H 82.10579592 16.71693257 -30.25309603     6     735    0    0    0
H 84.27098027 14.67146170 -28.65622900     6     735    0    0    0
C 82.85036369 13.09506814 -32.14697626     2     735    739    740    741
H 81.85845197 14.00103992 -33.71409098     6     738    0    0    0
H 84.87880734 13.02780193 -32.69881780     6     738    0    0    0
C 81.72230641 10.43487056 -31.75433650     2     738    742   743   744
H 82.75774512 9.73083468 -30.03425917     6     741    0    0    0
H 79.63614986 10.22030444 -31.38194239     6     741    0    0    0
C 82.41827406 8.97377553 -34.20380581     2     741   745   746   747
H 81.65741891 9.92700658 -35.92660376     6    744    0    0    0
H 84.49906533 9.16786502 -34.54039906     6    744    0    0    0
C 81.47542288 6.24233007 -34.26828750     2    744   748   749   750
H 82.61690859 5.11152750 -32.77632772     6    747    0    0    0
H 79.51599935 6.15826845 -33.61511482     6    747    0    0    0
C 81.44860175 4.78892609 -36.84748567     2    747   751   752   753
H 80.49481755 6.10660135 -38.19626867     6    750    0    0    0
H 83.29402627 4.53960114 -37.67398423     6    750    0    0    0
C 79.87758244 2.31813571 -36.70567048     2    750   754   755   756
H 80.21460408 1.14195327 -35.12547706     6    753    0    0    0
H 77.94446513 3.00740557 -36.26899004     6    753    0    0    0
C 80.23860338 0.65077674 -39.15214975     2    753   757   758   759
H 80.73701390 1.75229945 -40.67308888     6    756    0    0    0
H 81.81992347 -0.68594904 -38.99455854     6    756    0    0    0
C 77.82123785 -0.80491417 -39.67786915     2    756   760   761   762
H 76.02939160 -0.00442590 -39.17256377     6    759    0    0    0
H 77.50065170 -1.01662342 -41.63375487     6    759    0    0    0
C 77.79220805 -3.60016939 -38.71667896     2    759   763   764   765
H 79.56728814 -4.65499831 -39.00689364     6    762    0    0    0
H 77.37675776 -3.43684275 -36.73525957     6    762    0    0    0
C 75.57272669 -4.94415366 -39.90630494     2    762   766   767   768
H 73.67480452 -4.21927093 -39.08565256     6    765    0    0    0
H 75.38746382 -4.44960085 -41.96287866     6    765    0    0    0
C 75.21344970 -7.85360468 -39.65125740     1    765   769   770   771
H 76.92801161 -8.88099170 -40.15167587     6    768    0    0    0
H 73.53182883 -8.68292339 -40.59331443     6    768    0    0    0
H 74.99678820 -8.18862771 -37.60231518     6    768    0    0    0
H 59.09655503 22.00605367 -67.12253751     6     773    0    0    0 
C 57.53484506 22.39734778 -68.20336632     1     772    774    775    776
H 58.16602475 23.77607065 -69.54119249     6     773    0    0    0
H 57.17755581 20.75966318 -69.37981922     6     773    0    0    0
C 55.33866003 23.35285931 -66.64571353     2     773    777    778    779
H 53.73219016 24.01544263 -67.87989908     6     776    0    0    0
H 54.79209392 21.81863008 -65.40856607     6     776    0    0    0
C 55.99333198 25.77356383 -65.11575355     2     776    780   781   782
H 57.45339631 25.30478828 -63.61075241     6     779    0    0    0
H 56.78085315 27.18158815 -66.40679435     6     779    0    0    0
C 53.55122971 26.83929370 -63.92240529     2     779   783   784   785
H 52.38882747 27.75446961 -65.30780424     6    782    0    0    0
H 52.44195448 25.27386378 -63.08837158     6    782    0    0    0
C 53.93222964 28.74941583 -61.76497486     2    782   786   787   788
H 55.45749022 27.99773412 -60.51052780     6    785    0    0    0
H 54.67425397 30.46133630 -62.70807765     6    785    0    0    0
C 51.54103502 29.56242893 -60.42643298     2    785   789   790   791
H 50.31612496 30.81325213 -61.49970782     6    788    0    0    0
H 50.54083587 27.78298168 -59.99806463     6    788    0    0    0
C 52.10893551 30.97834472 -57.90756035     2    788   792   793   794
H 53.38114154 29.73293990 -57.07996333     6    791    0    0    0
H 53.35968284 32.52387301 -58.57639285     6    791    0    0    0
C 49.88752245 31.59501519 -56.26167984     2    791   795   796   797
H 48.77570059 32.98162481 -57.37248746     6    794    0    0    0
H 48.63580033 29.98566092 -56.07434266     6    794    0    0    0
C 50.57419478 32.81053670 -53.78651577     2    794   798   799   800
H 52.01288151 31.81427569 -52.75476204     6    797    0    0    0
H 51.77906113 34.50556517 -54.06962363     6    797    0    0    0
C 48.27023225 33.67552446 -52.25980507     2    797   801   802   803
H 46.86000590 34.78043478 -53.25716370     6    800    0    0    0
H 47.23489662 32.05311412 -51.78115624     6    800    0    0    0
C 49.04104118 35.23282304 -49.91545156     2    800   804   805   806
H 50.35794093 34.35471356 -48.71974146     6    803    0    0    0
H 50.16476348 36.87663571 -50.38611726     6    803    0    0    0
C 46.79784282 36.13649196 -48.37097297     1    803   807   808   809
H 47.80541545 36.96788963 -46.87784637     6    806    0    0    0
H 45.60480821 34.64986380 -47.78866266     6    806    0    0    0
H 45.96425103 37.53393356 -49.36447556     6    806    0    0    0
H 83.04678232 18.24783810 -48.67404804     6     811    0    0    0 
C 84.19699723 16.44306630 -48.58442810     1     810    812    813    814
H 85.91112293 16.64536955 -49.59593009     6     811    0    0    0
H 84.85583916 16.01057911 -46.68943724     6     811    0    0    0
C 82.89550812 14.06378744 -49.60721720     2     811    815    816    817
H 82.81293218 14.18863924 -51.60449149     6     814    0    0    0
H 83.70221006 12.31259030 -48.99954403     6     814    0    0    0
C 79.96841032 14.10210415 -49.08898927     2     814    818   819   820
H 79.53154949 13.50869113 -47.05883207     6     817    0    0    0
H 79.17190353 15.95493221 -49.24810956     6     817    0    0    0
C 78.37457803 12.49661815 -50.96364038     2     817   821   822   823
H 76.44642941 12.78629069 -50.58285567     6    820    0    0    0
H 78.72346822 13.05560974 -52.92784424     6    820    0    0    0
C 79.17901154 9.75592163 -50.76775510     2    820   824   825   826
H 81.24494561 9.45460141 -51.08161060     6    823    0    0    0
H 79.16362052 9.29916225 -48.81625760     6    823    0    0    0
C 77.81214132 8.15403448 -52.57817911     2    823   827   828   829
H 75.80797687 8.73332822 -52.40981559     6    826    0    0    0
H 78.51366955 8.44447247 -54.52069454     6    826    0    0    0
C 78.23987401 5.39221611 -51.92347304     2    826   830   831   832
H 80.27558946 5.11106296 -52.14926998     6    829    0    0    0
H 77.81391845 4.85989264 -49.93155363     6    829    0    0    0
C 76.93777436 3.49853501 -53.71689850     2    829   833   834   835
H 74.95375654 4.02878727 -53.97813636     6    832    0    0    0
H 77.71665824 3.96706649 -55.64599468     6    832    0    0    0
C 77.00724118 0.72952502 -52.96686376     2    832   836   837   838
H 79.06992216 0.22724510 -52.79663576     6    835    0    0    0
H 76.23905411 0.25010622 -51.09291128     6    835    0    0    0
C 75.86216620 -1.04823521 -54.96538862     2    835   839   840   841
H 74.34355620 -0.10216502 -56.09417862     6    838    0    0    0
H 77.35340915 -1.32022965 -56.42141280     6    838    0    0    0
C 75.07794996 -3.59471096 -53.87522963     2    838   842   843   844
H 76.73694265 -4.45362986 -52.94284864     6    841    0    0    0
H 73.41048238 -3.43920334 -52.62052912     6    841    0    0    0
C 74.28721718 -5.15602635 -56.10565060     1    841   845   846   847
H 72.91490413 -4.28540724 -57.34282277     6    844    0    0    0
H 73.47558130 -7.01593067 -55.59626811     6    844    0    0    0
H 75.94045869 -5.21738623 -57.36021531     6    844    0    0    0
H 92.50818813 46.01437630 -63.14297550     6     849    0    0    0 
C 94.17971698 44.66388456 -63.57154687     1     848    850    851    852
H 93.90329887 44.17828353 -65.57126300     6     849    0    0    0
H 96.03264780 45.65491864 -63.35378419     6     849    0    0    0
C 94.09748351 42.24587692 -62.05990865     2     849    853    854    855
H 93.41658396 42.68925050 -60.15611266     6     852    0    0    0
H 92.80936742 40.89007089 -62.92983823     6     852    0    0    0
C 96.73036993 41.08052079 -61.92845165     2     852    856   857   858
H 97.50454960 40.72872618 -63.77001904     6     855    0    0    0
H 98.07345686 42.29832441 -60.93939215     6     855    0    0    0
C 96.42375694 38.50841331 -60.61833017     2     855   859   860   861
H 95.93257306 38.74728042 -58.64520699     6    858    0    0    0
H 94.95980616 37.34887118 -61.57300051     6    858    0    0    0
C 98.93074313 37.06455115 -60.50210280     2    858   862   863   864
H 99.61332477 36.79005722 -62.42330672     6    861    0    0    0
H 100.31443194 38.21391134 -59.38043376     6    861    0    0    0
C 98.60086458 34.45543608 -59.37467666     2    861   865   866   867
H 97.45771444 34.75980234 -57.60384867     6    864    0    0    0
H 97.57946641 33.05819160 -60.62813116     6    864    0    0    0
C 101.24267213 33.51638478 -58.55566758     2    864   868   869   870
H 102.89800864 33.95858916 -59.83271293     6    867    0    0    0
H 101.87109923 34.34691593 -56.76671477     6    867    0    0    0
C 101.58442460 30.64563137 -58.61986284     2    867   871   872   873
H 100.08992689 29.57849474 -57.58958386     6    870    0    0    0
H 101.38459693 30.24651401 -60.57977505     6    870    0    0    0
C 104.30930630 29.81854917 -57.58649038     2    870   874   875   876
H 105.77887589 30.47762659 -58.85354495     6    873    0    0    0
H 104.61731167 30.86939743 -55.94055963     6    873    0    0    0
C 104.45448304 26.87927731 -57.07194018     2    873   877   878   879
H 103.03869430 26.63066236 -55.51076959     6    876    0    0    0
H 103.86055069 25.73014628 -58.69372891     6    876    0    0    0
C 107.25926917 26.03780478 -56.40562251     2    876   880   881   882
H 108.31564037 26.20618013 -58.23686196     6    879    0    0    0
H 108.01416996 27.36532659 -55.00145728     6    879    0    0    0
C 107.22943711 23.39824173 -55.27578578     1    879   883   884   885
H 106.96773958 21.97462001 -56.70158165     6    882    0    0    0
H 106.00020679 23.38094754 -53.57689744     6    882    0    0    0
H 109.10697002 23.04560919 -54.57271016     6    882    0    0    0
H 69.41411096 18.88952416 -49.96154353     6     887    0    0    0 
C 68.97597033 20.90394266 -50.30819135     1     886    888    889    890
H 69.05323210 21.31919663 -52.38065332     6     887    0    0    0
H 67.06893115 21.10765063 -49.82309129     6     887    0    0    0
C 70.93134129 22.58608394 -48.90749498     2     887    891    892    893
H 70.68827165 24.60605469 -49.39532701     6     890    0    0    0
H 70.56983601 22.55170871 -46.91173996     6     890    0    0    0
C 73.70770122 21.96607609 -49.07759183     2     890    894   895   896
H 74.21736191 19.92887053 -48.85948361     6     893    0    0    0
H 74.60268572 22.71634528 -50.79521537     6     893    0    0    0
C 75.29855522 23.12619735 -46.99075163     2     893   897   898   899
H 74.97751174 25.18032762 -46.91801313     6    896    0    0    0
H 74.78927280 22.39391272 -45.13146640     6    896    0    0    0
C 78.05378834 22.62545541 -47.41758360     2    896   900   901   902
H 78.17794092 20.53233608 -48.11790657     6    899    0    0    0
H 78.68282416 23.87815483 -48.98382241     6    899    0    0    0
C 79.84868811 23.32970545 -45.13327472     2    899   903   904   905
H 79.92026314 25.34189651 -44.82195012     6    902    0    0    0
H 79.31337594 22.45874711 -43.30452297     6    902    0    0    0
C 82.50512631 22.45963388 -45.63362343     2    902   906   907   908
H 82.65277767 20.37602961 -45.33130640     6    905    0    0    0
H 82.80676234 22.78487952 -47.74125563     6    905    0    0    0
C 84.85707081 23.53602300 -44.17092233     2    905   909   910   911
H 85.08894913 25.52199288 -44.57397203     6    908    0    0    0
H 84.49616990 23.33433444 -42.13644110     6    908    0    0    0
C 87.30472566 22.20281298 -44.95237178     2    908   912   913   914
H 87.22194695 20.22618047 -44.49281053     6    911    0    0    0
H 87.25319434 22.21864542 -46.98156033     6    911    0    0    0
C 89.67363270 23.12181503 -43.64443678     2    911   915   916   917
H 89.97422555 24.86377516 -44.58080915     6    914    0    0    0
H 89.17989606 23.40017331 -41.63445906     6    914    0    0    0
C 92.15481879 21.58352959 -43.83961688     2    914   918   919   920
H 92.09903789 19.57234275 -43.15948100     6    917    0    0    0
H 92.68314888 21.47786465 -45.75091875     6    917    0    0    0
C 94.24889427 22.86285350 -42.19976917     1    917   921   922   923
H 94.13381358 22.81118401 -40.11101275     6    920    0    0    0
H 94.56277748 24.72672024 -42.83009135     6    920    0    0    0
H 95.75779030 21.75696324 -42.91375709     6    920    0    0    0
H 94.49814745 25.98169072 -73.87165856     6     925    0    0    0 
C 92.72646586 26.91418087 -73.30551534     1     924    926    927    928
H 91.89822552 27.59323053 -74.94084611     6     925    0    0    0
H 91.42329369 25.46972897 -72.74054050     6     925    0    0    0
C 93.39261567 28.96387119 -71.40546937     2     925    929    930    931
H 94.42305275 30.54831181 -72.33778772     6     928    0    0    0
H 91.35452743 29.40258417 -70.94821198     6     928    0    0    0
C 94.71978743 28.15266339 -68.99098031     2     928    932   933   934
H 96.25731697 26.89673604 -69.50630722     6     931    0    0    0
H 95.75282617 29.64400708 -68.06055244     6     931    0    0    0
C 92.96474953 26.81602208 -67.17298083     2     931   935   936   937
H 91.32878078 27.97582303 -66.66602203     6    934    0    0    0
H 92.15853222 25.17838152 -68.16983509     6    934    0    0    0
C 94.58519828 26.08761804 -64.77668930     2    934   938   939   940
H 96.27614148 25.02240081 -65.18512913     6    937    0    0    0
H 95.07382305 27.85393300 -63.80241358     6    937    0    0    0
C 93.01078527 24.37062300 -63.15288342     2    937   941   942   943
H 91.15876851 25.11583637 -62.52839605     6    940    0    0    0
H 92.49510378 22.80879370 -64.30877317     6    940    0    0    0
C 94.39783429 23.46384729 -60.82209162     2    940   944   945   946
H 95.29457054 25.11667285 -60.03489559     6    943    0    0    0
H 93.17652516 22.60872458 -59.41126453     6    943    0    0    0
C 96.53789292 21.67859946 -61.46955507     2    943   947   948   949
H 96.04483900 20.35973803 -62.97784112     6    946    0    0    0
H 98.24548990 22.82706552 -61.99125650     6    946    0    0    0
C 97.40683634 20.34759914 -59.10787113     2    946   950   951   952
H 97.28169894 21.44582378 -57.43953005     6    949    0    0    0
H 95.93592769 18.96724861 -58.88387117     6    949    0    0    0
C 99.85617575 18.84145440 -59.47805703     2    949   953   954   955
H 99.54664152 17.33930698 -60.87046447     6    952    0    0    0
H 101.12461030 20.32242408 -60.17622663     6    952    0    0    0
C 100.93533386 17.68328911 -57.02412733     2    952   956   957   958
H 101.06357896 19.17261082 -55.62665981     6    955    0    0    0
H 99.59698889 16.31726368 -56.48211658     6    955    0    0    0
C 103.53972318 16.55709514 -57.48459248     1    955   959   960   961
H 104.27837109 15.67837539 -55.69319241     6    958    0    0    0
H 104.78193394 18.07637530 -57.94695642     6    958    0    0    0
H 103.46731018 14.98028649 -58.82219726     6    958    0    0    0
H 70.69978687 22.79720722 -34.21837793     6     963    0    0    0 
C 71.65287890 22.47829743 -32.45236914     1     962    964    965    966
H 70.46229991 21.28018386 -31.05502771     6     963    0    0    0
H 73.15069054 21.11069406 -33.06443743     6     963    0    0    0
C 72.97546818 24.74612804 -31.31164122     2     963    967    968    969
H 73.97756153 24.04633018 -29.58417793     6     966    0    0    0
H 74.44431422 25.37454250 -32.70137191     6     966    0    0    0
C 71.20084908 26.84106777 -30.69402320     2     966    970   971   972
H 69.95580939 26.12040772 -29.18045053     6     969    0    0    0
H 72.48194266 28.16372505 -29.71622321     6     969    0    0    0
C 69.79351754 28.27624654 -32.87408359     2     969   973   974   975
H 71.23514727 28.30926513 -34.33886440     6    972    0    0    0
H 68.18769568 27.13161345 -33.61861763     6    972    0    0    0
C 69.09578583 31.01153391 -32.30910633     2    972   976   977   978
H 70.82301176 32.13853059 -31.50916091     6    975    0    0    0
H 68.64727061 31.80938725 -34.13619982     6    975    0    0    0
C 66.84011305 31.08301147 -30.36967691     2    975   979   980   981
H 65.19545242 30.22645899 -31.41195516     6    978    0    0    0
H 67.05902735 30.02373653 -28.58661895     6    978    0    0    0
C 65.59481605 33.63499548 -29.67990244     2    978   982   983   984
H 67.20947957 34.64512532 -29.04956629     6    981    0    0    0
H 64.70857053 34.78818038 -31.30737451     6    981    0    0    0
C 63.81350044 33.37390189 -27.40405559     2    981   985   986   987
H 61.73796203 33.14020645 -27.90930738     6    984    0    0    0
H 64.14768469 31.87149740 -26.25259283     6    984    0    0    0
C 63.97930255 35.77175786 -25.72679463     2    984   988   989   990
H 62.68859966 35.60167009 -24.08559441     6    987    0    0    0
H 65.85034150 35.43618866 -25.00253616     6    987    0    0    0
C 63.46524707 38.26808620 -27.02024619     2    987   991   992   993
H 64.88137792 38.64450396 -28.32306543     6    990    0    0    0
H 61.77527850 38.47051771 -28.00755458     6    990    0    0    0
C 63.91255191 40.44395139 -25.11249822     2    990   994   995   996
H 62.30933003 40.61160896 -23.85242956     6    993    0    0    0
H 65.61233015 40.14274467 -23.93612723     6    993    0    0    0
C 64.11628583 42.88872499 -26.42400643     1    993   997   998   999
H 65.49774304 42.87246936 -27.87679515     6    996    0    0    0
H 64.38289125 44.56402299 -25.23344265     6    996    0    0    0
H 62.33257799 43.49303881 -27.41188791     6    996    0    0    0
H 64.27076137 9.05436285 -34.16705485     6     1001    0    0    0 
C 65.96635016 9.83488866 -34.92270227     1     1000    1002    1003    1004
H 67.67322099 8.64480215 -34.71188393     6     1001    0    0    0
H 65.65276198 10.28946122 -36.89886439     6     1001    0    0    0
C 66.63634943 12.45446696 -33.62434949     2     1001    1005    1006    1007
H 68.43919078 13.17676850 -34.25920454     6     1004    0    0    0
H 65.12868793 13.74369612 -33.96140906     6     1004    0    0    0
C 67.09884834 12.17391494 -30.67522752     2     1004    1008   1009   1010
H 65.66833578 11.12358382 -29.52789737     6     1007    0    0    0
H 68.83622260 11.39592932 -29.89364132     6     1007    0    0    0
C 66.68425594 14.82685671 -29.77311995     2     1007   1011   1012   1013
H 67.84349749 16.29489883 -30.77301781     6    1010    0    0    0
H 64.65133552 15.15754541 -29.94898524     6    1010    0    0    0
C 67.23192662 15.03152716 -26.99808794     2    1010   1014   1015   1016
H 66.16320521 13.39959267 -26.20886784     6    1013    0    0    0
H 69.29090063 14.91663524 -26.93562158     6    1013    0    0    0
C 66.46031413 17.58148459 -25.89758019     2    1013   1017   1018   1019
H 67.05704343 18.89802149 -27.29626521     6    1016    0    0    0
H 64.47026659 17.55279998 -25.94458703     6    1016    0    0    0
C 67.49524078 18.22477342 -23.35224564     2    1016   1020   1021   1022
H 66.67882354 16.81152446 -22.10188044     6    1019    0    0    0
H 69.60902344 17.93776220 -23.40061843     6    1019    0    0    0
C 66.74924496 20.74988146 -22.33686766     2    1019   1023   1024   1025
H 64.78845574 21.08590478 -22.75719394     6    1022    0    0    0
H 66.90715032 20.73662812 -20.24846732     6    1022    0    0    0
C 68.50536753 22.85700028 -23.17330989     2    1022   1026   1027   1028
H 70.35575210 22.64223080 -22.27974203     6    1025    0    0    0
H 68.97506189 22.59419185 -25.22236383     6    1025    0    0    0
C 67.55679571 25.56781812 -22.53418105     2    1025   1029   1030   1031
H 65.68896598 25.76693960 -23.31306390     6    1028    0    0    0
H 67.39285858 25.51026388 -20.53252185     6    1028    0    0    0
C 69.30925739 27.84568453 -23.32473740     2    1028   1032   1033   1034
H 71.24961895 27.25770913 -22.80480847     6    1031    0    0    0
H 69.25575132 28.04506604 -25.35453870     6    1031    0    0    0
C 68.72241782 30.33687915 -21.98521870     1    1031   1035   1036   1037
H 70.19681675 31.68975973 -22.46955441     6    1034    0    0    0
H 68.89201693 30.15175067 -19.90471043     6    1034    0    0    0
H 66.91526643 31.00597458 -22.70917786     6    1034    0    0    0
H 59.59209464 22.38276173 -56.30020797     6     1039    0    0    0 
C 60.30641504 22.86452713 -58.17691461     1     1038    1040    1041    1042
H 58.74939832 23.28540361 -59.54310359     6     1039    0    0    0
H 61.18251095 24.75114531 -57.79494068     6     1039    0    0    0
C 62.04157994 20.78038315 -59.20320992     2     1039    1043    1044    1045
H 63.77844769 20.83599645 -58.09822565     6     1042    0    0    0
H 61.30711362 18.80424199 -58.78968947     6     1042    0    0    0
C 62.61923254 21.14896695 -62.05349457     2     1042    1046   1047   1048
H 60.76705086 21.30378443 -63.11075330     6     1045    0    0    0
H 63.54531088 22.91058959 -62.49534903     6     1045    0    0    0
C 64.10204236 18.91424496 -63.17937434     2     1045   1049   1050   1051
H 66.04190184 18.95881053 -62.47609016     6    1048    0    0    0
H 62.99518827 17.19222769 -62.59722338     6    1048    0    0    0
C 64.40245536 19.25358882 -66.02499430     2    1048   1052   1053   1054
H 62.69511376 19.53090161 -66.96299683     6    1051    0    0    0
H 65.42651585 21.04524807 -66.25531259     6    1051    0    0    0
C 65.85515823 17.21902509 -67.22183005     2    1051   1055   1056   1057
H 67.25321131 16.79181384 -65.77982982     6    1054    0    0    0
H 64.46689699 15.69560456 -67.60197102     6    1054    0    0    0
C 67.06494800 18.14139174 -69.75789948     2    1054   1058   1059   1060
H 65.61943075 18.10577690 -71.23003746     6    1057    0    0    0
H 67.61472846 20.01596584 -69.52295996     6    1057    0    0    0
C 69.35430205 16.42792523 -70.30873640     2    1057   1061   1062   1063
H 70.82325264 16.44866882 -68.84056784     6    1060    0    0    0
H 68.58084449 14.46465293 -70.49250421     6    1060    0    0    0
C 70.53062059 17.16069928 -72.92013191     2    1060   1064   1065   1066
H 69.15412337 16.88510044 -74.51203876     6    1063    0    0    0
H 71.07579029 19.23412994 -72.99508087     6    1063    0    0    0
C 72.91058936 15.62607576 -73.49743278     2    1063   1067   1068   1069
H 74.00042889 15.52026559 -71.87297958     6    1066    0    0    0
H 72.38215007 13.68941148 -73.93142194     6    1066    0    0    0
C 74.51861888 16.73895688 -75.63005896     2    1066   1070   1071   1072
H 73.21557016 16.65717675 -77.25732646     6    1069    0    0    0
H 74.82334936 18.60504471 -75.25936573     6    1069    0    0    0
C 76.93401458 15.23925564 -75.98620950     1    1069   1073   1074   1075
H 77.83893398 15.16608301 -74.25677561     6    1072    0    0    0
H 78.34992847 15.99146762 -77.26569354     6    1072    0    0    0
H 76.57109569 13.15390933 -76.43573219     6    1072    0    0    0
H 84.56257823 36.12858292 -72.98006195     6     1077    0    0    0 
C 83.44190853 34.62592902 -74.01411351     1     1076    1078    1079    1080
H 81.92596948 35.39181745 -75.04447147     6     1077    0    0    0
H 84.66971185 33.60539465 -75.30078563     6     1077    0    0    0
C 82.25904675 32.77862945 -72.03189190     2     1077    1081    1082    1083
H 81.20334669 33.73846061 -70.60479609     6     1080    0    0    0
H 80.99702304 31.61195360 -73.26267808     6     1080    0    0    0
C 84.26507533 31.34594368 -70.68911265     2     1080    1084   1085   1086
H 86.01940063 31.06680048 -71.73782937     6     1083    0    0    0
H 84.89018207 32.59485575 -69.25482047     6     1083    0    0    0
C 83.24184056 28.79391417 -69.67423527     2     1083   1087   1088   1089
H 81.66641158 29.08214580 -68.40334544     6    1086    0    0    0
[...]
 1803      H      80.1266560500    37.8171111500   -69.7609645000
 1804      H      79.4760726100    39.7701691600   -67.3620958000
 1805      C      77.0815239800    36.1404738900   -67.6110856000
 1806      H      75.5505315700    36.9514544600   -66.3465437100
 1807      H      76.1734047700    34.9108057900   -68.9636363700
 1808      C      78.9382973100    34.4382711500   -66.1441854100
 1809      H      80.8476018700    34.5671214700   -66.9470788100
 1810      H      79.1359898800    35.2860222800   -64.2991571000
 1811      C      78.0826336700    31.5860521300   -65.6746757900
 1812      H      76.0459625200    31.7357413000   -65.3344911800
 1813      H      78.1781302300    30.6482571200   -67.4505280000
 1814      C      79.2318201700    30.1146351900   -63.4492454800
 1815      H      81.2043677000    29.8262109800   -64.1166483800
 1816      H      79.3256767900    31.3417853100   -61.7730073400
 1817      C      77.8122486300    27.6981554000   -62.7443347300
 1818      H      75.7420521000    27.9906420400   -62.4106848100
 1819      H      78.0230264800    26.3064772100   -64.3164159400
 1820      C      78.6564796700    26.3371379500   -60.3544029900
 1821      H      80.7172553600    26.3047694100   -60.1675046300
 1822      H      78.0312846800    27.5284090700   -58.7754623900
 1823      C      77.6551474500    23.6705736200   -60.3045317100
 1824      H      75.5636571600    23.7521774200   -60.3158086000
 1825      H      78.1640171400    22.6527221700   -62.0300194900
 1826      C      78.4950040600    22.5139264500   -57.9060400100
 1827      H      80.6073103700    22.6279646700   -57.7111335000
 1828      H      78.1069655500    23.8452799800   -56.4288559300
 1829      C      77.5939848900    19.9041198100   -57.3074522100
 1830      H      75.5476505300    19.7179237100   -57.6872198000
 1831      H      78.4163207300    18.6819754500   -58.8267675200
 1832      C      78.2808079500    18.7574110900   -54.7059582600
 1833      H      77.0703172600    19.4706182300   -53.2753692500
 1834      H      80.2098529600    19.1139891100   -54.1057189000
 1835      H      77.9251341300    16.6390223400   -54.7931882500
 1836      H      79.1894805300    28.6259059500   -54.9666918700
 1837      C      80.5913395400    29.2176917900   -53.6983577500
 1838      H      80.3542610800    31.2537749600   -53.1996113100
 1839      H      80.4116548400    27.7415803600   -52.3066301800
 1840      C      83.0774232900    28.9928852600   -55.3190915600
 1841      H      84.8312498700    29.3035565200   -54.0842442000
 1842      H      83.0899581100    26.9587386400   -55.7046871100
 1843      C      83.1054995300    30.8498874500   -57.5031806500
 1844      H      81.8398352500    30.3111284800   -58.9490958500
 1845      H      82.8764538900    32.8431542200   -56.8528163600
 1846      C      85.7115037800    30.7662954900   -58.8164385000
 1847      H      87.2075764000    30.4994175400   -57.3733687800
 1848      H      85.7632494100    29.1123490800   -59.8221294400
 1849      C      86.3871648200    32.9300670800   -60.5520346700
 1850      H      84.7037036100    33.1813340200   -61.5607425500
 1851      H      86.6753817300    34.6302772800   -59.3622694600
 1852      C      88.8348056400    32.6547410500   -62.1911451600
 1853      H      90.3596028200    31.9561076300   -61.1411293600
 1854      H      88.4913029400    31.4784452800   -63.8220168900
 1855      C      89.7266124800    35.1889865000   -63.4599119500
 1856      H      88.1323636900    36.0612761600   -64.5532292000
 1857      H      90.3264455200    36.4266642100   -61.9568322800
 1858      C      91.6512717400    34.7440546900   -65.5930033200
 1859      H      93.5399761800    34.3312656700   -64.8411161400
 1860      H      91.1560886600    32.9592167900   -66.6857570000
 1861      C      91.4981358600    36.9447266500   -67.6899851200
 1862      H      89.4241092100    37.3804683900   -67.9987179600
 1863      H      92.4941341900    38.6888167400   -66.9183065100
 1864      C      92.8531897100    36.1595153800   -70.1475690100
 1865      H      94.6779068200    35.2846698600   -69.8535454600
 1866      H      91.7252261700    34.7043823300   -70.9813215200
 1867      C      92.9990035400    38.7710000300   -71.7127038000
 1868      H      91.2092381700    39.9814113300   -71.5398918700
 1869      H      94.4382805800    39.9992752300   -70.8283903500
 1870      C      93.4959047300    38.3985569300   -74.5982036400
 1871      H      93.9655301600    40.1185408200   -75.5224328400
 1872      H      91.8574991600    37.8698243300   -75.6723984400
 1873      H      94.8443667300    37.0020418600   -75.0238633000
 1874      H      72.6284657000    53.9836055300   -45.1887559900
 1875      C      71.2237542400    52.5509766700   -45.0579639500
 1876      H      69.6609461000    53.4083947100   -44.0555862100
 1877      H      70.6684497700    51.9552587800   -46.9904318000
 1878      C      71.9182975100    50.1521063000   -43.8881817400
 1879      H      73.7300277900    49.4177029100   -44.9186366500
 1880      H      72.4907566200    50.0415851500   -41.8664892600
 1881      C      69.8102152100    48.1984411900   -44.3807605200
 1882      H      67.9418604300    49.0096792200   -43.8682580900
 1883      H      69.6021473100    47.7983202500   -46.3725542000
 1884      C      70.1083490300    45.7249552100   -42.9037279200
 1885      H      72.0662840900    45.0262444800   -43.0438592300
 1886      H      69.6386211900    45.9808694700   -40.9434938100
 1887      C      68.3297513400    43.6786585500   -43.9251449900
 1888      H      66.5146799900    44.6096312400   -44.0967044800
 1889      H      68.9166791400    43.1100347300   -45.7494448200
 1890      C      68.0254553000    41.4370090900   -42.1701768700
 1891      H      69.8650568700    40.7486840600   -41.6940057100
 1892      H      67.3765377200    42.0040311200   -40.3209439300
 1893      C      66.5757897800    39.1197196200   -43.0719818600
 1894      H      64.5636874200    39.1865794100   -43.7316935800
 1895      H      67.6871446200    37.8833974100   -44.4068420900
 1896      C      66.3014365900    37.3106570400   -40.8272995000
 1897      H      67.8897660300    37.1677600100   -39.5581704000
 1898      H      64.8259979800    38.1209353600   -39.7654181900
 1899      C      65.4494630500    34.6028793200   -41.6882264600
 1900      H      63.5990312100    34.9362061600   -42.6556120400
 1901      H      66.6942438000    33.8649600300   -43.0807396100
 1902      C      64.7712475800    32.7404367800   -39.3906616200
 1903      H      66.5704729100    32.2303114900   -38.4575246200
 1904      H      63.6566284400    33.8203089400   -37.9630182800
 1905      C      64.0089782900    30.2184118400   -40.3218735800
 1906      H      62.4243055400    30.3030892200   -41.7374128300
 1907      H      65.4762575400    29.5569668300   -41.6435760800
 1908      C      63.7327454200    28.1089524900   -38.3953537700
 1909      H      62.4709926700    28.6988488100   -36.9428049000
 1910      H      65.4383819200    27.4452135700   -37.5562276900
 1911      H      62.8874992800    26.4687546200   -39.2063698400
 ----------------------------------------------------------------
 Nuclear Repulsion Energy =           0.00000000 hartrees
 There are     2498 alpha and     2498 beta electrons

 Total QAlloc Memory Limit   2000 MB
 Mega-Array Size       204 MB
 MEM_STATIC part       192 MB
   **** Step 1: MM calculation on the entire system **** 
 OPLSAA force field loaded.
Reading user-defined FF parameters...
 Reading user defined atom types.
 Found 3 user defined AtomTypes
finished.
Determining angles, torsions, etc. from user defined input
Determining VDW/Coulomb pairs... (useList = 0)

 Time req'd to get MM system information: 0.2 s (CPU) 0.4 s (wall)

 ------ MM Energies ------
   Ebond:           551.649465801692
   Eangle:          878.238746508777
   EUreyBrad:         0.000000000000
   Eimptors:          0.000000000000
   Etorsion:        228.547892196157
   Evdw:         988269.129652130418
   Ecoulomb:        184.520129681916
   Etot:         990112.085886318935 Kcal/mol (   1577.844051195713 hartree)
 -------------------------
 Time req'd to calc MM energy: 0.1 s (CPU) 0.1 s (wall)
 OPLSAA force field loaded.
Reading user-defined FF parameters...
 Reading user defined atom types.
 Found 3 user defined AtomTypes
finished.
 Time req'd to get MM system information: 0.0 s (CPU) 0.0 s (wall)
 Time req'd to calc MM gradient: 0.2 s (CPU) 0.2 s (wall)
   **** Step 2: MM calculation on the model system **** 
 Reading user defined atom types.
 Found 3 user defined AtomTypes
 ----------------------------------------------------------------
             Standard Nuclear Orientation (Bohr)
    I     Atom           X                Y                Z
 ----------------------------------------------------------------
    1      Fe     74.5076244500    34.2917132200   -43.5519860100
    2      C      72.6678217400    33.7909949900   -40.6155794700
    3      C      74.5056633600    37.7384551800   -44.1130137700
    4      C      77.4186390000    34.9430716900   -41.7922747100
    5      C      76.2192715400    32.1805557500   -45.6614979800
    6      C      71.7244505000    33.7689948800   -45.3463626000
    7      O      71.7524593400    33.6260495300   -38.6473513400
    8      O      74.6688292400    39.8948477200   -44.6351201300
    9      O      79.0322439600    35.7292044400   -40.5676415100
   10      O      77.5281808700    31.0623106500   -47.1784624900
   11      O      69.9491263000    33.6741784300   -46.7817863100
 ----------------------------------------------------------------
 Nuclear Repulsion Energy =         793.01079433 hartrees
 There are       48 alpha and       48 beta electrons
 OPLSAA force field loaded.
Reading user-defined FF parameters...
 Reading user defined atom types.
 Found 3 user defined AtomTypes
finished.
Determining VDW/Coulomb pairs... (useList = 0)

 No MM bonds in system. Return all possible pairs.
 Time req'd to get MM system information: 0.0 s (CPU) 0.0 s (wall)

 ------ MM Energies ------
   Ebond:             0.000000000000
   Eangle:            0.000000000000
   EUreyBrad:         0.000000000000
   Eimptors:          0.000000000000
   Etorsion:          0.000000000000
   Evdw:         988695.846345427795
   Ecoulomb:         -6.400207669608
   Etot:         988689.446137758205 Kcal/mol (   1575.576930436096 hartree)
 -------------------------
 Eold: 1577.8440512 mm_energy: 1575.5769304 Enew:    2.2671208
 Time req'd to calc MM energy: 0.0 s (CPU) 0.0 s (wall)
 OPLSAA force field loaded.
Reading user-defined FF parameters...
 Reading user defined atom types.
 Found 3 user defined AtomTypes
finished.
Determining VDW/Coulomb pairs... (useList = 0)

 No MM bonds in system. Return all possible pairs.
 Time req'd to get MM system information: 0.0 s (CPU) 0.0 s (wall)
 Number of fixed atoms: 0
 Time req'd to calc MM gradient: 0.0 s (CPU) 0.0 s (wall)
   **** Step 3: QM calculation on the model system **** 
 Requested basis set is def2-mSVP
 There are 80 shells and 174 basis functions

                       Distance Matrix (Bohrs)
             Fe(  1)   C (  2)   C (  3)   C (  4)   C (  5)   C (  6)
   C (  2)  3.501154
   C (  3)  3.492103  5.584993
   C (  4)  3.463359  5.028137  4.656761
   C (  5)  3.440460  6.377116  6.018679  4.903149
   C (  6)  3.352474  4.823976  5.001291  6.814234  4.777642
   O (  7)  5.664758  2.176928  7.373295  6.612918  8.440386  6.700595
   O (  8)  5.709140  7.577451  2.224690  6.337453  7.935214  6.833835
   O (  9)  5.607573  6.653182  6.090705  2.172890  6.815651  8.948879
   O ( 10)  5.718753  8.610473  7.943771  6.639527  2.294536  6.660782
   O ( 11)  5.620753  6.739960  6.663537  9.071876  6.542223  2.284996
             O (  7)   O (  8)   O (  9)   O ( 10)
   O (  8)  9.146388
   O (  9)  7.817035  7.275737
   O ( 10) 10.616571  9.625913  8.230739
   O ( 11)  8.332068  8.098179 11.195613  8.026286

 A cutoff of  1.0D-11 yielded   2482 shell pairs
 There are     12746 function pairs (     14582 Cartesian)
 Smallest overlap matrix eigenvalue = 2.75E-03
 Guess MOs from SCF MO coefficient file
 Reading MOs from coefficient file
 Reading MOs from coefficient file
 A restricted Kohn-Sham SCF calculation will be
 performed using Pulay DIIS extrapolation
 Exchange:  B88      Correlation:  P86
 Using SG-1 standard quadrature grid
 SCF converges when DIIS error is below 1.0E-08
 Using Q-Chem read-in guess as SCF_GUESS READ specified.

 using 2 threads for integral computing
 -------------------------------------------------------
 OpenMP Integral computing Module                
 Release: version 1.0, May 2013, Q-Chem Inc. Pittsburgh 
 -------------------------------------------------------
 ---------------------------------------
  Cycle       Energy         DIIS Error
 ---------------------------------------
    1   -1830.5110448419      1.69E-09
    2   -1830.5110448421      2.12E-08
    3   -1830.5110448419      7.38E-10 Convergence criterion met
 ---------------------------------------
 SCF time:  CPU 3.97 s  wall 2.19 s
 E(QM + QM/MM):    -1830.5110448419 E(MM):    2.2671208 E(Tot): -1828.243924082293 
 SCF   energy in the final basis set = -1828.24392408
 Total energy in the final basis set = -1828.24392408

 --------------------------------------------------------------

                    Orbital Energies (a.u.)
 --------------------------------------------------------------

 Alpha MOs
 -- Occupied --
******** -29.6374 -25.5977 -25.5859 -25.5794 -18.8947 -18.8871 -18.8826
-18.8789 -18.8692 -10.0595 -10.0562 -10.0513 -10.0496 -10.0455  -3.3210
 -2.1577  -2.1347  -2.1199  -1.0747  -1.0648  -1.0469  -1.0277  -1.0148
 -0.5757  -0.5298  -0.5219  -0.5206  -0.5136  -0.4590  -0.4461  -0.4449
 -0.4334  -0.4297  -0.4245  -0.4219  -0.4205  -0.4142  -0.4109  -0.4005
 -0.3989  -0.3886  -0.3856  -0.3750  -0.2805  -0.2704  -0.2374  -0.2184
 -- Virtual --
 -0.1091  -0.0937  -0.0927  -0.0878  -0.0797  -0.0787  -0.0742  -0.0646
 -0.0573  -0.0407  -0.0322   0.0111   0.1875   0.2070   0.2194   0.2254
  0.2937   0.3250   0.3536   0.3941   0.4004   0.4134   0.4262   0.4358
  0.4514   0.4727   0.4820   0.5039   0.5202   0.5449   0.5555   0.5865
  0.5949   0.6049   0.6313   0.6404   0.7388   0.7492   0.7540   0.7748
  0.7852   0.8188   0.8313   0.8446   0.8612   0.9260   0.9404   0.9457
  0.9623   0.9729   0.9879   0.9925   1.0120   1.0171   1.0404   1.0534
  1.2050   1.2147   1.2493   1.3020   1.3939   1.3979   1.4066   1.4135
  1.4150   1.4208   1.4316   1.4357   1.4556   1.4639   1.4674   1.4767
  1.4983   1.5198   1.5355   1.5540   1.5905   1.6188   1.6484   1.6648
  1.6877   1.8156   1.8206   1.8285   1.8304   1.8389   1.8427   1.8468
  1.8519   1.8591   1.8686   1.8765   1.8882   1.9023   1.9071   1.9443
  2.3266   2.3585   2.3964   2.4153   2.4400   2.4496   2.4581   2.4739
  2.4914   2.5397   2.6088   2.6218   2.6283   2.6585   2.6673   2.7922
  2.8060   2.8560   2.8900   2.9663  13.2369  13.2624  13.3070  13.3402
 13.4320  24.9027  24.9288  24.9370  24.9558  25.0135
 --------------------------------------------------------------

          Ground-State Mulliken Net Atomic Charges

     Atom                 Charge (a.u.)
  ----------------------------------------
      1 Fe                   -0.484775
      2 C                     0.230723
      3 C                     0.248922
      4 C                     0.205515
      5 C                     0.216578
      6 C                     0.197862
      7 O                    -0.094572
      8 O                    -0.117941
      9 O                    -0.088457
     10 O                    -0.161157
     11 O                    -0.152698
  ----------------------------------------
  Sum of atomic charges =     0.000000

 -----------------------------------------------------------------
                    Cartesian Multipole Moments
 -----------------------------------------------------------------
    Charge (ESU x 10^10)
                -0.0000
    Dipole Moment (Debye)
         X      -0.0215128885      Y       0.1900714085      Z       0.9256547904
       Tot       0.9452125347
    Quadrupole Moments (Debye-Ang)
        XX     -70.9614     XY       7.4782     YY     -62.9297
        XZ      37.3124     YZ      11.6856     ZZ    -113.5092
    Octopole Moments (Debye-Ang^2)
       XXX   -8294.2835    XXY    -969.8205    XYY   -2479.4157
       YYY   -3648.8767    XXZ    3103.3907    XYZ     462.9275
       YYZ    1733.5794    XZZ   -4500.7227    YZZ   -1930.6314
       ZZZ    6371.7861
    Hexadecapole Moments (Debye-Ang^3)
      XXXX -652274.8976   XXXY -137974.1104   XXYY -120982.7399
      XYYY -143891.4459   YYYY -136617.5093   XXXZ  249790.4890
      XXYZ   47510.1139   XYYZ   68271.0262   YYYZ   89127.3106
      XXZZ -215689.8325   XYZZ  -76199.4347   YYZZ  -70235.0880
      XZZZ  251930.0848   YZZZ  112456.5075   ZZZZ -271730.6984
 -----------------------------------------------------------------
 Calculating MO derivatives via CPSCF
 Full subspace dimension requested for CIS/TDDFT
 MAX_CIS_SUBSPACE fits in available memory
    1     0    36    0.0423538  
    2     0    36    0.0070700  
    3     0    36    0.0010271  
    4     0    36    0.0000742  
    5    33     3    0.0000024  
    6    36     0    0.0000001  Converged
 Time for AOints: 6.4 s (CPU) 3.3 s (wall)
 ------------------------------------------------------------------------------
                     AOints        : Timing summary (seconds)
 ------------------------------------------------------------------------------
     job step          cpu (% of tot)      sys (% of tot)     wall (% of tot)
 ------------------------------------------------------------------------------
  AOints            0.6441E+01 ( 3.6)   0.1300E-04 (12.1)   0.3286E+01 ( 3.7)
 ------------------------------------------------------------------------------
   Grand Totals     0.1773E+03          0.1070E-03          0.8942E+02
 ------------------------------------------------------------------------------
 Polarizability Matrix (a.u.)
            1           2           3
    1 -98.5653247  -1.0554519  -2.4183962
    2  -1.0554519 -85.6803596  -9.1898076
    3  -2.4183962  -9.1898076 -96.9526951
 Derivative of Dipole Moment Matrix (a.u.)
            1           2           3
    1  -1.8605962  -0.0219553  -0.0635197
    2   0.0537470  -1.7499804  -0.0510748
    3   0.0152497  -0.0292006  -1.8576852
    4   0.8117503   0.1938244  -0.7924946
    5   0.0376573   0.4497276  -0.1029512
    6  -0.8601703  -0.3533641   1.9444204
    7   0.3505985   0.0743470  -0.0497672
    8   0.0316633   2.1618929  -0.4092656
    9  -0.0436928  -0.3925936   0.4546592
   10   1.5797753   0.2382260   0.7958721
   11   0.4491116   0.5174312   0.2940009
   12   0.7906454   0.1452684   0.9350509
   13   0.9368414  -0.6467391  -0.6722161
   14  -0.5160614   0.9875181   0.6259410
   15  -0.6589946   0.8034204   1.1780147
   16   1.5807672   0.2452068   0.8238469
   17   0.1184300   0.4734655   0.0675520
   18   0.8714092   0.1556605   1.0045361
   19  -0.4808755  -0.1218473   0.5903015
   20  -0.0343147  -0.1794749   0.0724580
   21   0.7295193   0.2581966  -1.3992265
   22  -0.1520774  -0.1040358   0.0349042
   23  -0.0219401  -1.5936883   0.2809371
   24   0.0201469   0.3362326  -0.2262184
   25  -1.0582349  -0.2186850  -0.6095298
   26  -0.4389072  -0.2434219  -0.2894429
   27  -0.6715973  -0.1563788  -0.5827724
   28  -0.6222279   0.5435948   0.5520562
   29   0.3837784  -0.6398636  -0.4536522
   30   0.5330180  -0.6328893  -0.8071984
   31  -1.0857207  -0.1819366  -0.6094536
   32  -0.0631640  -0.1836061  -0.0345023
   33  -0.7255335  -0.1343521  -0.6435806
 -----------------------------------------
 Net:  -0.00000  -0.00000  -0.00000
 -----------------------------------------

 Calculating analytic Hessian of the SCF energy
