                  Welcome to Q-Chem
     A Quantum Leap Into The Future Of Chemistry


 Q-Chem 5.4 (devel), Q-Chem, Inc., Pleasanton, CA (2021)

 E. Epifanovsky,  A. T. B. Gilbert,  Xintian Feng,  Joonho Lee,  Yuezhi Mao,  
 N. Mardirossian,  P. Pokhilko,  A. White,  M. Wormit,  M. P. Coons,  
 A. L. Dempwolff,  Zhengting Gan,  D. Hait,  P. R. Horn,  L. D. Jacobson,  
 I. Kaliman,  J. Kussmann,  A. W. Lange,  Ka Un Lao,  D. S. Levine,  Jie Liu,  
 S. C. McKenzie,  A. F. Morrison,  K. Nanda,  F. Plasser,  D. R. Rehn,  
 M. L. Vidal,  Zhi-Qiang You,  Ying Zhu,  B. Alam,  B. Albrecht,  
 A. Aldossary,  E. Alguire,  J. H. Andersen,  D. Barton,  K. Begam,  A. Behn,  
 Y. A. Bernard,  E. J. Berquist,  H. Burton,  A. Carreras,  K. Carter-Fenk,  
 R. Chakraborty,  A. D. Chien,  K. D. Closser,  V. Cofer-Shabica,  
 S. Dasgupta,  Jia Deng,  M. de Wergifosse,  M. Diedenhofen,  Hainam Do,  
 S. Ehlert,  Po-Tung Fang,  S. Fatehi,  Qingguo Feng,  T. Friedhoff,  
 J. Gayvert,  Qinghui Ge,  G. Gidofalvi,  M. Goldey,  J. Gomes,  
 C. Gonzalez-Espinoza,  S. Gulania,  A. Gunina,  M. W. D. Hanson-Heine,  
 P. H. P. Harbach,  A. W. Hauser,  M. F. Herbst,  M. Hernandez Vera,  
 M. Hodecker,  Z. C. Holden,  S. Houck,  Xunkun Huang,  Kerwin Hui,  
 B. C. Huynh,  M. Ivanov,  Hyunjun Ji,  Hanjie Jiang,  B. Kaduk,  S. Kaehler,  
 K. Khistyaev,  Jaehoon Kim,  P. Klunzinger,  Z. Koczor-Benda,  
 Joong Hoon Koh,  D. Kosenkov,  L. Koulias,  T. Kowalczyk,  C. M. Krauter,  
 K. Kue,  A. Kunitsa,  T. Kus,  A. Landau,  K. V. Lawler,  D. Lefrancois,  
 S. Lehtola,  Rain Li,  Yi-Pei Li,  Jiashu Liang,  M. Liebenthal,  
 Hung-Hsuan Lin,  You-Sheng Lin,  Fenglai Liu,  Kuan-Yu Liu,  
 M. Loipersberger,  A. Luenser,  A. Manjanath,  P. Manohar,  E. Mansoor,  
 S. F. Manzer,  Shan-Ping Mao,  A. V. Marenich,  T. Markovich,  S. Mason,  
 S. A. Maurer,  P. F. McLaughlin,  M. F. S. J. Menger,  J.-M. Mewes,  
 S. A. Mewes,  P. Morgante,  J. W. Mullinax,  K. J. Oosterbaan,  G. Paran,  
 Alexander C. Paul,  Suranjan K. Paul,  F. Pavosevic,  Zheng Pei,  S. Prager,  
 E. I. Proynov,  E. Ramos,  B. Rana,  A. E. Rask,  A. Rettig,  R. M. Richard,  
 F. Rob,  E. Rossomme,  T. Scheele,  M. Scheurer,  M. Schneider,  
 N. Sergueev,  S. M. Sharada,  W. Skomorowski,  D. W. Small,  C. J. Stein,  
 Yu-Chuan Su,  E. J. Sundstrom,  Zhen Tao,  J. Thirman,  T. Tsuchimochi,  
 N. M. Tubman,  S. P. Veccham,  O. Vydrov,  J. Wenzel,  J. Witte,  A. Yamada,  
 Kun Yao,  S. Yeganeh,  S. R. Yost,  A. Zech,  Igor Ying Zhang,  Xing Zhang,  
 Yu Zhang,  D. Zuev,  A. Aspuru-Guzik,  A. T. Bell,  N. A. Besley,  
 K. B. Bravaya,  B. R. Brooks,  D. Casanova,  Jeng-Da Chai,  S. Coriani,  
 C. J. Cramer,  A. E. DePrince, III,  R. A. DiStasio Jr.,  A. Dreuw,  
 B. D. Dunietz,  T. R. Furlani,  W. A. Goddard III,  S. Grimme,  
 S. Hammes-Schiffer,  T. Head-Gordon,  W. J. Hehre,  Chao-Ping Hsu,  
 T.-C. Jagau,  Yousung Jung,  A. Klamt,  Jing Kong,  D. S. Lambrecht,  
 WanZhen Liang,  N. J. Mayhall,  C. W. McCurdy,  J. B. Neaton,  
 C. Ochsenfeld,  J. A. Parkhill,  R. Peverati,  V. A. Rassolov,  Yihan Shao,  
 L. V. Slipchenko,  T. Stauch,  R. P. Steele,  J. E. Subotnik,  
 A. J. W. Thom,  A. Tkatchenko,  D. G. Truhlar,  T. Van Voorhis,  
 T. A. Wesolowski,  K. B. Whaley,  H. L. Woodcock III,  P. M. Zimmerman,  
 S. Faraji,  P. M. W. Gill,  M. Head-Gordon,  J. M. Herbert,  A. I. Krylov

 Additional authors for Version 5.4.1: 
 S. Kotaru,  Shaozhi Li,  Xiangyuan Li,  F. Matz,  A. Molle,  Haisheng Ren,  
 Yingli Su,  Hung-Yi Tsai,  C. Utku,  Fang Wang

 Contributors to earlier versions of Q-Chem not listed above: 
 R. D. Adamson,  B. Austin,  R. Baer,  J. Baker,  G. J. O. Beran,  
 K. Brandhorst,  S. T. Brown,  E. F. C. Byrd,  A. K. Chakraborty,  
 G. K. L. Chan,  Chun-Min Chang,  Yunqing Chen,  C.-L. Cheng,  
 Siu Hung Chien,  D. M. Chipman,  D. L. Crittenden,  H. Dachsel,  
 R. J. Doerksen,  A. D. Dutoi,  R. G. Edgar,  J. Fosso-Tande,  
 L. Fusti-Molnar,  D. Ghosh,  A. Ghysels,  A. Golubeva-Zadorozhnaya,  
 J. Gonthier,  M. S. Gordon,  S. R. Gwaltney,  G. Hawkins,  J. E. Herr,  
 A. Heyden,  S. Hirata,  E. G. Hohenstein,  G. Kedziora,  F. J. Keil,  
 C. Kelley,  Jihan Kim,  R. A. King,  R. Z. Khaliullin,  P. P. Korambath,  
 W. Kurlancheek,  A. Laurent,  A. M. Lee,  M. S. Lee,  S. V. Levchenko,  
 Ching Yeh Lin,  D. Liotard,  E. Livshits,  R. C. Lochan,  I. Lotan,  
 L. A. Martinez-Martinez,  P. E. Maslen,  N. Nair,  D. P. O'Neill,  
 D. Neuhauser,  E. Neuscamman,  C. M. Oana,  R. Olivares-Amaya,  R. Olson,  
 T. M. Perrine,  B. Peters,  P. A. Pieniazek,  A. Prociuk,  Y. M. Rhee,  
 J. Ritchie,  M. A. Rohrdanz,  E. Rosta,  N. J. Russ,  H. F. Schaefer III,  
 M. W. Schmidt,  N. E. Schultz,  S. Sharma,  N. Shenvi,  C. D. Sherrill,  
 A. C. Simmonett,  A. Sodt,  T. Stein,  D. Stuck,  K. S. Thanthiriwatte,  
 V. Vanovschi,  L. Vogt,  Tao Wang,  A. Warshel,  M. A. Watson,  
 C. F. Williams,  Q. Wu,  X. Xu,  Jun Yang,  W. Zhang,  Yan Zhao

 Please cite Q-Chem as follows:
 Y. Shao et al., Mol. Phys. 113, 184-215 (2015)
 DOI: 10.1080/00268976.2014.952696

 Q-Chem 5.4.1 for Intel X86 EM64T Linux

 Parts of Q-Chem use Armadillo 9.900.5 (Nocturnal Misbehaviour).
 http://arma.sourceforge.net/

 Q-Chem begins on Wed Jun 22 16:41:24 2022  

 Host: p09r14n13.grace.hpc.yale.internal
0

     Scratch files written to /home/tl686/scratch60/qchem_dev/scratch/qchem247367//
 Processing $rem in /home/tl686/qchem_dev/qchem/config/preferences:
 Processing $rem in /home/tl686/.qchemrc:
Applying user defined connections for MM calculations

 Checking the input file for inconsistencies... 	...done.

--------------------------------------------------------------
User input:
--------------------------------------------------------------
$molecule
0   1
 Fe 841.19954053 -63.78822155 50.27696894    -1  0   0   0   0
C 842.56582498 -66.85833118 51.38922753    -2  0   0   0   0 
C 840.52765577 -60.77946216 49.01696962    -2  0   0   0   0
C 837.97378531 -64.07870036 51.46823171    -2  0   0   0   0
C 843.07220047 -62.24460121 52.66500163    -2  0   0   0   0
C 841.51191563 -64.70077302 46.96195394    -2  0   0   0   0
O 843.30959194 -68.78904629 52.11765844    -3  0   0   0   0
O 840.29398403 -58.74285529 48.05576678    -3  0   0   0   0 
O 835.88721192 -63.92664507 52.32419891    -3  0   0   0   0
O 844.25554952 -61.24013508 54.19361117    -3  0   0   0   0 
O 841.51109220 -64.53468241 44.65735968    -3  0   0   0   0
H 817.01829997 -77.89957728 62.23706043      6     13    0    0    0 
C 816.99166443 -77.07246853 64.11825424     1     12    14    15    16
H 815.34638447 -75.92013904 64.37332030     6     13    0    0    0
H 816.85722316 -78.71276619 65.38973067     6     13    0    0    0
C 819.45117792 -75.58458584 64.47205361     2     13    17    18    19
H 820.36119895 -75.10061749 62.69326711     6     16    0    0    0
H 819.29115700 -73.90191446 65.69460528     6     16    0    0    0
C 821.40527952 -77.39386362 65.65844031     2     16    20   21   22
H 820.56762893 -78.42046095 67.28397750     6     19    0    0    0
H 821.85877065 -78.87365135 64.36351024     6     19    0    0    0
C 823.85939698 -76.03826519 66.35033916     2     19   23   24   25
H 824.75670668 -74.92693264 64.96697749     6    22    0    0    0
H 823.57998175 -74.94475514 68.04258605     6    22    0    0    0
C 826.02090312 -77.98396656 66.91829675     2    22   26   27   28
H 825.37900938 -79.35155689 68.22645486     6    25    0    0    0
H 826.16542210 -79.19087778 65.16364102     6    25    0    0    0
C 828.61145718 -76.91529156 67.70511861     2    25   29   30   31
H 829.16128209 -75.47324546 66.35469090     6    28    0    0    0
H 828.50927686 -76.05842956 69.54882882     6    28    0    0    0
C 830.50640142 -79.18494126 67.70856029     2    28   32   33   34
H 829.95925370 -81.05449837 68.15199851     6    31    0    0    0
H 831.02489638 -79.59317921 65.66792964     6    31    0    0    0
C 832.78391855 -78.54952891 69.46736625     2    31   35   36   37
H 833.72460662 -76.78825042 68.87718396     6    34    0    0    0
H 832.32644589 -78.25398879 71.39524625     6    34    0    0    0
C 834.60357881 -80.84343981 69.42797208     2    34   38   39   40
H 833.51591601 -82.39225923 70.11638032     6    37    0    0    0
H 835.16637441 -81.15194000 67.56019464     6    37    0    0    0
C 836.93579590 -80.73200065 71.23095795     2    37   41   42   43
H 838.00576953 -79.05480421 70.84102006     6    40    0    0    0
H 836.10612877 -80.39819199 73.10798711     6    40    0    0    0
C 838.60628813 -83.16024108 71.40804302     2    40   44   45   46
H 837.44599100 -84.66751489 72.19080380     6    43    0    0    0
H 838.98977882 -83.81785040 69.52010327     6    43    0    0    0
C 841.26977407 -82.26293901 72.27871131     1    43   47   48   49
H 841.16341578 -81.64965630 74.26328148     6    46    0    0    0
H 842.11552881 -80.84745554 71.04855909     6    46    0    0    0
H 842.49679695 -83.99705054 72.37800002     6    46    0    0    0
H 848.65373844 -70.15498930 56.76582321     6     51    0    0    0 
C 847.76449614 -70.13453713 58.59012404     1     50    52    53    54
H 849.27484024 -70.30426739 59.92981150     6     51    0    0    0
H 846.60454558 -68.52740571 59.06235950     6     51    0    0    0
C 846.04387369 -72.57647764 58.71209217     2     51    55    56    57
H 844.28046992 -72.34204848 57.82434201     6     54    0    0    0
H 847.26540971 -73.98163632 57.71534655     6     54    0    0    0
C 845.52621383 -73.41822959 61.43141384     2     54    58   59   60
H 844.43067702 -71.91357457 62.33984033     6     57    0    0    0
H 844.40454422 -75.18358244 61.48874487     6     57    0    0    0
C 847.96856569 -73.80975080 63.10334431     2     57   61   62   63
H 849.40151623 -75.03430429 62.10769991     6    60    0    0    0
H 848.96477276 -72.02336667 63.40577599     6    60    0    0    0
C 847.31637866 -75.20612857 65.52866370     2    60   64   65   66
H 845.90466301 -74.12665006 66.66478707     6    63    0    0    0
H 846.40574200 -77.12811910 64.96441273     6    63    0    0    0
C 849.55186018 -75.71360299 67.09030842     2    63   67   68   69
H 848.97995966 -76.78246057 68.74042279     6    66    0    0    0
H 850.73745476 -77.13765923 66.24444612     6    66    0    0    0
C 851.01903469 -73.27102724 67.88031583     2    66   70   71   72
H 851.82969776 -72.43548984 66.18975136     6    69    0    0    0
H 849.49703354 -71.92751267 68.46416017     6    69    0    0    0
C 853.01310463 -73.77541697 69.82680460     2    69   73   74   75
H 853.12924535 -71.83580969 70.70976056     6    72    0    0    0
H 852.30456037 -75.08540607 71.06583651     6    72    0    0    0
C 855.61669452 -74.43591735 68.64744340     2    72   76   77   78
H 855.32493155 -76.00070160 67.24106702     6    75    0    0    0
H 856.45198976 -72.99957868 67.44802707     6    75    0    0    0
C 857.43760935 -75.46095738 70.61563559     2    75   79   80   81
H 857.91667378 -73.99674272 71.96977329     6    78    0    0    0
H 856.64698539 -77.05120671 71.63968191     6    78    0    0    0
C 859.76573915 -76.79115027 69.30568431     2    78   82   83   84
H 859.06867954 -78.17418391 68.12097293     6    81    0    0    0
H 860.72054683 -75.53944091 68.03309054     6    81    0    0    0
C 861.91603170 -77.52317293 71.15012335     1    81   85   86   87
H 862.79953813 -79.22263330 70.47641622     6    84    0    0    0
H 860.99926309 -78.09357863 72.97945068     6    84    0    0    0
H 863.20558093 -75.83877227 71.55716966     6    84    0    0    0
H 831.72287568 -59.66401251 83.23077196     6     89    0    0    0 
C 832.39839091 -61.66488081 83.15015293     1     88    90    91    92
H 830.78714140 -62.69397545 84.03773791     6     89    0    0    0
H 832.73746797 -62.36308572 81.20579942     6     89    0    0    0
C 834.84988751 -61.93741096 84.70916815     2     89    93    94    95
H 836.12598636 -60.30877536 84.14070700     6     92    0    0    0
H 834.51130394 -61.42841743 86.62463759     6     92    0    0    0
C 836.28979912 -64.33115789 84.42027240     2     92    96   97   98
H 835.09190901 -65.81601898 84.94038944     6     95    0    0    0
H 836.71265150 -64.41411260 82.45280262     6     95    0    0    0
C 838.84196000 -64.37842140 85.92663768     2     95   99   100   101
H 839.98964300 -62.95057294 85.00437543     6    98    0    0    0
H 838.55256116 -63.79518888 87.81586767     6    98    0    0    0
C 840.23527651 -66.88095234 85.84445542     2    98   102   103   104
H 838.76752049 -68.26415667 85.98044125     6    101    0    0    0
H 841.11644292 -67.13396437 84.05067252     6    101    0    0    0
C 842.40824625 -67.15351540 87.82400806     2    101   105   106   107
H 843.89397472 -65.70085691 87.42657344     6    104    0    0    0
H 841.53689976 -66.84330349 89.66930102     6    104    0    0    0
C 843.65513786 -69.63723263 87.81643988     2    104   108   109   110
H 842.38914581 -71.17874589 88.32314024     6    107    0    0    0
H 844.59426212 -70.03509334 85.97704138     6    107    0    0    0
C 845.63333313 -69.76810341 89.83608745     2    107   111   112   113
H 846.72847003 -68.13696472 89.76564377     6    110    0    0    0
H 844.75304942 -69.75667903 91.59315488     6    110    0    0    0
C 847.13224821 -72.31978991 89.39433162     2    110   114   115   116
H 845.80046016 -74.03793442 89.41864507     6    113    0    0    0
H 848.07137688 -72.24331130 87.54352913     6    113    0    0    0
C 849.28171929 -72.43458513 91.48065826     2    113   117   118   119
H 850.74354544 -70.96990375 91.19139491     6    116    0    0    0
H 848.30399266 -72.07920754 93.28492195     6    116    0    0    0
C 850.50854352 -75.15492076 91.44396594     2    116   120   121   122
H 851.45032871 -75.33383148 93.33524790     6    119    0    0    0
H 849.13178261 -76.67709537 91.35554997     6    119    0    0    0
C 852.38931766 -75.37297558 89.16344462     1    119   123   124   125
H 853.73296918 -77.00218396 89.14451943     6    122    0    0    0
H 853.47859590 -73.68533956 88.72640909     6    122    0    0    0
H 851.19177737 -75.41229531 87.45050787     6    122    0    0    0
H 830.76588307 -47.75756747 74.67541137     6     127    0    0    0 
C 830.60760578 -48.09027684 72.60146692     1     126    128    129    130
H 832.40016282 -47.92728713 71.77719130     6     127    0    0    0
H 829.52711146 -49.77212562 72.21113485     6     127    0    0    0
C 828.96317696 -46.00278381 71.52654129     2     127    131    132    133
H 826.99262394 -45.66146141 72.08801433     6     130    0    0    0
H 829.73052194 -44.15828486 72.14938837     6     130    0    0    0
C 829.03454890 -45.90385297 68.71491029     2     130    134   135   136
H 828.42524090 -44.06883189 68.13034896     6     133    0    0    0
H 831.03250422 -46.01501752 67.79497741     6     133    0    0    0
C 827.47946932 -47.88238128 67.34324993     2     133   137   138   139
H 828.23446437 -49.60526539 67.94133029     6    136    0    0    0
H 825.53306644 -47.74110009 68.03301913     6    136    0    0    0
C 827.97035639 -47.60697321 64.43331697     2    136   140   141   142
H 827.15153020 -45.78834511 63.83333616     6    139    0    0    0
H 829.96895186 -47.44581882 64.14584603     6    139    0    0    0
C 826.91226525 -49.84386948 62.79289453     2    139   143   144   145
H 827.23866276 -51.85508425 63.57318517     6    142    0    0    0
H 824.82937742 -49.63208596 62.73213271     6    142    0    0    0
C 827.89410416 -49.78888762 60.02643461     2    142   146   147   148
H 826.98486469 -48.16274980 59.05475601     6    145    0    0    0
H 829.94974000 -49.64091607 60.04728490     6    145    0    0    0
C 826.96819118 -51.92377908 58.28176887     2    145   149   150   151
H 827.86486096 -53.61352404 59.05320794     6    148    0    0    0
H 824.92517269 -52.19919868 58.32847760     6    148    0    0    0
C 827.91414836 -51.75751966 55.50947908     2    148   152   153   154
H 827.28321904 -50.03011061 54.63105812     6    151    0    0    0
H 829.94173407 -51.54515564 55.35540039     6    151    0    0    0
C 826.86147878 -53.72421337 53.66072314     2    151   155   156   157
H 827.98084736 -53.80369719 51.92663743     6    154    0    0    0
H 827.01358310 -55.58812173 54.43180409     6    154    0    0    0
C 823.89606780 -53.39424844 53.16812397     2    154   158   159   160
H 822.72741644 -53.05640291 54.90093293     6    157    0    0    0
H 823.75920353 -51.59129164 52.11261642     6    157    0    0    0
C 822.75621273 -55.64908135 51.71426863     1    157   161   162   163
H 820.85661986 -55.02103924 51.32722551     6    160    0    0    0
H 822.94285339 -57.29687857 52.95113485     6    160    0    0    0
H 823.64339816 -56.10589158 49.88296399     6    160    0    0    0
H 840.23383721 -50.08715245 82.23685654     6     165    0    0    0 
C 838.93551238 -48.51530243 81.96796625     1     164    166    167    168
H 837.06729956 -49.28975155 82.21632672     6     165    0    0    0
H 839.43707397 -47.01939185 83.45791358     6     165    0    0    0
C 839.24806736 -47.48940228 79.23910086     2     165    169    170    171
H 841.13260829 -46.83218680 79.10074884     6     168    0    0    0
H 839.08527209 -49.20440514 78.04073237     6     168    0    0    0
C 837.61037477 -45.10679409 78.80847462     2     168    172   173   174
H 835.58138203 -45.42063300 78.91863197     6     171    0    0    0
H 838.18693380 -43.82599746 80.22052719     6     171    0    0    0
C 838.26728214 -43.91213082 76.29508694     2     171   175   176   177
H 840.29051042 -43.58055389 75.91863078     6    174    0    0    0
H 837.50546266 -45.24521151 74.98668084     6    174    0    0    0
C 836.97806626 -41.36340127 75.89316431     2    174   178   179   180
H 835.01324252 -41.33089718 76.57175495     6    177    0    0    0
H 838.27913683 -39.97123914 76.80158873     6    177    0    0    0
C 836.93363798 -40.42440575 73.22380548     2    177   181   182   183
H 838.80967514 -39.93868475 72.57945809     6    180    0    0    0
H 835.97331086 -41.60476372 71.85600373     6    180    0    0    0
C 835.71525943 -37.83117328 73.04372587     2    180   184   185   186
H 833.72602528 -37.69815011 73.64867860     6    183    0    0    0
H 836.69385328 -36.47852359 74.27800425     6    183    0    0    0
C 835.74264707 -36.77377032 70.24029120     2    183   187   188   189
H 837.68899877 -36.81597310 69.69921789     6    186    0    0    0
H 834.67587714 -38.01822233 69.06047265     6    186    0    0    0
C 834.83827942 -34.00964901 69.81504932     2    186   190   191   192
H 832.90870927 -33.71930503 70.57921247     6    189    0    0    0
H 836.06132602 -32.73245324 70.80399929     6    189    0    0    0
C 834.85514774 -33.27669319 67.05134639     2    189   193   194   195
H 836.81530768 -33.36942136 66.27833969     6    192    0    0    0
H 833.60675618 -34.67531229 66.04854992     6    192    0    0    0
C 833.89785523 -30.55300465 67.21414502     2    192   196   197   198
H 831.99905641 -30.65645046 67.90644937     6    195    0    0    0
H 835.03726407 -29.41331884 68.54784913     6    195    0    0    0
C 834.05862773 -29.18402400 64.57092024     1    195   199   200   201
H 833.49440655 -27.14079391 64.62343796     6    198    0    0    0
H 832.80314318 -30.17316700 63.25703635     6    198    0    0    0
H 836.02378063 -29.21981016 63.89933244     6    198    0    0    0
H 850.50742731 -51.52206024 66.90131626     6     203    0    0    0 
C 851.28055060 -49.77838873 67.50280279     1     202    204    205    206
H 853.02613200 -49.48520226 66.51391132     6     203    0    0    0
H 849.83196618 -48.54535796 66.70876802     6     203    0    0    0
C 851.12962049 -49.29270966 70.51889608     2     203    207    208    209
H 850.47388372 -47.27438456 70.89385648     6     206    0    0    0
H 849.61005950 -50.33573568 71.15543967     6     206    0    0    0
C 853.72261981 -49.93772598 71.82904758     2     206    210   211   212
H 853.52822736 -50.51980840 73.84707200     6     209    0    0    0
H 854.48297469 -51.85759451 71.38026663     6     209    0    0    0
C 855.77507240 -48.00442576 71.22627187     2     209   213   214   215
H 855.53519007 -47.44273559 69.27514362     6    212    0    0    0
H 855.54541422 -46.50909713 72.54956931     6    212    0    0    0
C 858.34436747 -49.09494270 71.40776873     2    212   216   217   218
H 858.64834572 -49.82933674 73.28013101     6    215    0    0    0
H 858.49984815 -50.69729611 70.05535551     6    215    0    0    0
C 860.48767436 -47.17856047 70.93284726     2    215   219   220   221
H 860.60602923 -46.60691500 68.99648907     6    218    0    0    0
H 860.17111410 -45.32883566 71.83978315     6    218    0    0    0
C 863.19517239 -47.91439303 71.74248399     2    218   222   223   224
H 862.96420304 -48.83112410 73.62364319     6    221    0    0    0
H 863.88164538 -49.42629189 70.47998528     6    221    0    0    0
C 865.09136945 -45.77121748 71.81212992     2    221   225   226   227
H 865.91443908 -45.20806905 69.92080178     6    224    0    0    0
H 863.95686466 -44.10641933 72.20334505     6    224    0    0    0
C 867.27851722 -46.17109765 73.70456521     2    224   228   229   230
H 866.61317347 -45.84227484 75.55863976     6    227    0    0    0
H 867.95978836 -48.08924330 73.68615354     6    227    0    0    0
C 869.47927406 -44.30399191 73.27230100     2    227   231   232   233
H 870.31837136 -44.90631936 71.40509616     6    230    0    0    0
H 868.83742412 -42.37261775 73.30237656     6    230    0    0    0
C 871.52513258 -44.78827857 75.17293005     2    230   234   235   236
H 870.88348291 -43.82215457 76.93734074     6    233    0    0    0
H 871.29004830 -46.72202095 75.44163673     6    233    0    0    0
C 874.27118830 -43.87110984 74.35325195     1    233   237   238   239
H 875.59125589 -44.49613827 75.76162321     6    236    0    0    0
H 874.47114487 -41.75234868 74.44505013     6    236    0    0    0
H 874.77134010 -44.38018719 72.41027118     6    236    0    0    0
H 851.72385246 -79.11398330 72.10155902     6     241    0    0    0 
C 850.38963265 -79.48545786 73.55211987     1     240    242    243    244
H 850.27340041 -77.83918940 74.83305364     6     241    0    0    0
H 848.60499961 -79.61796260 72.73607544     6     241    0    0    0
C 851.07408743 -82.00943690 74.81270696     2     241    245    246    247
H 852.94610275 -81.68587306 75.69899716     6     244    0    0    0
H 849.79191240 -82.26305951 76.47409178     6     244    0    0    0
C 850.70817508 -84.49134421 73.21569898     2     244    248   249   250
H 850.20403026 -85.99675013 74.54080736     6     247    0    0    0
H 849.08999771 -84.35803173 72.05741633     6     247    0    0    0
C 852.94967460 -85.24575755 71.61717796     2     247   251   252   253
H 852.30310190 -86.63308415 70.19442811     6    250    0    0    0
H 853.54630995 -83.81196853 70.40294678     6    250    0    0    0
C 855.21903064 -86.26372531 72.98282973     2    250   254   255   256
H 856.43966568 -84.70044208 73.42888808     6    253    0    0    0
H 854.74732502 -87.14045071 74.77396540     6    253    0    0    0
C 856.90891521 -88.11747442 71.57113038     2    253   257   258   259
H 858.15860115 -89.16042231 72.82781859     6    256    0    0    0
H 855.83021751 -89.62734631 70.79486487     6    256    0    0    0
C 858.69569956 -86.84693202 69.63943531     2    256   260   261   262
H 857.58324074 -85.83231810 68.28152366     6    259    0    0    0
H 859.85024254 -85.31644190 70.37361353     6    259    0    0    0
C 860.39458358 -88.64604739 68.18831865     2    259   263   264   265
H 861.38826437 -89.81781410 69.52047282     6    262    0    0    0
H 859.21347080 -89.88672464 67.25344236     6    262    0    0    0
C 862.19664699 -87.41400928 66.29804953     2    262   266   267   268
H 861.14228299 -86.82131735 64.74093445     6    265    0    0    0
H 862.89692554 -85.53240771 67.01633523     6    265    0    0    0
C 864.41617840 -89.13441246 65.78177776     2    265   269   270   271
H 865.76470401 -89.47384944 67.32474514     6    268    0    0    0
H 863.63141164 -90.94782636 65.20640682     6    268    0    0    0
C 866.15977122 -87.94938467 63.76858506     2    268   272   273   274
H 865.19411681 -87.60024800 61.82118170     6    271    0    0    0
H 866.98245087 -86.13405316 64.37345795     6    271    0    0    0
C 868.52117503 -89.69581953 63.13782275     1    271   275   276   277
H 869.37978132 -90.22549246 64.93501563     6    274    0    0    0
H 869.91690720 -88.55077973 62.08192116     6    274    0    0    0
H 867.80099214 -91.29624537 61.96071383     6    274    0    0    0
H 849.65458517 -53.53591990 80.04432423     6     279    0    0    0 
C 850.74800353 -55.20970996 80.07711070     1     278    280    281    282
H 852.01347250 -55.17117686 81.59644533     6     279    0    0    0
H 849.64763551 -56.93794697 80.33055078     6     279    0    0    0
C 852.42282912 -55.45995573 77.68556479     2     279    283    284    285
H 851.37875879 -55.58570432 75.93071388     6     282    0    0    0
H 853.34019725 -53.60816744 77.68115334     6     282    0    0    0
C 854.44204916 -57.49651251 77.73182431     2     282    286   287   288
H 855.32879870 -57.79512414 79.56660195     6     285    0    0    0
H 853.36587122 -59.25048435 77.38344908     6     285    0    0    0
C 856.49777050 -57.34085519 75.53763476     2     285   289   290   291
H 855.64675518 -57.65933123 73.66805098     6    288    0    0    0
H 857.30975159 -55.41428759 75.44367859     6    288    0    0    0
C 858.70664401 -59.24325277 75.77561651     2    288   292   293   294
H 859.36374901 -59.19175596 77.84433701     6    291    0    0    0
H 857.67755382 -61.08083692 75.74617390     6    291    0    0    0
C 860.65017404 -58.93796451 73.70157165     2    291   295   296   297
H 859.82898232 -59.43556617 71.88847714     6    294    0    0    0
H 861.11664394 -56.93578931 73.68177522     6    294    0    0    0
C 863.02258508 -60.50560729 73.98101756     2    294   298   299   300
H 864.13031363 -59.74290520 75.54461411     6    297    0    0    0
H 862.64735040 -62.52688842 74.39271046     6    297    0    0    0
C 864.85942706 -60.88285478 71.68155248     2    297   301   302   303
H 863.84450995 -61.77066502 70.08427071     6    300    0    0    0
H 865.59667630 -59.13825916 70.76908722     6    300    0    0    0
C 867.25159687 -62.39365060 72.19236579     2    300   304   305   306
H 868.30524022 -61.54588699 73.69072379     6    303    0    0    0
H 866.90369852 -64.43956515 72.75434043     6    303    0    0    0
C 868.76179997 -62.87247569 69.69815986     2    303   307   308   309
H 867.79723984 -64.46106897 68.71235895     6    306    0    0    0
H 869.24523576 -61.26567385 68.53722383     6    306    0    0    0
C 871.38385089 -63.94599999 70.28381571     2    306   310   311   312
H 872.50707536 -62.67212123 71.44588837     6    309    0    0    0
H 871.11068335 -65.59919196 71.48664049     6    309    0    0    0
C 872.77850462 -64.96716763 67.91586247     1    309   313   314   315
H 873.27742101 -63.59663388 66.59730701     6    312    0    0    0
H 871.84570210 -66.60103144 67.01363919     6    312    0    0    0
H 874.60252821 -65.73852965 68.25903888     6    312    0    0    0
H 836.08056961 -61.72610373 72.40858418     6     317    0    0    0 
C 837.43531928 -62.05188080 70.88719469     1     316    318    319    320
H 838.09512276 -60.11356632 70.42705838     6     317    0    0    0
H 838.97480104 -63.35102872 71.62964414     6     317    0    0    0
C 836.28181636 -63.36303686 68.51576035     2     317    321    322    323
H 837.75123113 -64.21248440 67.39818406     6     320    0    0    0
H 835.33060022 -65.06404437 69.10454808     6     320    0    0    0
C 834.43132746 -61.60334706 67.19277009     2     320    324   325   326
H 833.09996423 -60.97801337 68.66933354     6     323    0    0    0
H 835.55968815 -60.04613050 66.62321058     6     323    0    0    0
C 833.26241829 -63.06094842 64.92550448     2     323   327   328   329
H 834.70411881 -63.82590607 63.80878011     6    326    0    0    0
H 832.02432932 -64.58631803 65.71558942     6    326    0    0    0
C 831.56227262 -61.24906103 63.37923170     2    326   330   331   332
H 830.23842403 -60.59464745 64.77004653     6    329    0    0    0
H 832.68308768 -59.57288238 62.74760940     6    329    0    0    0
C 830.20957538 -62.35203876 61.06708791     2    329   333   334   335
H 828.60468568 -63.37712728 61.75441849     6    332    0    0    0
H 829.23632103 -60.74081219 60.16852688     6    332    0    0    0
C 831.89952532 -63.77705254 59.20457763     2    332   336   337   338
H 833.50152186 -62.64870095 58.72457626     6    335    0    0    0
H 832.78787593 -65.33769663 60.23610154     6    335    0    0    0
C 830.45318511 -64.73709125 56.84722675     2    335   339   340   341
H 831.36372257 -66.36966272 55.91217051     6    338    0    0    0
H 828.39414283 -65.34645987 57.07334303     6    338    0    0    0
C 830.02826219 -62.58705511 54.88231615     2    338   342   343   344
H 829.04580470 -61.08779228 55.84000666     6    341    0    0    0
H 831.71836264 -61.65228881 54.39651831     6    341    0    0    0
C 828.65096986 -63.42352884 52.45037710     2    341   345   346   347
H 829.06461024 -61.88508641 51.23893966     6    344    0    0    0
H 829.68981665 -65.10490051 51.85235200     6    344    0    0    0
C 825.88305189 -63.79190304 52.67121858     2    344   348   349   350
H 825.38914657 -64.97106230 54.19707035     6    347    0    0    0
H 825.31829824 -61.91673100 53.38762975     6    347    0    0    0
C 824.35237133 -64.41749686 50.15257356     1    347   351   352   353
H 822.32450588 -63.84201412 50.24821092     6    350    0    0    0
H 824.45007497 -66.38619511 49.43363396     6    350    0    0    0
H 825.06613572 -63.45528714 48.49238312     6    350    0    0    0
H 849.14715358 -72.96739376 76.62917106     6     355    0    0    0 
C 847.87131432 -71.45275637 76.33692821     1     354    356    357    358
H 846.26876192 -71.96590499 75.14320401     6     355    0    0    0
H 846.96268851 -70.92828002 78.14691235     6     355    0    0    0
C 849.22362288 -69.00243960 75.61839385     2     355    359    360    361
H 850.09434153 -68.07685342 77.28605455     6     358    0    0    0
H 850.68920701 -69.43092954 74.12839753     6     358    0    0    0
C 847.20866982 -67.33580916 74.21456215     2     358    362   363   364
H 848.10365707 -66.06191915 72.71091657     6     361    0    0    0
H 845.93227544 -68.57469032 73.20328707     6     361    0    0    0
C 845.61454158 -65.85918298 76.21890125     2     361   365   366   367
H 844.48684162 -67.12522714 77.26403858     6    364    0    0    0
H 846.72458587 -64.91928574 77.73428413     6    364    0    0    0
C 844.22357031 -63.87512875 74.48111344     2    364   368   369   370
H 845.46996294 -63.00139675 73.13264360     6    367    0    0    0
H 842.71491604 -64.72702305 73.28728654     6    367    0    0    0
C 842.91435529 -61.73137949 75.96340391     2    367   371   372   373
H 840.87118887 -62.31786082 76.39015143     6    370    0    0    0
H 843.78907574 -61.37681920 77.92156637     6    370    0    0    0
C 843.18526836 -59.29723180 74.47873681     2    370   374   375   376
H 845.10967374 -58.89571343 74.10023465     6    373    0    0    0
H 842.39925316 -59.51968943 72.57458372     6    373    0    0    0
C 841.84419870 -57.03853077 75.60485139     2    373   377   378   379
H 842.41451293 -56.74247465 77.52730447     6    376    0    0    0
H 842.69854542 -55.46402033 74.58959234     6    376    0    0    0
C 838.98489540 -56.73984603 75.24500232     2    376   380   381   382
H 838.42290953 -56.70787603 73.26361769     6    379    0    0    0
H 838.24185032 -58.45710774 76.04890913     6    379    0    0    0
C 837.83480388 -54.48623595 76.65387352     2    379   383   384   385
H 838.67063259 -54.53420167 78.48989706     6    382    0    0    0
H 838.44047320 -52.68012179 75.65123269     6    382    0    0    0
C 834.94090974 -54.50902664 76.68718786     2    382   386   387   388
H 834.18093094 -52.60237271 77.05721620     6    385    0    0    0
H 834.48229034 -54.84245552 74.77249187     6    385    0    0    0
C 833.87573405 -56.42612179 78.49334926     1    385   389   390   391
H 834.17933696 -55.96278545 80.41139818     6    388    0    0    0
H 834.58532168 -58.25227655 78.18391019     6    388    0    0    0
H 831.91790208 -56.37323927 78.08887352     6    388    0    0    0
H 826.81515735 -76.60744054 30.51069710     6     393    0    0    0 
C 827.85512431 -77.30279889 32.16410616     1     392    394    395    396
H 826.71544344 -76.94422343 33.91733820     6     393    0    0    0
H 827.91555505 -79.30468725 32.01756913     6     393    0    0    0
C 830.42605999 -76.42895321 32.45488524     2     393    397    398    399
H 831.39732899 -76.36496643 30.68410378     6     396    0    0    0
H 830.34056233 -74.47564943 33.01801150     6     396    0    0    0
C 832.00614307 -77.94085130 34.43072556     2     396    400   401   402
H 830.93464303 -77.99171297 36.23021240     6     399    0    0    0
H 832.37175456 -79.81172159 33.44255178     6     399    0    0    0
C 834.46669168 -76.58279185 34.92692671     2     399   403   404   405
H 835.14044083 -75.97913352 33.09641265     6    402    0    0    0
H 834.21275923 -74.78687248 35.86470622     6    402    0    0    0
C 836.34661022 -78.30018240 36.25182091     2    402   406   407   408
H 835.53500366 -79.41568461 37.83666156     6    405    0    0    0
H 836.82184276 -79.59207710 35.00746101     6    405    0    0    0
C 838.93335161 -77.07776500 36.97422682     2    405   409   410   411
H 839.56782481 -76.04081636 35.32981358     6    408    0    0    0
H 838.70135650 -75.60261793 38.36770616     6    408    0    0    0
C 840.91535451 -79.07681971 37.61285608     2    408   412   413   414
H 840.19839921 -80.58548940 38.85961890     6    411    0    0    0
H 841.52059292 -79.96913975 35.86569173     6    411    0    0    0
C 843.43805722 -78.13771750 38.84727116     2    411   415   416   417
H 843.88463815 -76.35152056 38.00829438     6    414    0    0    0
H 842.96550077 -77.61412300 40.76374038     6    414    0    0    0
C 845.83073285 -79.76418449 38.60979206     2    414   418   419   420
H 845.53316951 -81.55535959 39.57897373     6    417    0    0    0
H 846.41626857 -79.94296751 36.66050379     6    417    0    0    0
C 848.28222205 -78.88756224 40.01064493     2    417   421   422   423
H 847.87921599 -78.44440086 41.98580751     6    420    0    0    0
H 849.58589638 -80.59405541 39.70428496     6    420    0    0    0
C 849.72405412 -76.56278206 38.83058478     2    420   424   425   426
H 851.54084352 -77.28503337 37.83011502     6    423    0    0    0
H 848.48182952 -75.51804823 37.61862979     6    423    0    0    0
C 850.48558436 -74.46416590 40.74336050     1    423   427   428   429
H 851.39419778 -72.80057120 40.13217768     6    426    0    0    0
H 851.70221770 -75.35625724 42.22058242     6    426    0    0    0
H 848.78352036 -73.66731903 41.83794122     6    426    0    0    0
H 839.08145532 -89.26425392 58.49069844     6     431    0    0    0 
C 839.62489120 -87.64522424 57.22681560     1     430    432    433    434
H 840.00907547 -85.96098985 58.42304338     6     431    0    0    0
H 841.50923073 -88.14142145 56.18688067     6     431    0    0    0
C 837.54195202 -87.14063673 55.47815098     2     431    435    436    437
H 835.98984965 -88.49756156 55.90163763     6     434    0    0    0
H 836.91511371 -85.07263036 55.74893662     6     434    0    0    0
C 838.29225264 -87.72788010 52.60429678     2     434    438   439   440
H 839.92005754 -86.50501853 52.27397206     6     437    0    0    0
H 839.17087488 -89.74893188 52.41087841     6     437    0    0    0
C 836.05760518 -87.45345544 50.59282606     2     437   441   442   443
H 836.42499775 -88.74943986 49.11189688     6    440    0    0    0
H 834.13427574 -87.81782629 51.34864410     6    440    0    0    0
C 835.81368287 -84.95766595 49.29800814     2    440   444   445   446
H 835.34514627 -83.49334236 50.76323888     6    443    0    0    0
H 837.66529867 -84.33415674 48.39842138     6    443    0    0    0
C 833.60549655 -84.91841437 47.38095118     2    443   447   448   449
H 832.16551951 -86.22498952 47.67617383     6    446    0    0    0
H 832.92854938 -82.83439898 47.44914645     6    446    0    0    0
C 834.35672887 -85.49474087 44.66484188     2    446   450   451   452
H 835.11891624 -83.65449001 44.05572542     6    449    0    0    0
H 835.74340699 -87.08999723 44.63804337     6    449    0    0    0
C 832.03113258 -86.26886667 42.84827598     2    449   453   454   455
H 832.49151366 -87.33992423 41.08237481     6    452    0    0    0
H 830.58418634 -87.62702307 43.72766378     6    452    0    0    0
C 830.71872920 -83.84858052 41.93338443     2    452   456   457   458
H 829.70613612 -83.15011169 43.61530393     6    455    0    0    0
H 832.16501481 -82.46157964 41.41616946     6    455    0    0    0
C 828.70226743 -84.43472946 39.84510650     2    455   459   460   461
H 829.51499026 -84.81319179 38.05269986     6    458    0    0    0
H 827.52929729 -85.91969377 40.49001346     6    458    0    0    0
C 826.62931282 -82.30790329 39.55480890     2    458   462   463   464
H 825.59768248 -81.86241658 41.26472338     6    461    0    0    0
H 827.46367595 -80.44138854 39.04428759     6    461    0    0    0
C 824.66673792 -83.18657795 37.45553683     1    461   465   466   467
H 825.84195279 -83.16309385 35.78615065     6    464    0    0    0
H 823.06410110 -81.80300051 37.36872750     6    464    0    0    0
H 823.82791762 -85.08020714 37.81665604     6    464    0    0    0
H 837.35667822 -54.40306569 87.85502878     6     469    0    0    0 
C 838.32284726 -53.66937542 86.20584921     1     468    470    471    472
H 837.70094823 -54.77594832 84.60168597     6     469    0    0    0
H 837.79179736 -51.75152242 86.15019467     6     469    0    0    0
C 841.17631822 -54.03512126 86.57352657     2     469    473    474    475
H 842.17973971 -52.79385071 85.31080744     6     472    0    0    0
H 841.58266297 -53.43629592 88.53580635     6     472    0    0    0
C 842.06076132 -56.59343220 86.01213314     2     472    476   477   478
H 843.42825890 -56.92707062 87.44042194     6     475    0    0    0
H 840.46377432 -57.89411710 85.91488622     6     475    0    0    0
C 843.67415967 -56.77695823 83.63068895     2     475   479   480   481
H 842.52574639 -55.85806889 82.29951878     6    478    0    0    0
H 845.36348308 -55.66133854 83.84878076     6    478    0    0    0
C 844.54325578 -59.44226731 82.75635345     2    478   482   483   484
H 842.97334621 -60.55696081 82.23413536     6    481    0    0    0
H 845.92573336 -59.14897574 81.34117025     6    481    0    0    0
C 846.36869772 -60.70743912 84.55016776     2    481   485   486   487
H 847.89327035 -59.52494940 85.29498641     6    484    0    0    0
H 845.25664033 -61.25940573 86.11159074     6    484    0    0    0
C 847.35215935 -63.22152853 83.32652253     2    484   488   489   490
H 845.72549011 -64.54650054 83.05293493     6    487    0    0    0
H 848.02899144 -62.90086185 81.47305158     6    487    0    0    0
C 849.39840859 -64.41147599 84.89695821     2    487   491   492   493
H 851.08307852 -63.30322590 84.97295761     6    490    0    0    0
H 848.40821273 -64.58592018 86.76181373     6    490    0    0    0
C 849.77121744 -67.02301156 83.71134023     2    490   494   495   496
H 847.94314253 -67.93793716 83.39796534     6    493    0    0    0
H 850.59938505 -66.56847012 81.79895205     6    493    0    0    0
C 851.40719024 -68.71086656 85.30585265     2    493   497   498   499
H 851.10000757 -68.95657027 87.28504168     6    496    0    0    0
H 850.90404313 -70.60512691 84.69016529     6    496    0    0    0
C 854.27027036 -68.56337271 84.80931631     2    496   500   501   502
H 854.49690734 -68.42313998 82.74213324     6    499    0    0    0
H 855.10500109 -66.85138688 85.40742312     6    499    0    0    0
C 855.94512988 -70.72388223 85.58779617     1    499   503   504   505
H 857.84931176 -70.06878226 84.97399342     6    502    0    0    0
H 855.29299222 -72.56628041 84.87097835     6    502    0    0    0
H 855.90385268 -70.63422795 87.52550078     6    502    0    0    0
H 865.47184900 -91.27669617 56.96053918     6     507    0    0    0 
C 863.58699172 -91.90009587 56.82456052     1     506    508    509    510
H 863.42816558 -93.83368700 55.90851413     6     507    0    0    0
H 863.00487422 -92.02216754 58.78372196     6     507    0    0    0
C 861.75827622 -89.94778232 55.41691949     2     507    511    512    513
H 861.67664658 -88.20242805 56.46775057     6     510    0    0    0
H 862.78640561 -89.21519622 53.68783434     6     510    0    0    0
C 859.10592009 -90.88973212 54.96506577     2     510    514   515   516
H 859.32407730 -92.70432462 53.96049580     6     513    0    0    0
H 858.26763933 -91.47572720 56.76824057     6     513    0    0    0
C 857.34519589 -88.95531986 53.48855868     2     513   517   518   519
H 857.02119459 -87.49001660 54.88591424     6    516    0    0    0
H 858.43675539 -87.91430520 52.13947753     6    516    0    0    0
C 855.02559231 -90.13187626 52.06741538     2    516   520   521   522
H 855.44013980 -90.69573076 50.18129334     6    519    0    0    0
H 854.25815699 -91.62850173 53.23081075     6    519    0    0    0
C 852.85878476 -88.13617142 51.89358755     2    519   523   524   525
H 852.33634901 -87.64347334 53.81799401     6    522    0    0    0
H 853.70998110 -86.40062954 51.23591726     6    522    0    0    0
C 850.55009008 -88.94511898 50.28221652     2    522   526   527   528
H 851.27363820 -89.49330200 48.50602975     6    525    0    0    0
H 849.65469546 -90.56363456 51.26613719     6    525    0    0    0
C 848.73181517 -86.76541625 50.19601659     2    525   529   530   531
H 847.32341620 -86.86914770 51.80676918     6    528    0    0    0
H 849.59425234 -84.92349986 50.41673571     6    528    0    0    0
C 847.50796993 -86.96678167 47.61192326     2    528   532   533   534
H 848.97467122 -86.99257262 46.01856822     6    531    0    0    0
H 846.48601275 -88.69711263 47.32999046     6    531    0    0    0
C 845.80602668 -84.62488624 47.08729190     2    531   535   536   537
H 844.41461018 -84.67397940 48.55653135     6    534    0    0    0
H 846.78011666 -82.78230400 47.43693809     6    534    0    0    0
C 844.42741334 -84.78623551 44.49243658     2    534   538   539   540
H 845.78837067 -84.36707380 43.00580005     6    537    0    0    0
H 843.85791799 -86.77269963 44.20917095     6    537    0    0    0
C 841.96310853 -83.36261357 44.26785953     1    537   541   542   543
H 841.33413177 -84.04587921 42.53967907     6    540    0    0    0
H 842.11216693 -81.27138158 44.22900302     6    540    0    0    0
H 840.55454050 -83.72141300 45.79255612     6    540    0    0    0
H 832.47733806 -71.27615696 47.03595498     6     545    0    0    0 
C 832.10070731 -69.43903107 46.41394686     1     544    546    547    548
H 831.48386544 -69.49151864 44.48220035     6     545    0    0    0
H 830.64100785 -68.52244725 47.57787029     6     545    0    0    0
C 834.34409860 -67.94790722 46.66450139     2     545    549    550    551
H 834.97717283 -67.86079604 48.72936999     6     548    0    0    0
H 835.62455066 -69.08897039 45.69837080     6     548    0    0    0
C 834.26193815 -65.37727889 45.46007669     2     548    552   553   554
H 836.12004299 -64.63651391 45.15338647     6     551    0    0    0
H 833.58234089 -65.47066827 43.44299660     6     551    0    0    0
C 832.36338677 -63.44779405 46.46440235     2     551   555   556   557
H 830.51929853 -64.38631089 46.30676673     6    554    0    0    0
H 832.62835128 -62.97188188 48.55949547     6    554    0    0    0
C 832.17145923 -60.81886509 44.95128062     2    554   558   559   560
H 833.93302878 -59.57997904 44.76270333     6    557    0    0    0
H 831.74181149 -61.24228733 42.98674414     6    557    0    0    0
C 830.04060715 -59.35507182 45.90650026     2    557   561   562   563
H 828.38109857 -60.53996896 45.57369773     6    560    0    0    0
H 830.16971285 -58.97459273 47.88186453     6    560    0    0    0
C 829.61350675 -56.73787591 44.71780116     2    560   564   565   566
H 831.28962490 -55.44415383 44.99499158     6    563    0    0    0
H 829.65914673 -56.67808697 42.77190793     6    563    0    0    0
C 827.22039330 -55.41780029 45.69641164     2    563   567   568   569
H 825.78656181 -56.95744630 45.72090074     6    566    0    0    0
H 827.44061025 -54.61245493 47.52083114     6    566    0    0    0
C 825.98939143 -53.12796879 44.39589906     2    566   570   571   572
H 825.27024931 -53.50446006 42.45774556     6    569    0    0    0
H 824.61092838 -52.52865790 45.70463044     6    569    0    0    0
C 827.60222571 -50.81307666 44.29223279     2    569   573   574   575
H 828.19120117 -50.31442945 46.18932589     6    572    0    0    0
H 829.29177369 -51.44950311 43.40037848     6    572    0    0    0
C 826.41494628 -48.46018370 43.02549085     2    572   576   577   578
H 824.60678709 -48.15522790 44.12404423     6    575    0    0    0
H 827.67965977 -46.88308289 43.22698911     6    575    0    0    0
C 825.53299141 -48.86406207 40.30967265     1    575   579   580   581
H 823.97191230 -50.19241279 40.32798151     6    578    0    0    0
H 827.05578515 -49.73359486 39.26131180     6    578    0    0    0
H 825.04913520 -47.32222842 39.22934387     6    578    0    0    0
H 846.89603236 -50.86777011 77.26695551     6     583    0    0    0 
C 846.27514064 -49.15567383 76.17982626     1     582    584    585    586
H 845.27374963 -47.97606175 77.51614352     6     583    0    0    0
H 847.95197219 -48.07460804 75.63895135     6     583    0    0    0
C 844.58453524 -49.44884481 73.67298769     2     583    587    588    589
H 845.66578336 -50.62523219 72.29456670     6     586    0    0    0
H 842.95971529 -50.57171126 74.05254133     6     586    0    0    0
C 844.08378081 -47.00895536 72.35142955     2     586    590   591   592
H 843.59573572 -45.50509853 73.70819431     6     589    0    0    0
H 845.68288720 -46.19596446 71.45427902     6     589    0    0    0
C 842.04342795 -47.26034015 70.26988116     2     589   593   594   595
H 842.88803719 -48.55212132 68.91668892     6    592    0    0    0
H 840.45589501 -48.28351772 71.14784486     6    592    0    0    0
C 841.22916947 -44.79994291 68.97334023     2    592   596   597   598
H 840.74931766 -43.39403142 70.32760333     6    595    0    0    0
H 842.73529722 -43.99890916 67.94146545     6    595    0    0    0
C 838.97859327 -45.14967238 67.19460706     2    595   599   600   601
H 839.56092670 -46.59832764 65.72677918     6    598    0    0    0
H 837.50647066 -45.80330403 68.19675579     6    598    0    0    0
C 838.16845864 -42.81738610 65.79419073     2    598   602   603   604
H 838.49299453 -41.19305597 66.98000438     6    601    0    0    0
H 839.51915011 -42.36607033 64.21556273     6    601    0    0    0
C 835.47068386 -42.80821790 64.92198743     2    601   605   606   607
H 835.16052844 -44.40263543 63.72371422     6    604    0    0    0
H 834.03974245 -42.79539887 66.34938510     6    604    0    0    0
C 834.96474005 -40.56603623 63.09127932     2    604   608   609   610
H 835.64519316 -38.72716679 63.77858976     6    607    0    0    0
H 836.26538076 -40.87462029 61.53960220     6    607    0    0    0
C 832.29674119 -40.38219368 61.76810905     2    607   611   612   613
H 831.46875748 -42.11905877 61.05629099     6    610    0    0    0
H 830.88787702 -39.81353399 63.29265721     6    610    0    0    0
C 832.24018387 -38.55552898 59.59266286     2    610   614   615   616
H 832.89425171 -36.59752673 60.12595025     6    613    0    0    0
H 833.63969133 -39.24809014 58.23528706     6    613    0    0    0
C 829.79290997 -38.69119531 58.23761262     1    613   617   618   619
H 829.94245572 -38.19052939 56.25217975     6    616    0    0    0
H 828.48405382 -37.43318546 59.04965287     6    616    0    0    0
H 828.83661171 -40.58403909 58.21421418     6    616    0    0    0
H 852.91039542 -61.40544969 46.56472558     6     621    0    0    0 
C 854.58601017 -62.71562127 46.27673535     1     620    622    623    624
H 854.88018169 -63.72519756 48.12869263     6     621    0    0    0
H 853.77921759 -63.86895444 44.84154648     6     621    0    0    0
C 856.70666566 -61.03841454 45.10494385     2     621    625    626    627
H 857.99643946 -62.18979729 43.88646804     6     624    0    0    0
H 855.99106915 -59.66023293 43.84532267     6     624    0    0    0
C 858.12527790 -59.62043603 47.19041467     2     624    628   629   630
H 856.80725911 -58.52306514 48.35328244     6     627    0    0    0
H 859.03555880 -60.90392655 48.44426152     6     627    0    0    0
C 860.21614750 -57.95237045 46.11263995     2     627   631   632   633
H 861.52240771 -59.10379069 45.14908293     6    630    0    0    0
H 859.59219450 -56.87486271 44.51991076     6    630    0    0    0
C 861.36564522 -56.29903980 48.12100998     2    630   634   635   636
H 859.77660604 -55.28340813 48.93617371     6    633    0    0    0
H 862.38904529 -57.48659564 49.45977297     6    633    0    0    0
C 863.35793151 -54.45772231 46.90827923     2    633   637   638   639
H 864.36590460 -55.33536334 45.38156159     6    636    0    0    0
H 862.15208439 -53.02150346 46.10943479     6    636    0    0    0
C 865.10579082 -53.11197095 48.69426897     2    636   640   641   642
H 863.95733898 -51.57595439 49.45039918     6    639    0    0    0
H 865.70903119 -54.31121164 50.36459356     6    639    0    0    0
C 867.38724691 -51.86513413 47.62946112     2    639   643   644   645
H 868.91807460 -53.22189333 47.48740064     6    642    0    0    0
H 867.09470753 -51.02294829 45.72486905     6    642    0    0    0
C 868.12822358 -49.65754947 49.39602608     2    642   646   647   648
H 867.26587376 -47.99981989 48.69306926     6    645    0    0    0
H 867.06856460 -49.81342506 51.16354922     6    645    0    0    0
C 871.01261972 -49.35407361 49.74738590     2    645   649   650   651
H 871.81212378 -50.15201399 51.46080858     6    648    0    0    0
H 872.20289829 -50.06924217 48.11259618     6    648    0    0    0
C 871.57830018 -46.47518524 49.62939022     2    648   652   653   654
H 871.21321849 -45.57549674 47.78440672     6    651    0    0    0
H 870.13443001 -45.89519806 51.03150526     6    651    0    0    0
C 874.26006839 -45.68810804 50.63958090     1    651   655   656   657
H 875.12787069 -46.97132740 52.12990720     6    654    0    0    0
H 874.45487746 -43.80817423 51.48010863     6    654    0    0    0
H 875.58900869 -45.75516622 49.06429313     6    654    0    0    0
H 846.83906060 -52.07916878 64.03574669     6     659    0    0    0 
C 846.45234162 -50.68342339 62.28427203     1     658    660    661    662
H 848.42281803 -50.18275552 62.01696296     6     659    0    0    0
H 845.61841876 -51.94532622 60.87605281     6     659    0    0    0
C 844.77025562 -48.50520329 63.28530570     2     659    663    664    665
H 843.32733464 -49.44496694 64.51649549     6     662    0    0    0
H 845.92562589 -47.38133691 64.42381073     6     662    0    0    0
C 843.17461227 -47.20656111 61.17534471     2     662    666   667   668
H 842.74110909 -45.33152647 61.62485618     6     665    0    0    0
H 844.57261672 -46.68733557 59.66680269     6     665    0    0    0
C 840.87134593 -48.80147650 60.26459590     2     665   669   670   671
H 841.55662381 -50.43707627 59.24392014     6    668    0    0    0
H 839.67650356 -49.49218244 61.86189754     6    668    0    0    0
C 839.25113074 -47.24383346 58.48515289     2    668   672   673   674
H 839.05800277 -45.43901749 59.26345198     6    671    0    0    0
H 840.11388643 -47.02870287 56.48192573     6    671    0    0    0
C 836.58455136 -48.54725952 58.07031345     2    671   675   676   677
H 836.52088812 -50.26334755 56.82303071     6    674    0    0    0
H 835.92616570 -49.25287179 59.75511760     6    674    0    0    0
C 834.66976423 -46.89109294 56.79201833     2    674   678   679   680
H 832.76448356 -47.60789083 57.05725486     6    677    0    0    0
H 834.67884965 -45.10034056 57.84519206     6    677    0    0    0
C 835.01936089 -46.71924995 53.88043303     2    677   681   682   683
H 836.94737439 -46.12451662 53.41107958     6    680    0    0    0
H 834.55144665 -48.56455267 53.08291038     6    680    0    0    0
C 833.16513725 -44.88734946 52.78421915     2    680   684   685   686
H 833.11450415 -43.16557291 53.85214857     6    683    0    0    0
H 833.75335030 -44.68894088 50.82600470     6    683    0    0    0
C 830.46202808 -45.88547400 52.63839641     2    683   687   688   689
H 830.55852423 -47.77098127 51.75598833     6    686    0    0    0
H 829.84558141 -46.22447355 54.57386395     6    686    0    0    0
C 828.66435888 -44.21943271 51.12877816     2    686   690   691   692
H 828.78350540 -42.40136792 52.08607847     6    689    0    0    0
H 829.12447527 -44.20329893 49.18392991     6    689    0    0    0
C 825.85068882 -44.65242025 51.49217018     1    689   693   694   695
H 825.38074140 -44.80268836 53.49503795     6    692    0    0    0
H 825.36384968 -46.53742304 50.76749179     6    692    0    0    0
H 824.77937887 -43.30515238 50.61195981     6    692    0    0    0
H 834.50905348 -63.21769745 33.22837043     6     697    0    0    0 
C 833.71267375 -64.92260999 32.59550543     1     696    698    699    700
H 832.92558844 -64.70156721 30.80046627     6     697    0    0    0
H 835.29169334 -66.28415059 32.27663537     6     697    0    0    0
C 832.18545790 -66.25828739 34.80657673     2     697    701    702    703
H 833.55450755 -67.15112288 35.96262494     6     700    0    0    0
H 831.08593851 -64.82737614 35.78607645     6     700    0    0    0
C 830.49383315 -68.54297111 33.79655049     2     700    704   705   706
H 829.35502688 -68.01480187 32.05993650     6     703    0    0    0
H 831.90026972 -69.95614688 33.21150236     6     703    0    0    0
C 828.63578849 -69.42405383 35.81995557     2     703   707   708   709
H 829.44480354 -71.09956426 36.79325096     6    706    0    0    0
H 828.11838128 -68.08320401 37.30224078     6    706    0    0    0
C 826.28630867 -70.65192981 34.77179010     2    706   710   711   712
H 825.67670786 -69.44073397 33.17502840     6    709    0    0    0
H 826.78966674 -72.50475837 34.10834075     6    709    0    0    0
C 824.14499608 -70.75829124 36.72208310     2    709   713   714   715
H 824.60555270 -71.27139751 38.53260897     6    712    0    0    0
H 823.14654006 -68.99668616 36.89254684     6    712    0    0    0
C 822.05412833 -72.54713581 35.74695332     2    712   716   717   718
H 820.99113961 -71.94361119 34.05421949     6    715    0    0    0
H 822.94195343 -74.17767345 35.14260594     6    715    0    0    0
C 820.17773924 -73.23271159 37.85832112     2    715   719   720   721
H 821.29822942 -73.99430051 39.45697909     6    718    0    0    0
H 819.12305166 -71.54465640 38.48301109     6    718    0    0    0
C 818.41512355 -75.52484242 36.69315331     2    718   722   723   724
H 817.67205232 -75.04294140 34.81536144     6    721    0    0    0
H 819.61791104 -77.12020305 36.35151947     6    721    0    0    0
C 816.18414511 -75.73541325 38.30845566     2    721   725   726   727
H 816.62905534 -75.67976927 40.25249478     6    724    0    0    0
H 815.29595190 -73.88358491 37.94920512     6    724    0    0    0
C 814.33801719 -77.76022463 37.69949105     2    724   728   729   730
H 813.98957732 -77.73851607 35.73988125     6    727    0    0    0
H 815.13897533 -79.61257468 38.15684598     6    727    0    0    0
C 811.83353269 -77.46013865 39.26263206     1    727   731   732   733
H 810.44043611 -78.95282858 38.84069708     6    730    0    0    0
H 810.94807910 -75.70277472 38.83655104     6    730    0    0    0
H 812.37075533 -77.59433075 41.19576478     6    730    0    0    0
H 821.65911919 -67.68142012 69.06666201     6     735    0    0    0 
C 822.78538256 -66.22839216 68.02857551     1     734    736    737    738
H 821.98134402 -65.73984125 66.22759584     6     735    0    0    0
H 822.60282243 -64.64944752 69.23505506     6     735    0    0    0
C 825.71869805 -66.82540158 67.96666288     2     735    739    740    741
H 825.85846589 -68.13090408 66.51315667     6     738    0    0    0
H 826.59851228 -65.06218936 67.34627621     6     738    0    0    0
C 826.68749960 -67.53010438 70.63465591     2     738    742   743   744
H 826.87090095 -65.68447407 71.50796287     6     741    0    0    0
H 825.41560848 -68.78577248 71.56465342     6     741    0    0    0
C 829.41595846 -68.39086101 70.93815929     2     741   745   746   747
H 829.50753161 -70.01144937 69.60949120     6    744    0    0    0
H 830.67614250 -67.03904057 69.94674460     6    744    0    0    0
C 830.21786268 -69.28533994 73.54486864     2    744   748   749   750
H 828.99279124 -70.73944121 74.50282166     6    747    0    0    0
H 831.91577330 -70.27395698 73.17218412     6    747    0    0    0
C 831.08702414 -67.27544327 75.50281801     2    747   751   752   753
H 832.11171754 -65.56025895 74.71127836     6    750    0    0    0
H 829.36284584 -66.56252001 76.18638015     6    750    0    0    0
C 832.50113718 -67.83371972 77.84562846     2    750   754   755   756
H 832.81536125 -65.96130282 78.77845279     6    753    0    0    0
H 831.58639019 -69.09725843 79.28982563     6    753    0    0    0
C 834.96843677 -69.35150229 77.42635643     2    753   757   758   759
H 834.51926230 -71.25843193 76.79581165     6    756    0    0    0
H 835.96196754 -68.24271472 75.98741621     6    756    0    0    0
C 836.73853287 -69.76022799 79.76479462     2    756   760   761   762
H 837.35610499 -67.88434004 80.54198999     6    759    0    0    0
H 835.71950543 -70.88879438 81.17395009     6    759    0    0    0
C 838.95857507 -71.53035310 79.08649242     2    759   763   764   765
H 838.02862480 -73.18823794 78.44115516     6    762    0    0    0
H 839.95226496 -70.78984924 77.47596950     6    762    0    0    0
C 840.68972832 -71.83614444 81.43306597     2    762   766   767   768
H 841.79008977 -70.17514821 81.83414362     6    765    0    0    0
H 839.60823241 -72.20210935 83.09602611     6    765    0    0    0
C 842.64068321 -74.02623766 81.06462192     1    765   769   770   771
H 841.73075046 -75.74786483 80.89342414     6    768    0    0    0
H 844.05764527 -74.09935038 82.52584918     6    768    0    0    0
H 843.52148515 -74.04545270 79.22720189     6    768    0    0    0
H 872.68328779 -65.14497598 47.31859736     6     773    0    0    0 
C 872.38035835 -66.73477580 48.62785268     1     772    774    775    776
H 874.16371816 -67.23169926 49.48635096     6     773    0    0    0
H 871.13067731 -66.21332959 50.15376463     6     773    0    0    0
C 871.33179250 -69.12378134 47.18530851     2     773    777    778    779
H 872.91760050 -70.04186468 46.19607461     6     776    0    0    0
H 870.62222447 -70.56349698 48.45088506     6     776    0    0    0
C 869.45870451 -68.29093917 45.11876919     2     776    780   781   782
H 867.94525231 -67.10016439 46.05834795     6     779    0    0    0
H 870.50131255 -67.15795969 43.85402390     6     779    0    0    0
C 868.17483528 -70.54921952 43.84858850     2     779   783   784   785
H 869.69771475 -71.81851856 43.22284942     6    782    0    0    0
H 867.04361436 -71.65825894 45.22019698     6    782    0    0    0
C 866.57042838 -69.61431340 41.69148003     2    782   786   787   788
H 865.69038506 -67.69416960 42.15686390     6    785    0    0    0
H 867.65546789 -69.11314887 40.09260042     6    785    0    0    0
C 864.55119054 -71.58198958 40.86741706     2    785   789   790   791
H 865.43377306 -73.43743806 40.92267417     6    788    0    0    0
H 863.08619852 -71.65591133 42.25224888     6    788    0    0    0
C 863.31189267 -70.84225554 38.48913654     2    788   792   793   794
H 861.99542130 -69.30107362 38.86088013     6    791    0    0    0
H 864.62278173 -69.83483233 37.14983633     6    791    0    0    0
C 861.64810129 -72.94798695 37.23399167     2    791   795   796   797
H 862.72113453 -74.65910449 37.00636454     6    794    0    0    0
H 859.98706323 -73.58380797 38.47306320     6    794    0    0    0
C 860.58798227 -72.03340784 34.60129203     2    794   798   799   800
H 859.48757443 -70.34839023 35.03255257     6    797    0    0    0
H 862.23696513 -71.49500878 33.39254067     6    797    0    0    0
C 859.07306742 -74.33729938 33.31610838     2    797   801   802   803
H 860.33226170 -75.76382720 32.52887705     6    800    0    0    0
H 857.70743890 -75.29483657 34.53646634     6    800    0    0    0
C 857.45223457 -73.48863233 30.98686511     2    800   804   805   806
H 856.14092803 -72.25190175 31.87868061     6    803    0    0    0
H 858.63682088 -72.57312196 29.60357973     6    803    0    0    0
C 856.08364296 -75.88760678 29.89918434     1    803   807   808   809
H 854.95262426 -77.00900489 31.20029310     6    806    0    0    0
H 857.31279830 -77.23103729 28.99798680     6    806    0    0    0
H 854.84548357 -75.13678483 28.36890419     6    806    0    0    0
H 845.69093261 -56.27840386 70.36227476     6     811    0    0    0 
C 847.16758640 -55.02376071 70.17665085     1     810    812    813    814
H 846.80888149 -53.41573956 69.03836707     6     811    0    0    0
H 847.66636425 -54.29645486 71.99111567     6     811    0    0    0
C 849.33966012 -56.36150846 68.82046143     2     811    815    816    817
H 849.01980212 -57.05500078 66.90018988     6     814    0    0    0
H 851.08457640 -55.35496188 68.90109509     6     814    0    0    0
C 850.14722335 -58.62353646 70.44654167     2     814    818   819   820
H 850.51675439 -58.23141030 72.39914217     6     817    0    0    0
H 848.37624632 -59.84712699 70.42434347     6     817    0    0    0
C 852.38275980 -60.12457481 69.30994380     2     817   821   822   823
H 852.28458119 -60.51010981 67.35420234     6    820    0    0    0
H 854.09516309 -58.90944477 69.39810969     6    820    0    0    0
C 853.16737234 -62.40554676 70.85312997     2    820   824   825   826
H 853.32868006 -61.65069685 72.73639030     6    823    0    0    0
H 851.60227113 -63.74681992 70.85047348     6    823    0    0    0
C 855.70950924 -63.35270683 69.94140178     2    823   827   828   829
H 855.58917165 -64.06935836 68.00664467     6    826    0    0    0
H 857.23281812 -61.88749546 69.81867904     6    826    0    0    0
C 856.65547065 -65.50380033 71.56707170     2    826   830   831   832
H 856.89116362 -64.97815778 73.55626506     6    829    0    0    0
H 855.21123233 -67.18229493 71.60526276     6    829    0    0    0
C 859.10641809 -66.38315209 70.40343028     2    829   833   834   835
H 858.89813148 -67.23613894 68.54155020     6    832    0    0    0
H 860.49023798 -64.71245096 70.06786446     6    832    0    0    0
C 860.48153034 -68.23297743 71.99685029     2    832   836   837   838
H 860.46413826 -67.34738248 73.95187034     6    835    0    0    0
H 859.55062711 -70.20244153 72.13334976     6    835    0    0    0
C 863.12905106 -68.71251293 70.82649138     2    835   839   840   841
H 862.70754639 -69.43852195 68.76546279     6    838    0    0    0
H 863.73276774 -66.83641492 70.45012678     6    838    0    0    0
C 864.97446297 -70.34497881 72.47053963     2    838   842   843   844
H 865.83455157 -69.25742792 74.02542361     6    841    0    0    0
H 863.92242928 -71.84709416 73.34037932     6    841    0    0    0
C 867.23326052 -71.62331791 71.03919248     1    841   845   846   847
H 868.53971037 -70.16766850 70.45822346     6    844    0    0    0
H 866.62812948 -72.66837518 69.41248492     6    844    0    0    0
H 868.43722352 -72.83815659 72.23822857     6    844    0    0    0
H 833.41548983 -35.76930524 43.29815607     6     849    0    0    0 
C 833.77271218 -37.78384420 43.08112413     1     848    850    851    852
H 832.14236109 -38.68968364 42.28969126     6     849    0    0    0
H 835.23249019 -38.38077199 41.69940467     6     849    0    0    0
C 833.76960824 -39.15841589 45.58621534     2     849    853    854    855
H 831.81178757 -39.67037076 45.89000012     6     852    0    0    0
H 834.67970207 -40.89832659 45.43497528     6     852    0    0    0
C 835.16924598 -37.65895771 47.65669893     2     852    856   857   858
H 836.88845620 -36.84103641 46.88967498     6     855    0    0    0
H 834.04461340 -35.86996333 47.97381831     6     855    0    0    0
C 835.52834912 -39.00683536 50.20832921     2     855   859   860   861
H 833.67940661 -39.10757928 51.28223388     6    858    0    0    0
H 836.01867025 -40.92987547 49.83005883     6    858    0    0    0
C 837.43020025 -37.66659829 51.81072214     2    858   862   863   864
H 838.51056500 -36.40061968 50.64695230     6    861    0    0    0
H 836.37610532 -36.42908911 53.14507016     6    861    0    0    0
C 838.95454443 -39.60394505 53.32998970     2    861   865   866   867
H 837.65622173 -40.62974416 54.55907321     6    864    0    0    0
H 839.80280015 -41.10905443 52.17002976     6    864    0    0    0
C 840.95158201 -38.67353190 55.14206012     2    864   868   869   870
H 842.42126861 -37.57116610 54.20333781     6    867    0    0    0
H 840.03423446 -37.47294602 56.40390170     6    867    0    0    0
C 842.10559264 -40.73619985 56.73215056     2    867   871   872   873
H 840.45206918 -41.37471007 57.64912535     6    870    0    0    0
H 842.70297174 -42.37524283 55.82444165     6    870    0    0    0
C 844.15961723 -39.68775563 58.49445289     2    870   874   875   876
H 844.66894969 -41.37957609 59.57881123     6    873    0    0    0
H 845.73090525 -38.95175140 57.39781427     6    873    0    0    0
C 843.27749580 -37.99867654 60.58173509     2    873   877   878   879
H 842.74838166 -36.07269893 60.11281090     6    876    0    0    0
H 841.76906118 -38.91511073 61.37524017     6    876    0    0    0
C 845.25142454 -37.85717021 62.68932049     2    876   880   881   882
H 845.40109383 -39.73348847 63.60810684     6    879    0    0    0
H 847.20538632 -37.35392433 62.12484332     6    879    0    0    0
C 844.59964042 -36.06397079 64.84999719     1    879   883   884   885
H 842.77116862 -36.47619189 65.46790260     6    882    0    0    0
H 844.95549943 -34.16004299 64.20319674     6    882    0    0    0
H 845.95998701 -36.42258647 66.25438801     6    882    0    0    0
H 854.59563259 -68.39275815 63.25796410     6     887    0    0    0 
C 854.93622836 -66.41101554 62.91063407     1     886    888    889    890
H 855.47279761 -65.53188929 64.65059894     6     887    0    0    0
H 856.75811966 -66.33160839 61.92806952     6     887    0    0    0
C 852.62998414 -64.99648139 61.86587132     2     887    891    892    893
H 853.02902932 -63.04283728 61.29180283     6     890    0    0    0
H 852.00996924 -65.62669646 59.90541557     6     890    0    0    0
C 850.52956432 -65.02879122 63.83436317     2     890    894   895   896
H 850.06240131 -67.01614372 64.30098362     6     893    0    0    0
H 851.30635946 -64.45660555 65.69038019     6     893    0    0    0
C 847.98541629 -63.74875050 62.97371400     2     893   897   898   899
H 848.55767162 -62.17356344 61.80580311     6    896    0    0    0
H 846.79516018 -65.13378006 61.83916752     6    896    0    0    0
C 846.41306093 -62.54750421 65.19952019     2    896   900   901   902
H 845.86756704 -63.92568338 66.72557495     6    899    0    0    0
H 847.61741650 -61.15456491 66.07674469     6    899    0    0    0
C 844.25042024 -61.20057266 63.97323091     2    899   903   904   905
H 844.57908869 -60.30385775 62.10629474     6    902    0    0    0
H 842.65898922 -62.55579248 63.54629745     6    902    0    0    0
C 842.95107557 -59.24595912 65.67618468     2    902   906   907   908
H 842.18420572 -59.93212294 67.45190568     6    905    0    0    0
H 844.35819775 -57.83643959 66.07738807     6    905    0    0    0
C 840.60716398 -58.02302315 64.16496939     2    905   909   910   911
H 840.98561852 -57.77863577 62.08035469     6    908    0    0    0
H 839.15220728 -59.36778693 64.20319089     6    908    0    0    0
C 839.55656324 -55.57321106 65.45333841     2    908   912   913   914
H 839.45915431 -55.93933448 67.57571646     6    911    0    0    0
H 841.07959585 -54.05168762 65.39467982     6    911    0    0    0
C 837.02878095 -54.53371972 64.41830510     2    911   915   916   917
H 837.66130596 -53.51898042 62.77015631     6    914    0    0    0
H 835.74286487 -56.20343071 64.10468491     6    914    0    0    0
C 835.70795364 -52.71943254 66.26341141     2    914   918   919   920
H 835.83133511 -53.42341956 68.18434576     6    917    0    0    0
H 836.63353396 -50.91744793 66.11662758     6    917    0    0    0
C 833.04099253 -52.12510403 65.47746361     1    917   921   922   923
H 831.77996840 -53.89234929 65.64250349     6    920    0    0    0
H 833.07061776 -51.54388726 63.43316395     6    920    0    0    0
H 832.27905986 -50.77720878 66.73210868     6    920    0    0    0
H 849.24427376 -40.20853099 54.49113672     6     925    0    0    0 
C 851.23872728 -40.67257782 54.72431677     1     924    926    927    928
H 852.17677941 -40.33092179 52.95364022     6     925    0    0    0
H 852.07127548 -39.25029210 55.97521769     6     925    0    0    0
C 851.74608940 -43.26786887 55.74986358     2     925    929    930    931
H 850.99087892 -44.78735815 54.55469401     6     928    0    0    0
H 853.70086036 -43.28302529 55.94434990     6     928    0    0    0
C 850.69272440 -43.70087334 58.51387014     2     928    932   933   934
H 848.67707376 -43.60842003 58.52363978     6     931    0    0    0
H 850.68329138 -45.77777100 59.13717740     6     931    0    0    0
C 851.56286710 -41.83017442 60.63532242     2     931   935   936   937
H 853.57285403 -41.30865561 60.18227494     6    934    0    0    0
H 850.49178589 -40.10461419 60.31984887     6    934    0    0    0
C 851.31187363 -42.95366199 63.38637601     2    934   938   939   940
H 849.69111528 -44.13007483 63.75682470     6    937    0    0    0
H 853.12369756 -44.03484606 63.62709432     6    937    0    0    0
C 851.34590408 -40.82586198 65.44254274     2    937   941   942   943
H 853.19455578 -39.74930183 65.39470435     6    940    0    0    0
H 849.96171696 -39.32320215 65.34153712     6    940    0    0    0
C 850.58375272 -41.93689277 67.93994260     2    940   944   945   946
H 849.01280373 -43.35940580 67.97507596     6    943    0    0    0
H 852.12260912 -42.89061549 68.84471321     6    943    0    0    0
C 849.51915477 -40.00427250 69.88204842     2    943   947   948   949
H 850.63566500 -38.35617595 69.74898972     6    946    0    0    0
H 847.66569233 -39.48898589 69.18887095     6    946    0    0    0
C 849.48187387 -41.05223037 72.65792382     2    946   950   951   952
H 849.79375648 -43.02950407 72.62932742     6    949    0    0    0
H 851.02611490 -40.26791300 73.79428732     6    949    0    0    0
C 846.93933115 -40.67395283 74.13098916     2    949   953   954   955
H 846.53267888 -38.60339133 74.29247195     6    952    0    0    0
H 845.37360244 -41.57017478 73.11720389     6    952    0    0    0
C 847.14730858 -41.90507138 76.77641909     2    952   956   957   958
H 845.35259950 -42.36885820 77.38913349     6    955    0    0    0
H 848.09877259 -43.73603496 76.63803406     6    955    0    0    0
C 848.50172637 -40.08885522 78.54874741     1    955   959   960   961
H 848.59258265 -40.78140547 80.52646453     6    958    0    0    0
H 847.94336891 -38.01036649 78.71436758     6    958    0    0    0
H 850.45885723 -39.85597065 77.97388522     6    958    0    0    0
H 838.26352655 -81.55187868 62.54040255     6     963    0    0    0 
C 838.92102644 -79.63418311 62.80860299     1     962    964    965    966
H 837.59854173 -78.66007943 63.75036469     6     963    0    0    0
H 840.33941091 -79.78375942 64.28953489     6     963    0    0    0
C 839.81358498 -78.24752043 60.22768327     2     963    967    968    969
H 840.19559492 -76.23485706 60.87637295     6     966    0    0    0
H 841.53728133 -79.17992410 59.53960544     6     966    0    0    0
C 837.96725949 -78.17905255 57.88566145     2     966    970   971   972
H 837.11288315 -80.13929697 57.62559434     6     969    0    0    0
H 836.31518872 -76.93465273 58.33579849     6     969    0    0    0
C 839.11391245 -77.28617237 55.31290768     2     969   973   974   975
H 839.66305338 -75.28374371 55.45367455     6    972    0    0    0
H 840.97568805 -78.01231433 54.99976985     6    972    0    0    0
C 837.20684452 -77.81127008 53.25435653     2    972   976   977   978
H 836.87943158 -79.81443524 53.13335148     6    975    0    0    0
H 835.38469576 -76.93926532 53.74261079     6    975    0    0    0
C 837.97707605 -77.09831238 50.55667021     2    975   979   980   981
H 838.06086291 -74.95424967 50.39247951     6    978    0    0    0
H 839.81586146 -77.79810598 50.23303194     6    978    0    0    0
C 836.02080082 -77.86874589 48.55708820     2    978   982   983   984
H 836.07568272 -79.93819228 48.52914624     6    981    0    0    0
H 834.11495516 -77.34009161 49.25817252     6    981    0    0    0
C 836.72445121 -76.91661985 45.85112788     2    981   985   986   987
H 836.86023082 -74.92628769 45.65310450     6    984    0    0    0
H 838.54859407 -77.67684484 45.52696303     6    984    0    0    0
C 834.92407960 -77.83844690 43.84919229     2    984   988   989   990
H 835.85418549 -77.90248530 42.02357795     6    987    0    0    0
H 834.10392168 -79.72100168 44.10627687     6    987    0    0    0
C 832.78300810 -75.94935442 43.76216252     2    987   991   992   993
H 831.77681304 -75.95219196 45.62019148     6    990    0    0    0
H 833.53422184 -74.11736519 43.36579655     6    990    0    0    0
C 830.92692264 -76.50493484 41.64109877     2    990   994   995   996
H 831.78413828 -75.79534099 39.93565306     6    993    0    0    0
H 830.84307708 -78.49289120 41.21576812     6    993    0    0    0
C 828.31156960 -75.37194626 42.11054050     1    993   997   998   999
H 827.56285833 -76.70996337 43.54200947     6    996    0    0    0
H 827.21801197 -75.45727655 40.46509497     6    996    0    0    0
H 828.56489164 -73.49175543 42.76607578     6    996    0    0    0
H 848.10193547 -92.78403731 69.62610621     6     1001    0    0    0 
C 847.64636911 -92.50890474 67.69326405     1     1000    1002    1003    1004
H 848.54605943 -90.85050063 66.72997361     6     1001    0    0    0
H 848.91178547 -93.98508718 67.06198648     6     1001    0    0    0
C 844.94093028 -93.02829816 66.88398440     2     1001    1005    1006    1007
H 845.03058198 -92.61449385 64.87472215     6     1004    0    0    0
H 844.38493385 -94.96966010 67.00377379     6     1004    0    0    0
C 842.76159281 -91.49116268 68.17930814     2     1004    1008   1009   1010
H 842.25234168 -92.11246419 70.02639816     6     1007    0    0    0
H 843.49725360 -89.59226779 68.38579517     6     1007    0    0    0
C 840.40019612 -91.75194058 66.40952739     2     1007   1011   1012   1013
H 840.76829187 -91.41572858 64.40906697     6    1010    0    0    0
H 839.85418438 -93.67732311 66.48065426     6    1010    0    0    0
C 838.18655481 -90.08217018 66.99927215     2    1010   1014   1015   1016
H 837.37683000 -90.74515904 68.65649156     6    1013    0    0    0
H 838.59072285 -88.09121032 67.47846200     6    1013    0    0    0
C 836.17029313 -89.69969484 64.85979811     2    1013   1017   1018   1019
H 836.75334594 -88.46925705 63.34185145     6    1016    0    0    0
H 835.91403753 -91.58100799 63.89274999     6    1016    0    0    0
C 833.78444689 -88.49180830 66.23610731     2    1016   1020   1021   1022
H 832.91082253 -90.08917491 67.34493753     6    1019    0    0    0
H 834.12970360 -87.22703069 67.74072063     6    1019    0    0    0
C 831.93959979 -87.47059445 64.43099698     2    1019   1023   1024   1025
H 831.93469140 -88.74067249 62.91870840     6    1022    0    0    0
H 829.92615233 -87.48782814 65.17703706     6    1022    0    0    0
C 832.64384192 -84.78780953 63.49765719     2    1022   1026   1027   1028
H 832.55631768 -83.56262964 65.13665945     6    1025    0    0    0
H 834.57388810 -84.90140311 62.85056561     6    1025    0    0    0
C 830.84688412 -83.94415266 61.45777640     2    1025   1029   1030   1031
H 830.95771778 -85.44381317 60.03868373     6    1028    0    0    0
H 828.90029463 -84.09613050 62.10896995     6    1028    0    0    0
C 831.39832565 -81.36258894 60.20955921     2    1028   1032   1033   1034
H 830.25376274 -80.08704440 61.26557414     6    1031    0    0    0
H 833.36676209 -80.85041372 60.31451872     6    1031    0    0    0
C 830.44662729 -81.33106692 57.54646666     1    1031   1035   1036   1037
H 831.21916500 -82.90805578 56.36880028     6    1034    0    0    0
H 830.88130608 -79.60946872 56.46176710     6    1034    0    0    0
H 828.39640293 -81.26843945 57.62168933     6    1034    0    0    0
H 859.51829634 -69.30818681 46.05918860     6     1039    0    0    0 
C 860.67489911 -67.69226817 46.60065992     1     1038    1040    1041    1042
H 862.47478753 -67.87559269 45.48915729     6     1039    0    0    0
H 859.63215136 -66.21582626 45.90139462     6     1039    0    0    0
C 861.47999107 -67.79955800 49.38348714     2     1039    1043    1044    1045
H 859.91882684 -68.28503085 50.72133273     6     1042    0    0    0
H 862.48150600 -69.62346435 49.47020864     6     1042    0    0    0
C 863.19450130 -65.58194356 50.04662287     2     1042    1046   1047   1048
H 864.58461403 -65.38997536 48.68732329     6     1045    0    0    0
H 862.17577262 -63.78216781 50.33953217     6     1045    0    0    0
C 864.58165183 -65.89321877 52.59808677     2     1045   1049   1050   1051
H 863.24893718 -66.39177179 54.03594704     6    1048    0    0    0
H 865.74299603 -67.65242714 52.43758038     6    1048    0    0    0
C 866.33027592 -63.71132061 53.29355155     2    1048   1052   1053   1054
H 867.88068196 -63.46739537 51.84122254     6    1051    0    0    0
H 865.37891488 -61.96338827 53.37558373     6    1051    0    0    0
C 867.90688318 -64.18968739 55.74989739     2    1051   1055   1056   1057
H 866.68727332 -64.89816140 57.16660464     6    1054    0    0    0
H 869.12094114 -65.71221805 55.24827068     6    1054    0    0    0
C 869.36842469 -61.96626354 56.71571232     2    1054   1058   1059   1060
H 868.69060835 -60.14315560 55.92919373     6    1057    0    0    0
H 868.96695647 -61.72179541 58.61878222     6    1057    0    0    0
C 872.26056630 -62.03194765 56.57270865     2    1057   1061   1062   1063
H 873.03622529 -63.87026622 56.77697195     6    1060    0    0    0
H 872.65653838 -61.80660978 54.61338676     6    1060    0    0    0
C 873.68448402 -59.66686039 57.86118370     2    1060   1064   1065   1066
H 875.44278588 -59.44252701 57.08279887     6    1063    0    0    0
H 872.58969662 -57.89374453 57.48355243     6    1063    0    0    0
C 873.91914820 -60.04551723 60.79166490     2    1063   1067   1068   1069
H 872.13174181 -60.03002827 61.68056358     6    1066    0    0    0
H 874.66241520 -61.90146923 61.17178157     6    1066    0    0    0
C 875.64664757 -57.99748693 61.82524676     2    1066   1070   1071   1072
H 877.31315883 -57.92912047 60.65168941     6    1069    0    0    0
[...]
 1763      H     822.6937102700   -62.3432076700    59.0246422700
 1764      C     819.7985521500   -65.3222992200    59.7777035500
 1765      H     821.2518576300   -66.8724234900    60.0228241300
 1766      H     818.3963166800   -65.5524815200    61.2441405800
 1767      C     818.6762415000   -65.5283298000    57.1190929200
 1768      H     817.5808240000   -63.9041505200    56.8074177900
 1769      H     820.3040224500   -65.6633800900    55.8825068500
 1770      C     816.9263129300   -67.9603213400    56.7586889100
 1771      H     818.0272699800   -69.7035313800    57.1085854000
 1772      H     815.4344507000   -67.7085386000    58.3597438800
 1773      C     815.7079371500   -67.9988590100    54.0820079400
 1774      H     814.5696788200   -66.2956468000    53.8058149800
 1775      H     817.1513477000   -67.7630252400    52.6843912900
 1776      C     814.1078581400   -70.3461778800    53.5174755700
 1777      H     814.9186425300   -72.1710373000    54.1032712200
 1778      H     812.3696497100   -70.2192557400    54.6115367100
 1779      C     813.4049621100   -70.3802165600    50.7087456500
 1780      H     812.5715208800   -68.4763937600    50.3775068500
 1781      H     815.1011059400   -70.4519472500    49.6123139100
 1782      C     811.5337810500   -72.4581987300    49.7712845200
 1783      H     809.9850412300   -72.6901351300    51.0630531100
 1784      H     810.3923554500   -71.8905113000    48.1186113400
 1785      C     812.9553202700   -74.9308257800    49.1001921100
 1786      H     814.3653807600   -74.5405456500    47.6895988100
 1787      H     813.5884740900   -75.7697228300    50.8284712400
 1788      C     811.1905036300   -76.9773114500    48.1144468800
 1789      H     809.7521905200   -77.4915273100    49.4376638300
 1790      H     810.1368568400   -76.2580604800    46.5909353200
 1791      C     812.5054379100   -79.3830032100    47.3415710700
 1792      H     813.7510108100   -79.0549450500    45.7341650000
 1793      H     813.6315267100   -79.8975870000    49.0534570900
 1794      C     810.9790128800   -81.6061880600    46.7123285100
 1795      H     809.7811149800   -81.6100245700    45.0495549400
 1796      H     809.5772804200   -81.9802448000    48.1752914900
 1797      H     812.0251594800   -83.2120179800    46.4870362000
 1798      H     858.2016742400   -46.1115121200    34.0497218700
 1799      C     858.2500250600   -46.9634729000    35.8170318600
 1800      H     856.7543218000   -48.4146683300    35.5747881200
 1801      H     860.1590217800   -47.9257552300    35.9865010300
 1802      C     857.9747837200   -45.0736874400    37.9276407200
 1803      H     859.5650626900   -43.7655023700    37.8062503200
 1804      H     856.1913671700   -43.9720940000    37.5895468700
 1805      C     858.3418661900   -46.0560627700    40.6333284800
 1806      H     859.8846028000   -47.6111786300    40.5385528900
 1807      H     859.0737208900   -44.4509091800    41.8150320200
 1808      C     855.9071564700   -47.4151984400    41.6953066200
 1809      H     854.5428083100   -46.1189343300    42.5224926400
 1810      H     855.1772419100   -48.3143771800    39.8757991500
 1811      C     856.6017474500   -49.5188633200    43.6069300900
 1812      H     856.9156686300   -51.1815085300    42.3500468800
 1813      H     858.4686276600   -49.1487328900    44.6204386200
 1814      C     854.5091386200   -49.9463193800    45.5828888500
 1815      H     854.3795473100   -48.2174947400    46.6694203300
 1816      H     852.6811949700   -50.1246123200    44.7097843600
 1817      C     855.0509699000   -51.9361778300    47.6040132600
 1818      H     855.1390332500   -53.7513262600    46.6551065900
 1819      H     856.9697725400   -51.8061319000    48.3594889800
 1820      C     853.1550524800   -52.1405413000    49.7232120200
 1821      H     852.8617791700   -50.1768377200    50.4964615000
 1822      H     851.2961517400   -52.8155040500    49.0631162700
 1823      C     854.0308503200   -53.8315231700    51.8053146900
 1824      H     854.3206757400   -55.7418772200    51.0081269000
 1825      H     855.6731415600   -53.2884603000    52.5789707300
 1826      C     851.8824924800   -54.0879326000    53.7025130500
 1827      H     851.1562886000   -52.1871413100    54.3203767000
 1828      H     850.2001226800   -54.9476933700    52.8242555800
 1829      C     852.4722540300   -55.6124657800    56.2115934700
 1830      H     852.8159627300   -57.4506244500    55.6279238300
 1831      H     854.3085587900   -55.2194409600    56.9867905900
 1832      C     850.5468981300   -55.8251409300    58.4031210100
 1833      H     849.7909402100   -53.8537982800    58.9634859000
 1834      H     851.4280620300   -56.4730864100    60.2023694000
 1835      H     849.1258047800   -56.9989852000    57.7935332100
 1836      H     845.6107734400   -55.3422962800    55.5094029800
 1837      C     843.7868507500   -55.1205197900    54.6757411400
 1838      H     843.9759574700   -56.2716965900    53.0248068000
 1839      H     842.3950619000   -55.8363275300    55.9560937600
 1840      C     843.3564258100   -52.3820405000    54.1917701900
 1841      H     841.4613092900   -52.0478006800    53.4743457100
 1842      H     843.4050625900   -51.5004795800    55.9255545900
 1843      C     845.0175438500   -51.1548999200    52.2503417100
 1844      H     846.9367741500   -51.7723630700    52.6179301800
 1845      H     844.6372030100   -51.9144966800    50.5029228300
 1846      C     844.7655256500   -48.2927133900    52.0236552800
 1847      H     843.0434961200   -47.8813551100    50.9920841900
 1848      H     844.3753789900   -47.3670752300    53.8230253700
 1849      C     847.1807304100   -47.2088227300    50.6863789800
 1850      H     848.9003426000   -47.5101972300    51.8684533400
 1851      H     847.6783901500   -48.1643443400    48.9657471900
 1852      C     846.9078486500   -44.3315996400    50.0450623300
 1853      H     846.3721604900   -43.3519981700    51.7319874200
 1854      H     848.5528487600   -43.4726507700    49.2704026400
 1855      C     844.7935463900   -43.8947235000    47.9980851300
 1856      H     845.2776157500   -44.8316995100    46.2696722500
 1857      H     843.0532820200   -44.9338438700    48.3404695000
 1858      C     844.1207415100   -41.1190458700    47.6297023100
 1859      H     843.0175022700   -40.6517250400    49.3019434300
 1860      H     845.8022500500   -39.9545973800    47.8092005100
 1861      C     842.2561864700   -40.1797964400    45.5923496100
 1862      H     840.3243918700   -41.0930778600    45.8622695300
 1863      H     841.7140118000   -38.1883419400    46.0310423100
 1864      C     843.2346438200   -40.2916771700    42.9181984800
 1865      H     844.7908566300   -38.9496342100    42.7213260400
 1866      H     843.9859660600   -42.2173486600    42.6222319900
 1867      C     841.2588730800   -39.7430097100    40.8743861000
 1868      H     839.4993474800   -40.7340682800    41.3497085200
 1869      H     840.6308112700   -37.7195189300    40.8467198600
 1870      C     842.1035893100   -40.6208955900    38.2572024700
 1871      H     840.7663659500   -39.9872925800    36.7886944700
 1872      H     842.4280887000   -42.7350574300    38.1036216700
 1873      H     843.9825192100   -40.0230444400    37.7526923900
 1874      H     837.6561044700   -66.5394973700    37.6180455300
 1875      C     839.3864565000   -67.6238810400    38.0065322800
 1876      H     840.1190292000   -68.8185554700    36.5438685100
 1877      H     840.8095367600   -66.2029346200    38.2205483000
 1878      C     839.2078441600   -69.0705930400    40.5547629500
 1879      H     838.5602395400   -67.7553077000    41.9196982800
 1880      H     837.7606213600   -70.6341882500    40.5307461000
 1881      C     841.7264045800   -70.1350764700    41.5634932800
 1882      H     842.7263041000   -71.4305342200    40.2990052700
 1883      H     843.0731312000   -68.5236441700    41.6793721600
 1884      C     841.3786635100   -71.4468548400    44.2130457500
 1885      H     840.2870333400   -70.1093705100    45.4186463000
 1886      H     840.4100947800   -73.1519047400    43.9377073400
 1887      C     843.8863005300   -71.9221091400    45.5869754600
 1888      H     845.0633204700   -72.5958327000    44.0364740600
 1889      H     844.6047399700   -70.1533422800    46.5546400000
 1890      C     843.8414233600   -74.2828436400    47.2541867200
 1891      H     842.0787697300   -74.2439106400    48.4504268000
 1892      H     843.6362033200   -75.9958422300    46.0490672600
 1893      C     846.2379768000   -75.0408571400    48.8842524700
 1894      H     847.9522037900   -74.9815683200    47.7133207500
 1895      H     846.9074240800   -73.4569294900    50.0954092700
 1896      C     845.7057981800   -77.5323306300    50.2421395800
 1897      H     844.1069551300   -77.2087599300    51.7069021800
 1898      H     844.9264431500   -78.9399471400    48.9381799400
 1899      C     847.8675560900   -78.7124218600    51.6736456600
 1900      H     849.1456389600   -79.5578572800    50.3092691900
 1901      H     848.8305356500   -77.3572672800    52.6938604200
 1902      C     847.1452218700   -80.6601358700    53.7574295200
 1903      H     845.8432957300   -79.6521114900    55.1101552600
 1904      H     846.2018228000   -82.3238106200    52.7755455800
 1905      C     849.3480895700   -81.5831587300    55.4179170700
 1906      H     850.9198920500   -81.8460222200    54.2235069200
 1907      H     849.8965229900   -80.0902369100    56.8913877400
 1908      C     848.7591228100   -83.9314605200    56.9508026100
 1909      H     850.2905516500   -85.2306818000    56.6869056000
 1910      H     846.9545683900   -84.7812631700    56.5939024800
 1911      H     848.8185069700   -83.3397855000    58.8377235700
 ----------------------------------------------------------------
 Nuclear Repulsion Energy =           0.00000000 hartrees
 There are     2498 alpha and     2498 beta electrons

 Total QAlloc Memory Limit   2000 MB
 Mega-Array Size       204 MB
 MEM_STATIC part       192 MB
   **** Step 1: MM calculation on the entire system **** 
 OPLSAA force field loaded.
Reading user-defined FF parameters...
 Reading user defined atom types.
 Found 3 user defined AtomTypes
finished.
Determining angles, torsions, etc. from user defined input
Determining VDW/Coulomb pairs... (useList = 0)

 Time req'd to get MM system information: 0.2 s (CPU) 0.3 s (wall)

 ------ MM Energies ------
   Ebond:           571.808494461416
   Eangle:          872.652578385290
   EUreyBrad:         0.000000000000
   Eimptors:          0.000000000000
   Etorsion:        262.558526671255
   Evdw:         930596.479674250586
   Ecoulomb:        183.209686940242
   Etot:         932486.708960708696 Kcal/mol (   1486.012167234220 hartree)
 -------------------------
 Time req'd to calc MM energy: 0.1 s (CPU) 0.1 s (wall)
 OPLSAA force field loaded.
Reading user-defined FF parameters...
 Reading user defined atom types.
 Found 3 user defined AtomTypes
finished.
 Time req'd to get MM system information: 0.0 s (CPU) 0.0 s (wall)
 Time req'd to calc MM gradient: 0.2 s (CPU) 0.2 s (wall)
   **** Step 2: MM calculation on the model system **** 
 Reading user defined atom types.
 Found 3 user defined AtomTypes
 ----------------------------------------------------------------
             Standard Nuclear Orientation (Bohr)
    I     Atom           X                Y                Z
 ----------------------------------------------------------------
    1      Fe    841.1995405300   -63.7882215500    50.2769689400
    2      C     842.5658249800   -66.8583311800    51.3892275300
    3      C     840.5276557700   -60.7794621600    49.0169696200
    4      C     837.9737853100   -64.0787003600    51.4682317100
    5      C     843.0722004700   -62.2446012100    52.6650016300
    6      C     841.5119156300   -64.7007730200    46.9619539400
    7      O     843.3095919400   -68.7890462900    52.1176584400
    8      O     840.2939840300   -58.7428552900    48.0557667800
    9      O     835.8872119200   -63.9266450700    52.3241989100
   10      O     844.2555495200   -61.2401350800    54.1936111700
   11      O     841.5110922000   -64.5346824100    44.6573596800
 ----------------------------------------------------------------
 Nuclear Repulsion Energy =         794.51302261 hartrees
 There are       48 alpha and       48 beta electrons
 OPLSAA force field loaded.
Reading user-defined FF parameters...
 Reading user defined atom types.
 Found 3 user defined AtomTypes
finished.
Determining VDW/Coulomb pairs... (useList = 0)

 No MM bonds in system. Return all possible pairs.
 Time req'd to get MM system information: 0.0 s (CPU) 0.0 s (wall)

 ------ MM Energies ------
   Ebond:             0.000000000000
   Eangle:            0.000000000000
   EUreyBrad:         0.000000000000
   Eimptors:          0.000000000000
   Etorsion:          0.000000000000
   Evdw:         931035.013555816258
   Ecoulomb:         -6.347264674889
   Etot:         931028.666291141417 Kcal/mol (   1483.688628328514 hartree)
 -------------------------
 Eold: 1486.0121672 mm_energy: 1483.6886283 Enew:    2.3235389
 Time req'd to calc MM energy: 0.0 s (CPU) 0.0 s (wall)
 OPLSAA force field loaded.
Reading user-defined FF parameters...
 Reading user defined atom types.
 Found 3 user defined AtomTypes
finished.
Determining VDW/Coulomb pairs... (useList = 0)

 No MM bonds in system. Return all possible pairs.
 Time req'd to get MM system information: 0.0 s (CPU) 0.0 s (wall)
 Number of fixed atoms: 0
 Time req'd to calc MM gradient: 0.0 s (CPU) 0.0 s (wall)
   **** Step 3: QM calculation on the model system **** 
 Requested basis set is def2-mSVP
 There are 80 shells and 174 basis functions

                       Distance Matrix (Bohrs)
             Fe(  1)   C (  2)   C (  3)   C (  4)   C (  5)   C (  6)
   C (  2)  3.539693
   C (  3)  3.330414  6.836256
   C (  4)  3.450939  5.368372  4.838999
   C (  5)  3.404749  4.813577  4.682892  5.548875
   C (  6)  3.452485  5.036520  4.535255  5.762975  6.402501
   O (  7)  5.731379  2.193504  9.028116  7.147024  6.571583  6.821064
   O (  8)  5.586546  9.062790  2.264129  6.745330  6.420729  6.178719
   O (  9)  5.694835  7.353423  6.509704  2.260440  7.387116  7.809625
   O ( 10)  5.583191  6.502604  6.395860  7.412537  2.178512  8.473512
   O ( 11)  5.677524  7.199295  5.837382  7.688201  8.473716  2.310572
             O (  7)   O (  8)   O (  9)   O ( 10)
   O (  8) 11.248058
   O (  9)  8.875659  8.031863
   O ( 10)  7.886094  7.720333  8.985606
   O ( 11)  8.774410  6.824645  9.527757 10.455916

 A cutoff of  1.0D-11 yielded   2480 shell pairs
 There are     12814 function pairs (     14669 Cartesian)
 Smallest overlap matrix eigenvalue = 2.55E-03
 Guess MOs from SCF MO coefficient file
 Reading MOs from coefficient file
 Reading MOs from coefficient file
 A restricted Kohn-Sham SCF calculation will be
 performed using Pulay DIIS extrapolation
 Exchange:  B88      Correlation:  P86
 Using SG-1 standard quadrature grid
 SCF converges when DIIS error is below 1.0E-08
 Using Q-Chem read-in guess as SCF_GUESS READ specified.

 using 2 threads for integral computing
 -------------------------------------------------------
 OpenMP Integral computing Module                
 Release: version 1.0, May 2013, Q-Chem Inc. Pittsburgh 
 -------------------------------------------------------
 ---------------------------------------
  Cycle       Energy         DIIS Error
 ---------------------------------------
    1   -1830.5098562234      2.40E-09
    2   -1830.5098562233      1.12E-08
    3   -1830.5098562234      1.02E-08
    4   -1830.5098562230      6.14E-10 Convergence criterion met
 ---------------------------------------
 SCF time:  CPU 5.33 s  wall 2.80 s
 E(QM + QM/MM):    -1830.5098562230 E(MM):    2.3235389 E(Tot): -1828.186317317272 
 SCF   energy in the final basis set = -1828.18631732
 Total energy in the final basis set = -1828.18631732

 --------------------------------------------------------------

                    Orbital Energies (a.u.)
 --------------------------------------------------------------

 Alpha MOs
 -- Occupied --
******** -29.6411 -25.6004 -25.5908 -25.5827 -18.8983 -18.8831 -18.8816
-18.8763 -18.8737 -10.0633 -10.0586 -10.0512 -10.0486 -10.0477  -3.3251
 -2.1597  -2.1415  -2.1237  -1.0703  -1.0619  -1.0368  -1.0306  -1.0151
 -0.5786  -0.5320  -0.5231  -0.5193  -0.5156  -0.4565  -0.4473  -0.4372
 -0.4361  -0.4312  -0.4284  -0.4275  -0.4193  -0.4072  -0.4058  -0.4001
 -0.3965  -0.3905  -0.3874  -0.3758  -0.2848  -0.2709  -0.2446  -0.2204
 -- Virtual --
 -0.1185  -0.0985  -0.0945  -0.0870  -0.0828  -0.0773  -0.0724  -0.0648
 -0.0605  -0.0438  -0.0290   0.0123   0.1831   0.2139   0.2185   0.2376
  0.2892   0.3038   0.3568   0.3945   0.4044   0.4148   0.4256   0.4301
  0.4417   0.4666   0.4920   0.5059   0.5209   0.5401   0.5452   0.5675
  0.5975   0.6139   0.6303   0.6400   0.7357   0.7524   0.7649   0.7772
  0.7956   0.8077   0.8295   0.8689   0.8849   0.8967   0.9326   0.9544
  0.9693   0.9765   0.9815   1.0080   1.0117   1.0262   1.0322   1.0448
  1.1522   1.1956   1.2127   1.3264   1.3979   1.4013   1.4048   1.4102
  1.4138   1.4165   1.4275   1.4369   1.4436   1.4596   1.4698   1.4953
  1.5062   1.5235   1.5549   1.5620   1.5974   1.6106   1.6464   1.6669
  1.6927   1.8095   1.8192   1.8207   1.8306   1.8329   1.8410   1.8437
  1.8499   1.8503   1.8692   1.8739   1.8885   1.8962   1.9418   1.9545
  2.3004   2.3660   2.3944   2.4205   2.4242   2.4376   2.4477   2.4759
  2.4936   2.5080   2.6035   2.6153   2.6244   2.6512   2.6576   2.8028
  2.8057   2.8488   2.8582   2.9563  13.2478  13.2660  13.3044  13.3365
 13.4069  24.8776  24.9262  24.9358  24.9698  25.0094
 --------------------------------------------------------------

          Ground-State Mulliken Net Atomic Charges

     Atom                 Charge (a.u.)
  ----------------------------------------
      1 Fe                   -0.488278
      2 C                     0.221568
      3 C                     0.202075
      4 C                     0.261918
      5 C                     0.213586
      6 C                     0.226944
      7 O                    -0.094607
      8 O                    -0.140955
      9 O                    -0.139683
     10 O                    -0.101959
     11 O                    -0.160611
  ----------------------------------------
  Sum of atomic charges =     0.000000

 -----------------------------------------------------------------
                    Cartesian Multipole Moments
 -----------------------------------------------------------------
    Charge (ESU x 10^10)
                -0.0000
    Dipole Moment (Debye)
         X       0.3743045108      Y      -0.6223229816      Z       0.6348439759
       Tot       0.9645810666
    Quadrupole Moments (Debye-Ang)
        XX     263.3671     XY    -289.9381     YY     -26.8770
        XZ     292.9666     YZ     -37.4419     ZZ     -37.7423
    Octopole Moments (Debye-Ang^2)
       XXX  129218.5299    XXY -132460.7622    XYY  -11517.7048
       YYY    4828.6994    XXZ  133162.7679    XYZ  -17026.0831
       YYZ     -27.9959    XZZ  -16512.5648    YZZ     854.5753
       ZZZ   -4348.4531
    Hexadecapole Moments (Debye-Ang^3)
      XXXX ************   XXXY ************   XXYY ************
      XYYY 2134061.8612   YYYY -373271.0585   XXXZ ************
      XXYZ ************   XYYZ     -31.1166   YYYZ  105917.1512
      XXZZ ************   XYZZ  370408.3929   YYZZ  -63684.1772
      XZZZ ************   YZZZ  135608.7067   ZZZZ -255459.6957
 -----------------------------------------------------------------
 Calculating MO derivatives via CPSCF
 Full subspace dimension requested for CIS/TDDFT
 MAX_CIS_SUBSPACE fits in available memory
    1     0    36    0.0433934  
    2     0    36    0.0063453  
    3     0    36    0.0007410  
