                  Welcome to Q-Chem
     A Quantum Leap Into The Future Of Chemistry


 Q-Chem 5.4 (devel), Q-Chem, Inc., Pleasanton, CA (2021)

 E. Epifanovsky,  A. T. B. Gilbert,  Xintian Feng,  Joonho Lee,  Yuezhi Mao,  
 N. Mardirossian,  P. Pokhilko,  A. White,  M. Wormit,  M. P. Coons,  
 A. L. Dempwolff,  Zhengting Gan,  D. Hait,  P. R. Horn,  L. D. Jacobson,  
 I. Kaliman,  J. Kussmann,  A. W. Lange,  Ka Un Lao,  D. S. Levine,  Jie Liu,  
 S. C. McKenzie,  A. F. Morrison,  K. Nanda,  F. Plasser,  D. R. Rehn,  
 M. L. Vidal,  Zhi-Qiang You,  Ying Zhu,  B. Alam,  B. Albrecht,  
 A. Aldossary,  E. Alguire,  J. H. Andersen,  D. Barton,  K. Begam,  A. Behn,  
 Y. A. Bernard,  E. J. Berquist,  H. Burton,  A. Carreras,  K. Carter-Fenk,  
 R. Chakraborty,  A. D. Chien,  K. D. Closser,  V. Cofer-Shabica,  
 S. Dasgupta,  Jia Deng,  M. de Wergifosse,  M. Diedenhofen,  Hainam Do,  
 S. Ehlert,  Po-Tung Fang,  S. Fatehi,  Qingguo Feng,  T. Friedhoff,  
 J. Gayvert,  Qinghui Ge,  G. Gidofalvi,  M. Goldey,  J. Gomes,  
 C. Gonzalez-Espinoza,  S. Gulania,  A. Gunina,  M. W. D. Hanson-Heine,  
 P. H. P. Harbach,  A. W. Hauser,  M. F. Herbst,  M. Hernandez Vera,  
 M. Hodecker,  Z. C. Holden,  S. Houck,  Xunkun Huang,  Kerwin Hui,  
 B. C. Huynh,  M. Ivanov,  Hyunjun Ji,  Hanjie Jiang,  B. Kaduk,  S. Kaehler,  
 K. Khistyaev,  Jaehoon Kim,  P. Klunzinger,  Z. Koczor-Benda,  
 Joong Hoon Koh,  D. Kosenkov,  L. Koulias,  T. Kowalczyk,  C. M. Krauter,  
 K. Kue,  A. Kunitsa,  T. Kus,  A. Landau,  K. V. Lawler,  D. Lefrancois,  
 S. Lehtola,  Rain Li,  Yi-Pei Li,  Jiashu Liang,  M. Liebenthal,  
 Hung-Hsuan Lin,  You-Sheng Lin,  Fenglai Liu,  Kuan-Yu Liu,  
 M. Loipersberger,  A. Luenser,  A. Manjanath,  P. Manohar,  E. Mansoor,  
 S. F. Manzer,  Shan-Ping Mao,  A. V. Marenich,  T. Markovich,  S. Mason,  
 S. A. Maurer,  P. F. McLaughlin,  M. F. S. J. Menger,  J.-M. Mewes,  
 S. A. Mewes,  P. Morgante,  J. W. Mullinax,  K. J. Oosterbaan,  G. Paran,  
 Alexander C. Paul,  Suranjan K. Paul,  F. Pavosevic,  Zheng Pei,  S. Prager,  
 E. I. Proynov,  E. Ramos,  B. Rana,  A. E. Rask,  A. Rettig,  R. M. Richard,  
 F. Rob,  E. Rossomme,  T. Scheele,  M. Scheurer,  M. Schneider,  
 N. Sergueev,  S. M. Sharada,  W. Skomorowski,  D. W. Small,  C. J. Stein,  
 Yu-Chuan Su,  E. J. Sundstrom,  Zhen Tao,  J. Thirman,  T. Tsuchimochi,  
 N. M. Tubman,  S. P. Veccham,  O. Vydrov,  J. Wenzel,  J. Witte,  A. Yamada,  
 Kun Yao,  S. Yeganeh,  S. R. Yost,  A. Zech,  Igor Ying Zhang,  Xing Zhang,  
 Yu Zhang,  D. Zuev,  A. Aspuru-Guzik,  A. T. Bell,  N. A. Besley,  
 K. B. Bravaya,  B. R. Brooks,  D. Casanova,  Jeng-Da Chai,  S. Coriani,  
 C. J. Cramer,  A. E. DePrince, III,  R. A. DiStasio Jr.,  A. Dreuw,  
 B. D. Dunietz,  T. R. Furlani,  W. A. Goddard III,  S. Grimme,  
 S. Hammes-Schiffer,  T. Head-Gordon,  W. J. Hehre,  Chao-Ping Hsu,  
 T.-C. Jagau,  Yousung Jung,  A. Klamt,  Jing Kong,  D. S. Lambrecht,  
 WanZhen Liang,  N. J. Mayhall,  C. W. McCurdy,  J. B. Neaton,  
 C. Ochsenfeld,  J. A. Parkhill,  R. Peverati,  V. A. Rassolov,  Yihan Shao,  
 L. V. Slipchenko,  T. Stauch,  R. P. Steele,  J. E. Subotnik,  
 A. J. W. Thom,  A. Tkatchenko,  D. G. Truhlar,  T. Van Voorhis,  
 T. A. Wesolowski,  K. B. Whaley,  H. L. Woodcock III,  P. M. Zimmerman,  
 S. Faraji,  P. M. W. Gill,  M. Head-Gordon,  J. M. Herbert,  A. I. Krylov

 Additional authors for Version 5.4.1: 
 S. Kotaru,  Shaozhi Li,  Xiangyuan Li,  F. Matz,  A. Molle,  Haisheng Ren,  
 Yingli Su,  Hung-Yi Tsai,  C. Utku,  Fang Wang

 Contributors to earlier versions of Q-Chem not listed above: 
 R. D. Adamson,  B. Austin,  R. Baer,  J. Baker,  G. J. O. Beran,  
 K. Brandhorst,  S. T. Brown,  E. F. C. Byrd,  A. K. Chakraborty,  
 G. K. L. Chan,  Chun-Min Chang,  Yunqing Chen,  C.-L. Cheng,  
 Siu Hung Chien,  D. M. Chipman,  D. L. Crittenden,  H. Dachsel,  
 R. J. Doerksen,  A. D. Dutoi,  R. G. Edgar,  J. Fosso-Tande,  
 L. Fusti-Molnar,  D. Ghosh,  A. Ghysels,  A. Golubeva-Zadorozhnaya,  
 J. Gonthier,  M. S. Gordon,  S. R. Gwaltney,  G. Hawkins,  J. E. Herr,  
 A. Heyden,  S. Hirata,  E. G. Hohenstein,  G. Kedziora,  F. J. Keil,  
 C. Kelley,  Jihan Kim,  R. A. King,  R. Z. Khaliullin,  P. P. Korambath,  
 W. Kurlancheek,  A. Laurent,  A. M. Lee,  M. S. Lee,  S. V. Levchenko,  
 Ching Yeh Lin,  D. Liotard,  E. Livshits,  R. C. Lochan,  I. Lotan,  
 L. A. Martinez-Martinez,  P. E. Maslen,  N. Nair,  D. P. O'Neill,  
 D. Neuhauser,  E. Neuscamman,  C. M. Oana,  R. Olivares-Amaya,  R. Olson,  
 T. M. Perrine,  B. Peters,  P. A. Pieniazek,  A. Prociuk,  Y. M. Rhee,  
 J. Ritchie,  M. A. Rohrdanz,  E. Rosta,  N. J. Russ,  H. F. Schaefer III,  
 M. W. Schmidt,  N. E. Schultz,  S. Sharma,  N. Shenvi,  C. D. Sherrill,  
 A. C. Simmonett,  A. Sodt,  T. Stein,  D. Stuck,  K. S. Thanthiriwatte,  
 V. Vanovschi,  L. Vogt,  Tao Wang,  A. Warshel,  M. A. Watson,  
 C. F. Williams,  Q. Wu,  X. Xu,  Jun Yang,  W. Zhang,  Yan Zhao

 Please cite Q-Chem as follows:
 Y. Shao et al., Mol. Phys. 113, 184-215 (2015)
 DOI: 10.1080/00268976.2014.952696

 Q-Chem 5.4.1 for Intel X86 EM64T Linux

 Parts of Q-Chem use Armadillo 9.900.5 (Nocturnal Misbehaviour).
 http://arma.sourceforge.net/

 Q-Chem begins on Fri Jul  1 20:00:03 2022  

 Host: p09r14n09.grace.hpc.yale.internal
0

     Scratch files written to /home/tl686/scratch60/qchem_dev/scratch/qchem8646//
 Processing $rem in /home/tl686/qchem_dev/qchem/config/preferences:
 Processing $rem in /home/tl686/.qchemrc:
Applying user defined connections for MM calculations

 Checking the input file for inconsistencies... 	...done.

--------------------------------------------------------------
User input:
--------------------------------------------------------------
$molecule
0   1
 Fe 1118.37158496 41.36653658 -62.13261103    -1  0   0   0   0
C 1115.22290025 42.64417299 -62.35735464    -2  0   0   0   0 
C 1120.83781755 41.10611386 -64.49294973    -2  0   0   0   0
C 1119.63761064 44.44424928 -61.27460289    -2  0   0   0   0
C 1118.89778188 40.43988383 -59.00810657    -2  0   0   0   0
C 1117.53692588 38.23244718 -63.03967374    -2  0   0   0   0
O 1113.18213294 43.40274264 -61.91997869    -3  0   0   0   0
O 1122.51712012 40.44636833 -65.76707300    -3  0   0   0   0 
O 1120.37060631 46.48375629 -60.69643363    -3  0   0   0   0
O 1119.16288450 39.64343188 -56.98342181    -3  0   0   0   0 
O 1117.04247897 36.10935537 -63.36257581    -3  0   0   0   0
H 1115.25473521 64.66254678 -47.53818763      6     13    0    0    0 
C 1113.40955929 65.59107999 -47.70102168     1     12    14    15    16
H 1113.61361248 67.71328662 -47.37623598     6     13    0    0    0
H 1112.84508317 65.78908284 -49.71921265     6     13    0    0    0
C 1111.36980803 64.40842895 -46.03580569     2     13    17    18    19
H 1111.71174908 64.89811543 -44.07753495     6     16    0    0    0
H 1109.70547541 65.60435117 -46.62922940     6     16    0    0    0
C 1110.86115415 61.65503393 -46.37142560     2     16    20   21   22
H 1110.49242294 61.17931463 -48.36819760     6     19    0    0    0
H 1112.53595453 60.60529888 -45.93872090     6     19    0    0    0
C 1108.68810854 60.59610657 -44.76524806     2     19   23   24   25
H 1108.83302383 61.24810871 -42.81116444     6    22    0    0    0
H 1107.08706582 61.37582478 -45.72062975     6    22    0    0    0
C 1108.80810206 57.68904054 -45.09879366     2    22   26   27   28
H 1108.68659740 56.93860956 -47.05254962     6    25    0    0    0
H 1110.57476875 57.17361826 -44.34274921     6    25    0    0    0
C 1106.84946483 56.46591524 -43.29122002     2    25   29   30   31
H 1107.55370414 56.40594105 -41.36440148     6    28    0    0    0
H 1105.08127081 57.64599289 -43.17427995     6    28    0    0    0
C 1106.30761251 53.70131166 -44.10390633     2    28   32   33   34
H 1105.14325911 53.47602453 -45.67117291     6    31    0    0    0
H 1108.13177745 52.86994449 -44.58933726     6    31    0    0    0
C 1105.09312026 51.86867247 -41.93575961     2    31   35   36   37
H 1106.47714896 51.71990398 -40.27035151     6    34    0    0    0
H 1103.26092949 52.65487951 -41.13974777     6    34    0    0    0
C 1104.41327217 49.11595239 -42.54169359     2    34   38   39   40
H 1103.21482474 49.05255079 -44.26767899     6    37    0    0    0
H 1106.18193959 48.25428979 -43.13176334     6    37    0    0    0
C 1103.45796213 47.70920243 -40.06423166     2    37   41   42   43
H 1104.68073175 48.18519170 -38.50452178     6    40    0    0    0
H 1101.73714565 48.52993249 -39.36346559     6    40    0    0    0
C 1102.86737569 44.90938523 -40.37247032     2    40   44   45   46
H 1101.58091581 44.70656195 -41.96958045     6    43    0    0    0
H 1104.69077560 43.94113599 -40.66958333     6    43    0    0    0
C 1101.72834228 43.62194545 -38.03218808     1    43   47   48   49
H 1103.08271555 42.70913642 -36.71739024     6    46    0    0    0
H 1100.15943628 42.13926600 -38.55295408     6    46    0    0    0
H 1100.73487313 45.07606014 -36.81472785     6    46    0    0    0
H 1110.94797048 35.43302880 -52.22910768     6     51    0    0    0 
C 1111.74908025 37.20788223 -53.05475120     1     50    52    53    54
H 1113.72263396 37.39755448 -52.21783524     6     51    0    0    0
H 1112.12533094 36.67538869 -55.04192567     6     51    0    0    0
C 1110.28976019 39.49267389 -52.73177275     2     51    55    56    57
H 1111.04392479 41.03817733 -53.74121802     6     54    0    0    0
H 1108.45122063 39.20722320 -53.39109252     6     54    0    0    0
C 1110.40834678 40.33512568 -49.85243486     2     54    58   59   60
H 1112.25948169 40.69333365 -49.27475330     6     57    0    0    0
H 1109.43092785 42.05435531 -49.70622565     6     57    0    0    0
C 1108.95280778 38.46199593 -48.14135360     2     57   61   62   63
H 1106.95845555 38.92028170 -48.14165180     6    60    0    0    0
H 1109.24521673 36.62488141 -48.83184630     6    60    0    0    0
C 1109.74399439 38.63899976 -45.35641322     2    60   64   65   66
H 1111.72232852 38.09724307 -45.14402700     6    63    0    0    0
H 1109.44267530 40.57870071 -44.81233334     6    63    0    0    0
C 1108.10321898 37.00195182 -43.54800636     2    63   67   68   69
H 1108.94083942 37.17260352 -41.78478873     6    66    0    0    0
H 1106.15361181 37.47015706 -43.27432809     6    66    0    0    0
C 1108.31590594 34.10678655 -43.84059203     2    66   70   71   72
H 1108.15690297 33.52775754 -45.87247782     6    69    0    0    0
H 1110.06987610 33.44752923 -43.01450647     6    69    0    0    0
C 1106.10661917 32.81615666 -42.41518856     2    69   73   74   75
H 1106.21271430 33.31427209 -40.36700761     6    72    0    0    0
H 1104.15993153 33.40710915 -42.92703933     6    72    0    0    0
C 1106.31632091 29.98716134 -42.87089887     2    72   76   77   78
H 1106.47259056 29.61007017 -44.92117617     6    75    0    0    0
H 1108.00789047 29.03600654 -41.99784764     6    75    0    0    0
C 1103.93750160 28.50672835 -42.04836068     2    75   79   80   81
H 1103.92097781 28.05363349 -40.03177686     6    78    0    0    0
H 1102.37337354 29.77596478 -42.38047097     6    78    0    0    0
C 1103.26956799 26.16889442 -43.66038219     2    78   82   83   84
H 1102.16714497 26.63956566 -45.37338937     6    81    0    0    0
H 1104.94747456 25.13642368 -44.44220414     6    81    0    0    0
C 1101.56609655 24.32136711 -41.95577364     1    81   85   86   87
H 1102.84522093 23.58117157 -40.69888410     6    84    0    0    0
H 1100.73317559 22.69016047 -42.83838116     6    84    0    0    0
H 1100.05337834 25.29329668 -41.01998423     6    84    0    0    0
H 1126.59708693 64.02148094 -33.52620598     6     89    0    0    0 
C 1125.98145465 62.13985067 -34.28448575     1     88    90    91    92
H 1124.70233795 62.55442902 -35.82380226     6     89    0    0    0
H 1127.44081501 60.86342740 -34.84484525     6     89    0    0    0
C 1124.39362689 60.84805721 -32.15594210     2     89    93    94    95
H 1125.48624786 60.31202797 -30.50422367     6     92    0    0    0
H 1122.87955354 62.12714654 -31.83943973     6     92    0    0    0
C 1123.09222161 58.32948252 -32.98040297     2     92    96   97   98
H 1122.07564277 58.62968503 -34.77049740     6     95    0    0    0
H 1124.50705013 56.87935241 -33.52524773     6     95    0    0    0
C 1121.42848562 57.33580746 -30.71150472     2     95   99   100   101
H 1122.58662877 57.66404491 -29.15743018     6    98    0    0    0
H 1119.88722041 58.63145512 -30.55030900     6    98    0    0    0
C 1120.40157303 54.71534135 -31.08447949     2    98   102   103   104
H 1119.82042825 54.41615718 -33.02658184     6    101    0    0    0
H 1121.95414220 53.40376678 -30.85627411     6    101    0    0    0
C 1118.17712901 54.08031307 -29.33283931     2    101   105   106   107
H 1118.94640431 54.08532564 -27.44392599     6    104    0    0    0
H 1116.76739496 55.49661423 -29.31756523     6    104    0    0    0
C 1117.27029229 51.40727238 -29.84502675     2    104   108   109   110
H 1117.23403462 51.12105869 -31.82013636     6    107    0    0    0
H 1118.64070744 50.01756023 -29.12348850     6    107    0    0    0
C 1114.64244058 50.86198630 -28.63631224     2    107   111   112   113
H 1114.37285125 51.73423582 -26.76642918     6    110    0    0    0
H 1113.46152605 51.95763350 -29.89189308     6    110    0    0    0
C 1113.84385076 48.04379397 -28.68621272     2    110   114   115   116
H 1114.47505410 47.11509863 -30.49722459     6    113    0    0    0
H 1114.95071706 46.93044574 -27.21243961     6    113    0    0    0
C 1110.95576852 47.51100596 -28.40832464     2    113   117   118   119
H 1110.34190994 47.97929811 -26.53883622     6    116    0    0    0
H 1109.95235741 48.88196359 -29.62167764     6    116    0    0    0
C 1110.30481432 44.61727136 -28.85667945     2    116   120   121   122
H 1108.43269942 44.16491194 -29.44562322     6    119    0    0    0
H 1111.36681368 44.24082089 -30.44773259     6    119    0    0    0
C 1111.45513992 42.90175400 -26.75240284     1    119   123   124   125
H 1110.75971780 40.96868534 -27.11508569     6    122    0    0    0
H 1110.94781694 43.34842285 -24.85278459     6    122    0    0    0
H 1113.40545417 43.07016226 -26.68502091     6    122    0    0    0
H 1145.02410813 49.72042334 -43.23859506     6     127    0    0    0 
C 1143.36486426 48.86208564 -44.14702270     1     126    128    129    130
H 1143.68943069 46.96108592 -44.78888758     6     127    0    0    0
H 1142.00262249 48.21504120 -42.83583531     6     127    0    0    0
C 1142.30371222 50.44158340 -46.23029376     2     127    131    132    133
H 1142.24160176 52.42521207 -45.56994706     6     130    0    0    0
H 1143.48487774 50.39785560 -47.91391379     6     130    0    0    0
C 1139.69123385 49.57124256 -47.14769137     2     130    134   135   136
H 1139.89080579 47.56507041 -47.26355800     6     133    0    0    0
H 1138.31920296 49.72285511 -45.62982697     6     133    0    0    0
C 1138.89331128 50.89709229 -49.50724315     2     133   137   138   139
H 1138.48884755 52.91957398 -49.01625691     6    136    0    0    0
H 1140.24077805 51.12510061 -51.02075224     6    136    0    0    0
C 1136.34356393 49.91522030 -50.71467774     2    136   140   141   142
H 1136.47469608 47.85839320 -51.28268944     6    139    0    0    0
H 1134.82722388 50.02414213 -49.31035393     6    139    0    0    0
C 1135.86612450 51.50950926 -53.04704113     2    139   143   144   145
H 1136.03607642 53.60684392 -52.45321844     6    142    0    0    0
H 1137.62623647 51.55093158 -54.31503427     6    142    0    0    0
C 1133.59997677 50.47722661 -54.64690567     2    142   146   147   148
H 1134.37356215 48.53646227 -55.14934897     6    145    0    0    0
H 1132.06501216 50.21233403 -53.38352729     6    145    0    0    0
C 1133.14154165 51.99817795 -57.05301320     2    145   149   150   151
H 1131.85416482 53.54087140 -56.47132449     6    148    0    0    0
H 1134.99922598 52.82928131 -57.56504303     6    148    0    0    0
C 1131.92451420 50.45491882 -59.15935554     2    148   152   153   154
H 1133.20172849 49.00479653 -59.95833495     6    151    0    0    0
H 1130.29537810 49.32022154 -58.51192761     6    151    0    0    0
C 1131.28516054 52.05685036 -61.41363011     2    151   155   156   157
H 1130.57273643 53.91000650 -61.10715340     6    154    0    0    0
H 1133.21084909 52.48994987 -62.15604131     6    154    0    0    0
C 1129.89457420 50.62084395 -63.54933181     2    154   158   159   160
H 1130.92751019 49.08668234 -64.37460717     6    157    0    0    0
H 1127.98997647 49.99642460 -63.02933552     6    157    0    0    0
C 1129.83419704 52.48401479 -65.65626044     1    157   161   162   163
H 1128.58538589 53.94929880 -65.07033161     6    160    0    0    0
H 1128.70898289 51.47289208 -67.25679430     6    160    0    0    0
H 1131.76328722 53.26457337 -66.12327884     6    160    0    0    0
H 1131.76067705 34.92996000 -22.34306232     6     165    0    0    0 
C 1133.63882316 34.16844917 -22.48199986     1     164    166    167    168
H 1134.77838975 35.45387602 -21.41429078     6     165    0    0    0
H 1133.90084359 32.22156103 -21.70998932     6     165    0    0    0
C 1134.45496862 33.87519373 -25.39698762     2     165    169    170    171
H 1133.03222233 33.11639253 -26.66210977     6     168    0    0    0
H 1134.49892893 35.81694158 -26.14046501     6     168    0    0    0
C 1137.02475036 32.76683245 -25.99813155     2     168    172   173   174
H 1138.30854097 33.70224300 -24.73044025     6     171    0    0    0
H 1137.14461800 30.70340844 -25.70535729     6     171    0    0    0
C 1137.90515136 33.00030160 -28.62883801     2     171   175   176   177
H 1136.91935589 31.85602568 -29.80600787     6    174    0    0    0
H 1137.81865433 35.15547621 -29.18129251     6    174    0    0    0
C 1140.71104490 32.24940476 -28.98617835     2    174   178   179   180
H 1141.94715918 33.77083586 -28.29169725     6    177    0    0    0
H 1141.39991350 30.61034759 -27.79798193     6    177    0    0    0
C 1141.30550323 31.95136744 -31.84572315     2    177   181   182   183
H 1140.19642293 30.53025197 -32.58218446     6    180    0    0    0
H 1140.61534723 33.71242450 -32.78159804     6    180    0    0    0
C 1144.04962876 32.26204517 -32.50172799     2    180   184   185   186
H 1144.40222180 34.07078749 -31.46879015     6    183    0    0    0
H 1145.25109040 30.78056591 -31.75838522     6    183    0    0    0
C 1144.66578014 32.62070330 -35.25460064     2    183   187   188   189
H 1143.88966781 31.10154878 -36.32075847     6    186    0    0    0
H 1143.68903719 34.28999663 -35.95883099     6    186    0    0    0
C 1147.39108305 33.11731664 -35.93694390     2    186   190   191   192
H 1148.31516102 34.57449573 -34.72527750     6    189    0    0    0
H 1148.50915228 31.49612645 -35.36613305     6    189    0    0    0
C 1148.11400932 33.59740924 -38.54887082     2    189   193   194   195
H 1147.33260619 32.07234897 -39.75857531     6    192    0    0    0
H 1147.39994178 35.39943337 -38.93984521     6    192    0    0    0
C 1150.96471972 33.38774640 -39.00831727     2    192   196   197   198
H 1151.75279190 34.97560205 -37.98904008     6    195    0    0    0
H 1151.98998626 31.78879212 -38.17058659     6    195    0    0    0
C 1151.80413566 33.62168154 -41.68754557     1    195   199   200   201
H 1153.80800029 33.73059190 -41.73863938     6    198    0    0    0
H 1151.52182999 35.58725488 -42.60314148     6    198    0    0    0
H 1150.91036043 32.29368218 -43.12073298     6    198    0    0    0
H 1131.01431072 27.92353806 -35.64403056     6     203    0    0    0 
C 1132.68738518 28.20464049 -34.52800483     1     202    204    205    206
H 1134.30679939 28.15658304 -35.82157208     6     203    0    0    0
H 1132.73714877 29.86731935 -33.31776321     6     203    0    0    0
C 1132.69955321 25.89359017 -32.91239305     2     203    207    208    209
H 1134.73077778 25.75452174 -32.31320657     6     206    0    0    0
H 1131.69892405 26.01631960 -31.08245023     6     206    0    0    0
C 1132.04232909 23.29389234 -34.45721442     2     206    210   211   212
H 1131.26354147 21.75223333 -33.22263371     6     209    0    0    0
H 1130.36257628 23.49873336 -35.60177535     6     209    0    0    0
C 1134.29391297 22.31389445 -36.02931449     2     209   213   214   215
H 1134.58506016 23.72718048 -37.68816384     6    212    0    0    0
H 1136.16797188 22.15668876 -35.15499026     6    212    0    0    0
C 1133.47168782 19.86774288 -37.38957027     2    212   216   217   218
H 1133.13101917 18.51208804 -35.93385441     6    215    0    0    0
H 1131.63642965 20.12935927 -38.27556777     6    215    0    0    0
C 1135.44222098 18.95813458 -39.34841478     2    215   219   220   221
H 1135.70527729 20.52237545 -40.63305543     6    218    0    0    0
H 1137.26315600 18.50836690 -38.66971962     6    218    0    0    0
C 1134.33892658 16.58677146 -40.84662102     2    218   222   223   224
H 1133.93519491 14.80964331 -39.78803772     6    221    0    0    0
H 1132.54091486 17.11539314 -41.79272561     6    221    0    0    0
C 1136.17198179 15.58773828 -42.84024413     2    221   225   226   227
H 1137.06084109 17.35385825 -43.63791458     6    224    0    0    0
H 1137.48510078 14.04970447 -42.12402881     6    224    0    0    0
C 1134.69064775 14.54778754 -45.21658986     2    224   228   229   230
H 1133.29315695 13.18481367 -44.63788642     6    227    0    0    0
H 1133.77895780 16.05321255 -46.16667138     6    227    0    0    0
C 1136.76956189 13.40221085 -47.08235227     2    227   231   232   233
H 1138.31530993 14.69086886 -47.54986992     6    230    0    0    0
H 1137.62246469 11.89538991 -45.92513964     6    230    0    0    0
C 1135.55126606 11.87881206 -49.22855824     2    230   234   235   236
H 1134.96845993 10.17633116 -48.18566089     6    233    0    0    0
H 1134.09700785 13.04253250 -50.13662220     6    233    0    0    0
C 1137.61485277 11.12535825 -51.15639678     1    233   237   238   239
H 1139.19147282 9.88936989 -50.28087457     6    236    0    0    0
H 1138.76795681 12.79020920 -51.60281806     6    236    0    0    0
H 1136.88303337 10.35941667 -52.93900224     6    236    0    0    0
H 1109.37267910 26.77293335 -34.98227110     6     241    0    0    0 
C 1109.28145669 28.34653852 -36.28271847     1     240    242    243    244
H 1111.00010219 29.18132870 -36.79735234     6     241    0    0    0
H 1108.49307438 27.54464503 -38.03936055     6     241    0    0    0
C 1107.34163624 30.10260210 -35.00693367     2     241    245    246    247
H 1108.46294143 31.27428999 -33.81050685     6     244    0    0    0
H 1106.49945116 31.31062936 -36.39056584     6     244    0    0    0
C 1105.36497614 28.53413738 -33.59910159     2     244    248   249   250
H 1104.44243335 27.45482762 -35.07759123     6     247    0    0    0
H 1106.28086501 27.25534488 -32.18988311     6     247    0    0    0
C 1103.30078420 30.00945801 -32.39637037     2     247   251   252   253
H 1104.14987895 31.30994369 -31.11837965     6    250    0    0    0
H 1102.03009950 31.13593544 -33.64372189     6    250    0    0    0
C 1101.48810496 28.49521440 -30.71587924     2    250   254   255   256
H 1102.67112896 27.49232263 -29.39003480     6    253    0    0    0
H 1100.63237893 29.81545767 -29.26555856     6    253    0    0    0
C 1099.36869205 27.01068807 -32.01128773     2    253   257   258   259
H 1098.31791231 26.22479717 -30.33449026     6    256    0    0    0
H 1098.14894598 28.29780030 -32.92866065     6    256    0    0    0
C 1100.31932688 24.86950862 -33.71202698     2    256   260   261   262
H 1100.68366794 25.95932902 -35.47024006     6    259    0    0    0
H 1102.09875706 24.00658773 -32.99437384     6    259    0    0    0
C 1098.10449934 22.94370294 -34.21232115     2    259   263   264   265
H 1097.68303707 21.91061475 -32.38463562     6    262    0    0    0
H 1096.39439590 24.05909581 -34.68651457     6    262    0    0    0
C 1098.87012259 20.85157850 -36.20095276     2    262   266   267   268
H 1099.24086647 21.89803384 -37.95867320     6    265    0    0    0
H 1100.66057602 19.98479273 -35.58333919     6    265    0    0    0
C 1096.78125984 19.12428561 -36.88130520     2    265   269   270   271
H 1096.31395731 18.02737276 -35.18331857     6    268    0    0    0
H 1094.92222514 20.06084462 -37.31494494     6    268    0    0    0
C 1097.48003004 17.44624862 -39.03757532     2    268   272   273   274
H 1097.51320955 18.37263462 -40.88800198     6    271    0    0    0
H 1099.36550220 16.68238475 -38.63477337     6    271    0    0    0
C 1095.91917122 15.13840021 -39.39307594     1    271   275   276   277
H 1096.08204276 13.72067781 -37.97988300     6    274    0    0    0
H 1096.45704918 14.21318151 -41.08155902     6    274    0    0    0
H 1093.98889913 15.64651765 -39.68695738     6    274    0    0    0
H 1130.69850286 43.97245156 -29.28233977     6     279    0    0    0 
C 1129.00376661 42.82619236 -28.83680306     1     278    280    281    282
H 1129.10222929 42.75233872 -26.78152305     6     279    0    0    0
H 1127.21742517 43.87416859 -29.11328088     6     279    0    0    0
C 1129.13932468 40.43865390 -30.37252260     2     279    283    284    285
H 1129.46893287 40.91407782 -32.41909392     6     282    0    0    0
H 1130.66599600 39.44474287 -29.44625169     6     282    0    0    0
C 1126.76576490 38.74202890 -30.19608683     2     282    286   287   288
H 1127.20558516 37.95172098 -28.39372481     6     285    0    0    0
H 1125.05379904 39.79323349 -29.93697403     6     285    0    0    0
C 1126.75823673 36.74130492 -32.25616074     2     285   289   290   291
H 1126.20433992 37.56569133 -34.05181418     6    288    0    0    0
H 1128.64928977 36.09799327 -32.63809051     6    288    0    0    0
C 1124.90819320 34.53334600 -31.74181213     2    288   292   293   294
H 1125.21619045 33.97739120 -29.79672998     6    291    0    0    0
H 1122.89730412 35.06042844 -31.63905167     6    291    0    0    0
C 1125.18260258 32.14369003 -33.34064046     2    291   295   296   297
H 1124.59827990 32.50043360 -35.30034543     6    294    0    0    0
H 1127.10899988 31.61172604 -33.38101342     6    294    0    0    0
C 1123.31000111 30.14792133 -32.43517599     2    294   298   299   300
H 1123.59083781 29.88711575 -30.32635692     6    297    0    0    0
H 1121.44184669 31.02941088 -32.66416501     6    297    0    0    0
C 1123.73202477 27.74223704 -33.98644782     2    297   301   302   303
H 1122.87587390 28.04321353 -35.85662969     6    300    0    0    0
H 1125.73446553 27.37839232 -34.30868686     6    300    0    0    0
C 1122.41040557 25.36738477 -32.90968641     2    300   304   305   306
H 1123.44327491 25.01336344 -31.11347302     6    303    0    0    0
H 1120.36877693 25.72050141 -32.77855506     6    303    0    0    0
C 1122.74428843 23.04422977 -34.57195081     2    303   307   308   309
H 1122.33606808 23.75126102 -36.44799291     6    306    0    0    0
H 1124.75932891 22.52589363 -34.81046764     6    306    0    0    0
C 1121.03284429 20.72047215 -33.90313372     2    306   310   311   312
H 1122.18071221 19.56826327 -32.58815742     6    309    0    0    0
H 1119.35929754 21.45389195 -32.99945347     6    309    0    0    0
C 1120.43360539 19.22493416 -36.22450747     1    309   313   314   315
H 1119.69027974 20.45934233 -37.57461017     6    312    0    0    0
H 1119.10539273 17.71953024 -35.76349050     6    312    0    0    0
H 1122.00110834 18.21875884 -37.20044155     6    312    0    0    0
H 1123.13958692 46.11251395 -46.92032080     6     317    0    0    0 
C 1122.53896465 48.03602087 -46.50479865     1     316    318    319    320
H 1120.94485274 48.38474083 -47.63621447     6     317    0    0    0
H 1122.16014798 48.32515755 -44.41306718     6     317    0    0    0
C 1124.76992237 49.70127653 -47.20411424     2     317    321    322    323
H 1124.38618964 51.34757283 -46.11034162     6     320    0    0    0
H 1126.64790273 49.05450659 -46.26908975     6     320    0    0    0
C 1124.87826965 50.24612619 -50.16652783     2     320    324   325   326
H 1125.43707592 48.64923152 -51.21768570     6     323    0    0    0
H 1122.93199532 50.62668295 -50.88022959     6     323    0    0    0
C 1126.61057674 52.27339103 -51.00919181     2     323   327   328   329
H 1125.91747499 54.08232000 -50.17921208     6    326    0    0    0
H 1128.60102651 52.06945667 -50.28964168     6    326    0    0    0
C 1126.85948499 52.62130474 -53.87547740     2    326   330   331   332
H 1128.39858285 54.08035581 -53.98184262     6    329    0    0    0
H 1127.56785356 50.80178439 -54.63179890     6    329    0    0    0
C 1124.44442671 53.18321254 -55.21051119     2    329   333   334   335
H 1123.19072136 51.75358022 -54.71995536     6    332    0    0    0
H 1123.37649718 54.92228691 -54.83404544     6    332    0    0    0
C 1124.69381541 53.02765888 -58.26274308     2    332   336   337   338
H 1125.77889657 54.55753656 -58.86130079     6    335    0    0    0
H 1125.73084413 51.40798873 -58.99593889     6    335    0    0    0
C 1122.01478460 53.40074463 -59.58701579     2    335   339   340   341
H 1120.66158850 52.03007068 -59.11102019     6    338    0    0    0
H 1121.17730789 55.21332235 -58.84154537     6    338    0    0    0
C 1122.22731970 53.50962121 -62.47874503     2    338   342   343   344
H 1123.44083768 55.28730966 -62.96471163     6    341    0    0    0
H 1123.32519700 51.85593360 -63.17153989     6    341    0    0    0
C 1119.65354132 53.63062673 -63.87011285     2    341   345   346   347
H 1119.87559807 52.26211564 -65.54702325     6    344    0    0    0
H 1118.23878542 52.93427546 -62.51313977     6    344    0    0    0
C 1118.87373175 56.18720976 -65.02840293     2    344   348   349   350
H 1118.60978516 57.56247383 -63.51588775     6    347    0    0    0
H 1120.30389658 56.98639161 -66.10100304     6    347    0    0    0
C 1116.35917028 55.62196487 -66.31798782     1    347   351   352   353
H 1115.61742962 57.30645200 -67.27561414     6    350    0    0    0
H 1114.99850677 55.27538687 -64.63229340     6    350    0    0    0
H 1116.34297764 54.07824943 -67.59206610     6    350    0    0    0
H 1113.69146181 33.42529890 -38.74862071     6     355    0    0    0 
C 1114.42057783 34.20962576 -36.86354744     1     354    356    357    358
H 1113.61869109 36.02658339 -36.36596292     6     355    0    0    0
H 1113.88076922 32.91979003 -35.35896090     6     355    0    0    0
C 1117.37095069 34.49907187 -36.81106136     2     355    359    360    361
H 1117.97357193 35.23765925 -35.02982069     6     358    0    0    0
H 1118.36304803 32.67553521 -37.07841629     6     358    0    0    0
C 1118.54584716 36.43723695 -38.62901933     2     358    362   363   364
H 1118.10282252 35.84245083 -40.52347573     6     361    0    0    0
H 1117.53966383 38.24106747 -38.03674507     6     361    0    0    0
C 1121.34939042 37.12164550 -37.97379792     2     361   365   366   367
H 1121.17655487 37.37698973 -35.91254084     6    364    0    0    0
H 1122.62330338 35.62878449 -38.66406633     6    364    0    0    0
C 1122.14014298 39.66009362 -39.27122436     2    364   368   369   370
H 1121.37615492 39.76464368 -41.13979621     6    367    0    0    0
H 1121.18766327 41.20919449 -38.31043986     6    367    0    0    0
C 1125.04475175 40.28862834 -39.42915131     2    367   371   372   373
H 1125.81251914 40.52354012 -37.53517300     6    370    0    0    0
H 1126.05924408 38.53454685 -40.11016679     6    370    0    0    0
C 1125.74810092 42.71809383 -40.94691603     2    370   374   375   376
H 1124.77704746 42.76439438 -42.82429894     6    373    0    0    0
H 1125.18344777 44.31211465 -39.89328665     6    373    0    0    0
C 1128.53831248 42.77764806 -41.55388234     2    373   377   378   379
H 1129.51271089 42.69725043 -39.74359041     6    376    0    0    0
H 1129.21663906 41.05828863 -42.38907958     6    376    0    0    0
C 1129.01793991 44.94858338 -43.37155359     2    376   380   381   382
H 1127.98386443 44.64617399 -45.17978142     6    379    0    0    0
H 1128.19640647 46.59400768 -42.49683579     6    379    0    0    0
C 1131.93941643 45.23565807 -43.78527784     2    379   383   384   385
H 1132.86962899 44.96486280 -42.04486316     6    382    0    0    0
H 1132.34129763 43.58374970 -45.06829231     6    382    0    0    0
C 1132.43515569 47.92670185 -44.79598757     2    382   386   387   388
H 1134.49392125 47.91001042 -45.04007344     6    385    0    0    0
H 1131.37591011 48.45986797 -46.59025847     6    385    0    0    0
C 1132.03047606 50.06926548 -42.78483492     1    385   389   390   391
H 1132.78225843 49.69832041 -40.91724444     6    388    0    0    0
H 1130.13978569 50.95706252 -42.72957704     6    388    0    0    0
H 1133.06685061 51.72923885 -43.42477551     6    388    0    0    0
H 1115.49105545 41.41153114 -87.18009619     6     393    0    0    0 
C 1115.33381243 40.57571709 -85.30910581     1     392    394    395    396
H 1114.59277021 38.73477128 -85.68163374     6     393    0    0    0
H 1117.27056077 40.37384503 -84.66199549     6     393    0    0    0
C 1113.71525431 42.15740966 -83.47191423     2     393    397    398    399
H 1114.82880955 43.18795697 -82.09787326     6     396    0    0    0
H 1112.54365816 43.46752382 -84.50852856     6     396    0    0    0
C 1111.93731318 40.38704034 -82.14495457     2     396    400   401   402
H 1110.65791344 39.56505566 -83.46683752     6     399    0    0    0
H 1113.10536268 38.71870308 -81.36331282     6     399    0    0    0
C 1110.37991095 41.40923478 -79.95541820     2     399   403   404   405
H 1111.62625881 42.25099354 -78.56680771     6    402    0    0    0
H 1109.28170700 43.05623800 -80.63148032     6    402    0    0    0
C 1108.77402884 39.26150256 -78.95106125     2    402   406   407   408
H 1107.75130961 38.10156995 -80.37916367     6    405    0    0    0
H 1110.11331594 38.08246317 -77.95372225     6    405    0    0    0
C 1106.84608879 40.17983423 -77.06297059     2    405   409   410   411
H 1107.87358250 41.45702805 -75.77523488     6    408    0    0    0
H 1105.39968785 41.37756787 -77.85867580     6    408    0    0    0
C 1105.98324706 37.88384094 -75.47036169     2    408   412   413   414
H 1105.03873255 36.48119531 -76.54624938     6    411    0    0    0
H 1107.57272843 36.89526228 -74.67152759     6    411    0    0    0
C 1104.23282311 38.81577263 -73.38231935     2    411   415   416   417
H 1105.16336637 40.08486226 -72.05921171     6    414    0    0    0
H 1102.58454900 39.88392065 -73.93077516     6    414    0    0    0
C 1103.58151744 36.60005022 -71.61383693     2    414   418   419   420
H 1102.77266031 34.99152163 -72.69528345     6    417    0    0    0
H 1105.26839999 35.79454540 -70.82376533     6    417    0    0    0
C 1101.75986535 37.39326830 -69.46701744     2    417   421   422   423
H 1102.44938653 39.11516396 -68.55522732     6    420    0    0    0
H 1099.96623749 37.99424102 -70.34820496     6    420    0    0    0
C 1101.24415584 35.21566943 -67.59513348     2    420   424   425   426
H 1100.52428930 36.09458617 -65.87552382     6    423    0    0    0
H 1099.42635841 34.24657837 -68.08718621     6    423    0    0    0
C 1103.28400021 32.97745247 -67.16376562     1    423   427   428   429
H 1103.31513927 32.48449421 -65.23136749     6    426    0    0    0
H 1105.19340637 33.47826736 -67.63987166     6    426    0    0    0
H 1102.85111649 31.25027846 -68.13843098     6    426    0    0    0
H 1091.74778035 48.74216085 -56.25593598     6     431    0    0    0 
C 1093.71237001 49.04339137 -56.32827128     1     430    432    433    434
H 1094.00812912 50.80275187 -55.17032611     6     431    0    0    0
H 1095.04402243 47.76254749 -55.52149882     6     431    0    0    0
C 1094.87920453 49.24993263 -58.94611320     2     431    435    436    437
H 1094.90373052 47.43177141 -59.97798119     6     434    0    0    0
H 1093.42484273 50.25895188 -59.91911055     6     434    0    0    0
C 1097.42628864 50.56511793 -58.94168651     2     434    438   439   440
H 1097.40299559 52.23018388 -57.63947261     6     437    0    0    0
H 1098.96459675 49.49884702 -58.17145248     6     437    0    0    0
C 1098.64990338 51.31863670 -61.34433494     2     437   441   442   443
H 1100.50478985 52.05947387 -60.80325787     6    440    0    0    0
H 1098.98858843 49.62365784 -62.50824808     6    440    0    0    0
C 1097.16300346 53.46061612 -62.70909307     2    440   444   445   446
H 1095.24437768 52.96000646 -62.97868266     6    443    0    0    0
H 1097.08049520 55.08014538 -61.55465671     6    443    0    0    0
C 1098.32624208 54.13825165 -65.39847805     2    443   447   448   449
H 1099.82740107 55.54728694 -65.29494547     6    446    0    0    0
H 1099.16283506 52.48844922 -66.04138232     6    446    0    0    0
C 1096.28478580 55.23036792 -67.23654344     2    446   450   451   452
H 1094.81599555 53.85730991 -67.36096485     6    449    0    0    0
H 1095.72946008 57.08362280 -66.71970714     6    449    0    0    0
C 1097.21845368 55.43683409 -70.03058421     2    449   453   454   455
H 1096.19965157 56.93088533 -70.95643484     6    452    0    0    0
H 1099.10946561 56.31294001 -70.15972543     6    452    0    0    0
C 1097.18610541 52.98155698 -71.46888348     2    452   456   457   458
H 1098.20578481 51.62531651 -70.36486497     6    455    0    0    0
H 1095.27199223 52.25841957 -71.96681099     6    455    0    0    0
C 1098.51429279 52.97035277 -74.01056111     2    455   459   460   461
H 1098.56313329 51.02806444 -74.80004761     6    458    0    0    0
H 1097.66048803 54.10985119 -75.44089266     6    458    0    0    0
C 1101.34924606 53.67490293 -73.89319090     2    458   462   463   464
H 1101.55557555 55.80756279 -73.80083851     6    461    0    0    0
H 1102.10225735 52.82714246 -72.19634716     6    461    0    0    0
C 1102.84210569 52.79505861 -76.23971387     1    461   465   466   467
H 1102.80071869 54.15605909 -77.67222827     6    464    0    0    0
H 1102.30310779 51.02521235 -77.09295861     6    464    0    0    0
H 1104.86971119 52.78302741 -75.86155807     6    464    0    0    0
H 1126.06510546 49.87838210 -37.13238972     6     469    0    0    0 
C 1124.43776051 50.93488927 -36.53134374     1     468    470    471    472
H 1124.72801228 51.54120766 -34.55794673     6     469    0    0    0
H 1124.36678903 52.44931491 -37.82177368     6     469    0    0    0
C 1122.07769024 49.27002768 -36.53426202     2     469    473    474    475
H 1120.45268348 50.26001742 -35.96219839     6     472    0    0    0
H 1121.72229919 48.75662792 -38.52487048     6     472    0    0    0
C 1122.39392034 46.87353110 -34.67736821     2     472    476   477   478
H 1123.86295920 45.53750951 -35.25169378     6     475    0    0    0
H 1123.33448584 47.71889687 -32.95541756     6     475    0    0    0
C 1119.99442216 45.71788905 -33.93290529     2     475   479   480   481
H 1118.72974532 47.15392584 -33.13729692     6    478    0    0    0
H 1118.83576647 45.06729802 -35.55881789     6    478    0    0    0
C 1120.25826260 43.53764836 -32.03838864     2    478   482   483   484
H 1121.69083104 42.20863579 -32.46832916     6    481    0    0    0
H 1120.82471336 44.43085860 -30.34028923     6    481    0    0    0
C 1117.74796454 42.16976617 -31.52292276     2    481   485   486   487
H 1116.52881556 43.47333590 -30.48665774     6    484    0    0    0
H 1116.79927038 41.51174662 -33.28748551     6    484    0    0    0
C 1117.84597404 39.61618174 -30.15539763     2    484   488   489   490
H 1118.90135584 38.19050837 -31.11540924     6    487    0    0    0
H 1118.72172462 39.75583054 -28.18523647     6    487    0    0    0
C 1114.99444319 38.47746105 -30.03652270     2    487   491   492   493
H 1113.82897076 40.16265872 -29.65783752     6    490    0    0    0
H 1114.77830605 37.54965709 -31.84871273     6    490    0    0    0
C 1114.67415407 36.39372863 -28.07070759     2    490   494   495   496
H 1116.48693326 35.44835548 -27.86998403     6    493    0    0    0
H 1114.11679807 37.23759309 -26.32163572     6    493    0    0    0
C 1112.78584639 34.41135620 -28.91383166     2    493   497   498   499
H 1110.87300604 35.06675572 -28.79632161     6    496    0    0    0
H 1113.08889646 34.11870488 -30.85283083     6    496    0    0    0
C 1112.84352083 31.86868945 -27.44999064     2    496   500   501   502
H 1114.54656459 31.02086565 -27.07812264     6    499    0    0    0
H 1111.89187717 32.33254153 -25.67258592     6    499    0    0    0
C 1111.40786808 29.87092943 -28.90690835     1    499   503   504   505
H 1111.73593173 28.04178576 -27.95060605     6    502    0    0    0
H 1111.99501402 29.56594004 -30.83185664     6    502    0    0    0
H 1109.34694943 30.26009507 -28.79599606     6    502    0    0    0
H 1088.26693549 40.94074028 -49.36998456     6     507    0    0    0 
C 1089.82249286 39.74465095 -48.75476317     1     506    508    509    510
H 1091.27319803 41.01159473 -47.90931509     6     507    0    0    0
H 1089.24806104 38.34182877 -47.21053609     6     507    0    0    0
C 1090.99814473 38.28282938 -51.08968403     2     507    511    512    513
H 1092.48973628 37.00205834 -50.54130919     6     510    0    0    0
H 1089.71195833 36.84310223 -51.81332369     6     510    0    0    0
C 1091.76762813 40.00254026 -53.18345902     2     510    514   515   516
H 1090.15691668 41.23744044 -53.71313449     6     513    0    0    0
H 1093.29869812 41.13190985 -52.59416754     6     513    0    0    0
C 1092.56557865 38.45957548 -55.48962909     2     513   517   518   519
H 1093.74847535 36.79917835 -54.91455365     6    516    0    0    0
H 1090.96339619 37.49417220 -56.32347201     6    516    0    0    0
C 1093.90010887 40.03842342 -57.70038090     2    516   520   521   522
H 1092.81511981 41.86372499 -57.72792644     6    519    0    0    0
H 1095.62061921 40.72381449 -56.84750251     6    519    0    0    0
C 1093.86967517 38.88879768 -60.41640368     2    519   523   524   525
H 1094.48564516 36.92743405 -60.19612435     6    522    0    0    0
H 1091.87827817 38.79427378 -60.93460683     6    522    0    0    0
C 1095.49360706 40.66445603 -62.06754705     2    522   526   527   528
H 1094.83828738 42.60065567 -61.82457612     6    525    0    0    0
H 1097.48187828 40.78468576 -61.59761909     6    525    0    0    0
C 1095.25353643 40.19453678 -64.89215305     2    525   529   530   531
H 1095.53377063 38.13621708 -65.28325993     6    528    0    0    0
H 1093.26018077 40.76732748 -65.35302726     6    528    0    0    0
C 1096.95640711 41.86860649 -66.55135075     2    528   532   533   534
H 1096.67080245 43.75387424 -65.78867999     6    531    0    0    0
H 1099.09723671 41.49464080 -66.45466758     6    531    0    0    0
C 1096.10836217 41.78646003 -69.27405908     2    531   535   536   537
H 1096.32533710 39.88930866 -69.98942008     6    534    0    0    0
H 1094.13039043 42.22374081 -69.34205905     6    534    0    0    0
C 1097.40919753 43.41479206 -71.15891303     2    534   538   539   540
H 1097.14519102 45.50846241 -71.05412996     6    537    0    0    0
H 1099.37630120 43.24208928 -70.44355566     6    537    0    0    0
C 1097.19154017 42.56177841 -73.84674683     1    537   541   542   543
H 1098.42353179 43.69289219 -75.09937478     6    540    0    0    0
H 1095.26635358 42.90516169 -74.39203922     6    540    0    0    0
H 1097.35604132 40.59865340 -74.41318744     6    540    0    0    0
H 1112.15239941 47.83692853 -66.88010504     6     545    0    0    0 
C 1113.45688918 46.45864554 -67.88804415     1     544    546    547    548
H 1113.11996317 44.66167614 -66.85945558     6     545    0    0    0
H 1112.80425156 46.44881680 -69.77747547     6     545    0    0    0
C 1116.06824630 47.54755752 -67.41918079     2     545    549    550    551
H 1116.10320455 49.63311010 -67.77118415     6     548    0    0    0
H 1116.54677099 47.31650111 -65.46207079     6     548    0    0    0
C 1118.11830122 46.20587716 -69.06013656     2     548    552   553   554
H 1118.07141969 44.15233833 -68.85240078     6     551    0    0    0
H 1117.50086327 46.72241062 -71.04520279     6     551    0    0    0
C 1120.79287366 47.30233128 -68.70979357     2     551   555   556   557
H 1120.91273035 49.25831883 -69.43334198     6    554    0    0    0
H 1121.05828193 47.44746545 -66.64284109     6    554    0    0    0
C 1123.13874388 45.74138843 -69.52094861     2    554   558   559   560
H 1123.09332078 44.05637403 -68.50722843     6    557    0    0    0
H 1122.93697183 45.44038157 -71.51332408     6    557    0    0    0
C 1125.88225254 46.90472661 -69.09436656     2    557   561   562   563
H 1125.76522451 48.78979943 -69.79137036     6    560    0    0    0
H 1126.40040048 47.14718893 -67.09410940     6    560    0    0    0
C 1127.87996100 45.25475331 -70.52357385     2    560   564   565   566
H 1127.29757242 43.31097823 -70.22369359     6    563    0    0    0
H 1127.84082080 45.65610577 -72.48348453     6    563    0    0    0
C 1130.48782598 45.78749783 -69.38080072     2    563   567   568   569
H 1130.81263719 47.87030082 -69.09146235     6    566    0    0    0
H 1130.68900588 45.29455233 -67.44388959     6    566    0    0    0
C 1132.53866466 44.56706909 -70.82775062     2    566   570   571   572
H 1132.34254888 42.74822776 -69.89695892     6    569    0    0    0
H 1132.29409050 44.54986156 -72.74747019     6    569    0    0    0
C 1135.06706494 46.08013088 -70.39305848     2    569   573   574   575
H 1134.97261804 47.91413858 -71.23592040     6    572    0    0    0
H 1135.36355599 46.50455246 -68.45309367     6    572    0    0    0
C 1137.31514491 44.64325331 -71.27340352     2    572   576   577   578
H 1137.65368174 44.69202645 -73.41707266     6    575    0    0    0
H 1138.89246626 45.75322407 -70.67388390     6    575    0    0    0
C 1137.71068379 41.92060426 -70.22072790     1    575   579   580   581
H 1136.42191733 40.55190681 -71.05651385     6    578    0    0    0
H 1137.90890462 42.04918200 -68.24509124     6    578    0    0    0
H 1139.60028190 41.22010702 -70.88055712     6    578    0    0    0
H 1131.62069931 38.27375011 -35.47559896     6     583    0    0    0 
C 1132.63867446 36.66583028 -35.96152521     1     582    584    585    586
H 1132.88170801 35.70990959 -34.05909404     6     583    0    0    0
H 1131.35101705 35.45644896 -36.97296551     6     583    0    0    0
C 1135.06291976 37.37125243 -37.47516256     2     583    587    588    589
H 1134.57542735 38.81548460 -38.82376978     6     586    0    0    0
H 1136.41992875 38.47177930 -36.23479927     6     586    0    0    0
C 1136.36781854 35.17583929 -38.77507180     2     586    590   591   592
H 1136.64799552 33.54723142 -37.44445058     6     589    0    0    0
H 1134.84350585 34.47190295 -40.02321693     6     589    0    0    0
C 1138.53839017 36.36250455 -40.41821079     2     589   593   594   595
H 1137.64367745 37.59077338 -41.81346293     6    592    0    0    0
H 1139.66029739 37.64138759 -39.16909814     6    592    0    0    0
C 1140.28718748 34.32556961 -41.30881808     2    592   596   597   598
H 1140.85592321 33.14886087 -39.67446700     6    595    0    0    0
H 1139.38057697 32.88541583 -42.48822421     6    595    0    0    0
C 1142.56191009 35.41126581 -42.82638413     2    595   599   600   601
H 1143.50885788 36.56514941 -41.41477191     6    598    0    0    0
H 1143.66267804 33.73247432 -43.42189186     6    598    0    0    0
C 1141.92849202 36.92584755 -45.25464769     2    598   602   603   604
H 1140.96966887 35.60256130 -46.45960286     6    601    0    0    0
H 1140.74097208 38.51234430 -44.79513856     6    601    0    0    0
C 1144.24363254 38.16152132 -46.53834784     2    601   605   606   607
H 1145.37230826 39.26981414 -45.19688770     6    604    0    0    0
H 1145.62139862 36.79224461 -47.20711709     6    604    0    0    0
C 1143.50280802 39.60323847 -48.83794058     2    604   608   609   610
H 1142.07454561 38.57118812 -49.98499831     6    607    0    0    0
H 1142.86371541 41.34476216 -47.94998616     6    607    0    0    0
C 1145.74555121 40.00961096 -50.61857494     2    607   611   612   613
H 1147.18967424 40.77367549 -49.47115797     6    610    0    0    0
H 1146.50107681 38.20283058 -51.41010503     6    610    0    0    0
C 1145.36762331 41.69992328 -52.91201348     2    610   614   615   616
H 1144.20598666 40.63904325 -54.31953789     6    613    0    0    0
H 1144.34677371 43.31630159 -52.36708797     6    613    0    0    0
C 1147.88249300 42.45128069 -54.13228632     1    613   617   618   619
H 1147.70313553 44.05399537 -55.16252263     6    616    0    0    0
H 1148.64090603 41.10263929 -55.54192955     6    616    0    0    0
H 1149.30596648 42.85587866 -52.69197051     6    616    0    0    0
H 1119.90401902 24.95111452 -66.61089432     6     621    0    0    0 
C 1118.43152883 24.07405350 -65.48714021     1     620    622    623    624
H 1117.94727285 25.47599125 -63.99863365     6     621    0    0    0
H 1116.79964107 24.07447491 -66.65176888     6     621    0    0    0
C 1119.30764945 21.48421132 -64.30256595     2     621    625    626    627
H 1117.82493664 21.07544329 -63.10729373     6     624    0    0    0
H 1119.23267677 20.05679390 -65.90568770     6     624    0    0    0
C 1121.93778494 21.49330824 -62.98793541     2     624    628   629   630
H 1123.38555080 21.92033122 -64.35125571     6     627    0    0    0
H 1121.83219652 22.81010658 -61.64011078     6     627    0    0    0
C 1122.40667102 18.89851208 -61.52618238     2     627   631   632   633
H 1124.00675121 19.15116699 -60.20860848     6    630    0    0    0
H 1120.50472412 18.34348933 -60.65978513     6    630    0    0    0
C 1123.12329076 16.86949122 -63.38161883     2    630   634   635   636
H 1121.64400950 16.68969094 -64.71163048     6    633    0    0    0
H 1124.76338524 17.31063015 -64.54405589     6    633    0    0    0
C 1123.82122294 14.41633137 -61.98150008     2    633   637   638   639
H 1125.55063703 14.80116700 -60.78689792     6    636    0    0    0
H 1122.49188931 13.84671112 -60.44699411     6    636    0    0    0
C 1124.41684099 12.18764423 -63.77911781     2    636   640   641   642
H 1122.95976911 11.56550857 -65.02022149     6    639    0    0    0
H 1126.14852152 12.73352297 -64.85870788     6    639    0    0    0
C 1125.16387451 10.15796151 -61.76930134     2    639   643   644   645
H 1126.59564602 10.87121844 -60.47537355     6    642    0    0    0
H 1123.57893160 9.58149944 -60.70543044     6    642    0    0    0
C 1126.27309171 7.98591686 -63.31083218     2    642   646   647   648
H 1124.98843515 7.53232951 -64.82504077     6    645    0    0    0
H 1127.94445280 8.73266365 -64.18998749     6    645    0    0    0
C 1126.86383387 5.54822144 -61.70429429     2    645   649   650   651
H 1127.86811108 5.81701950 -60.00230527     6    648    0    0    0
H 1125.17846602 4.50110044 -61.04951450     6    648    0    0    0
C 1128.54674236 3.78069460 -63.12200162     2    648   652   653   654
H 1127.77985326 3.68162543 -65.05089824     6    651    0    0    0
H 1130.26784108 4.59749846 -63.09046129     6    651    0    0    0
C 1128.49492350 1.17536248 -61.98861067     1    651   655   656   657
H 1126.55163868 0.60040440 -61.95669614     6    654    0    0    0
H 1129.01693584 1.40749816 -59.86306488     6    654    0    0    0
H 1129.36348279 -0.13818799 -63.19564924     6    654    0    0    0
H 1130.16220398 29.95480137 -44.45864533     6     659    0    0    0 
C 1131.15235651 30.03558734 -42.80191835     1     658    660    661    662
H 1130.65256786 31.94291394 -41.95204793     6     659    0    0    0
H 1130.29111682 28.71842811 -41.50814145     6     659    0    0    0
C 1134.05906480 29.70827429 -43.47311251     2     659    663    664    665
H 1135.27686079 30.59997603 -41.88880233     6     662    0    0    0
H 1134.50894964 27.56849599 -43.62083210     6     662    0    0    0
C 1134.89286426 31.00315773 -46.04230927     2     662    666   667   668
H 1136.76152767 30.44928292 -46.61261983     6     665    0    0    0
H 1133.73515357 30.04671102 -47.52530389     6     665    0    0    0
C 1134.59471200 33.99494621 -46.20239476     2     665   669   670   671
H 1132.64098007 34.50369662 -45.87736288     6    668    0    0    0
H 1135.48119844 35.00018863 -44.56585991     6    668    0    0    0
C 1135.53474203 34.99188862 -48.83804553     2    668   672   673   674
H 1137.08264236 33.88222739 -49.62601214     6    671    0    0    0
H 1134.09857733 34.55934268 -50.18687373     6    671    0    0    0
C 1135.92626281 37.90613624 -48.82855542     2    671   675   676   677
H 1134.11833068 39.02567740 -48.49754257     6    674    0    0    0
H 1137.39632834 38.48918391 -47.39222007     6    674    0    0    0
C 1137.24724228 38.81412300 -51.27529290     2    674   678   679   680
H 1138.39101174 40.42068524 -50.85050614     6    677    0    0    0
H 1138.59882504 37.33057880 -51.70519257     6    677    0    0    0
C 1135.33650894 39.52605312 -53.21981751     2    677   681   682   683
H 1134.31150104 37.81468940 -53.39240744     6    680    0    0    0
H 1134.17102359 41.06005784 -52.49462962     6    680    0    0    0
C 1136.37845572 40.28176563 -55.82871312     2    680   684   685   686
H 1137.49436237 38.62127930 -56.66350498     6    683    0    0    0
H 1134.95950079 40.42670749 -57.28393391     6    683    0    0    0
C 1137.66766891 42.85402183 -55.79656172     2    683   687   688   689
H 1136.34649648 44.30708281 -55.00672431     6    686    0    0    0
H 1139.45182465 42.77559148 -54.76409417     6    686    0    0    0
C 1137.92599324 43.90037170 -58.44850789     2    686   690   691   692
H 1138.79072352 42.64116054 -59.77433607     6    689    0    0    0
H 1136.00070807 44.36344016 -59.17345642     6    689    0    0    0
C 1139.22720280 46.41183050 -58.73509777     1    689   693   694   695
H 1138.65274669 47.13467759 -60.58326460     6    692    0    0    0
H 1141.26880335 46.40679952 -58.60198648     6    692    0    0    0
H 1138.72850124 47.92667771 -57.46645907     6    692    0    0    0
H 1126.60850050 42.61379666 -80.23998569     6     697    0    0    0 
C 1128.28889834 43.19286369 -81.33618740     1     696    698    699    700
H 1129.33373600 44.53556991 -80.28844161     6     697    0    0    0
H 1129.47212886 41.58591870 -81.34383654     6     697    0    0    0
C 1127.64633346 44.28211721 -83.94541058     2     697    701    702    703
H 1129.37194996 44.41192122 -85.02689160     6     700    0    0    0
H 1126.57868222 42.72851978 -84.86949193     6     700    0    0    0
C 1126.24337775 46.83432315 -83.90863771     2     700    704   705   706
H 1127.34106089 48.17695849 -82.81012732     6     703    0    0    0
H 1126.12603928 47.64050062 -85.78802498     6     703    0    0    0
C 1123.56500041 46.43638259 -82.84401138     2     703   707   708   709
H 1122.84480452 44.67963782 -83.28851092     6    706    0    0    0
H 1123.38030953 46.52689142 -80.80746147     6    706    0    0    0
C 1121.60761871 48.51166615 -83.72090661     2    706   710   711   712
H 1122.26836945 50.39206746 -83.21333115     6    709    0    0    0
H 1121.48699438 48.30728931 -85.80531332     6    709    0    0    0
C 1119.04437882 47.91566445 -82.50019545     2    709   713   714   715
H 1118.42686203 46.14937508 -83.20234769     6    712    0    0    0
H 1119.38684492 47.84289103 -80.42413376     6    712    0    0    0
C 1117.09201208 50.06051473 -83.06726061     2    712   716   717   718
H 1117.73416590 51.70065961 -81.92315725     6    715    0    0    0
H 1117.42730382 50.68305148 -85.14947994     6    715    0    0    0
C 1114.42280920 49.70499356 -82.27725200     2    715   719   720   721
H 1113.68408804 47.87837076 -82.90433804     6    718    0    0    0
H 1114.39687896 49.52255966 -80.29133354     6    718    0    0    0
C 1112.68395247 51.76141480 -83.03160613     2    718   722   723   724
H 1113.35601907 53.59482781 -82.28317112     6    721    0    0    0
H 1112.70756168 51.94993975 -85.11463670     6    721    0    0    0
C 1109.94528187 51.18728112 -82.24030197     2    721   725   726   727
H 1109.47039026 49.37783339 -82.75707113     6    724    0    0    0
H 1109.78318336 51.12175590 -80.14776141     6    724    0    0    0
C 1108.11929241 53.36851418 -83.11406777     2    724   728   729   730
H 1108.25701514 53.50719246 -85.12122007     6    727    0    0    0
H 1106.22660403 52.47057185 -82.90556895     6    727    0    0    0
C 1108.30333555 55.72263491 -81.64622449     1    727   731   732   733
H 1106.81759726 57.17874652 -82.19301467     6    730    0    0    0
H 1110.12547679 56.62568465 -82.04472150     6    730    0    0    0
H 1108.05461370 55.26386535 -79.60394951     6    730    0    0    0
H 1117.79971712 62.02025423 -36.01744077     6     735    0    0    0 
C 1117.90601813 61.85192526 -38.00612347     1     734    736    737    738
H 1117.80315890 63.62601234 -38.88188601     6     735    0    0    0
H 1119.71929703 60.98403431 -38.43830512     6     735    0    0    0
C 1115.64994894 60.01405531 -38.55877577     2     735    739    740    741
H 1113.90045904 60.99595335 -38.08485660     6     738    0    0    0
H 1115.74993455 59.88852277 -40.60234176     6     738    0    0    0
C 1115.90247195 57.40281634 -37.32131542     2     738    742   743   744
H 1117.71092817 56.70137530 -38.02189722     6     741    0    0    0
H 1116.29007838 57.87673973 -35.44272160     6     741    0    0    0
C 1113.67759621 55.67928124 -37.86560905     2     741   745   746   747
H 1112.00385741 56.57424856 -37.16451234     6    744    0    0    0
H 1113.20283736 55.34245566 -39.84127463     6    744    0    0    0
C 1114.22594163 52.96818963 -36.79056099     2    744   748   749   750
H 1116.04099220 52.25303152 -37.44357776     6    747    0    0    0
H 1114.37748988 53.16879159 -34.82168422     6    747    0    0    0
C 1112.03430697 51.21774215 -37.37061015     2    747   751   752   753
H 1110.32356233 52.01602810 -36.71873430     6    750    0    0    0
H 1111.73627789 50.90489855 -39.36733023     6    750    0    0    0
C 1112.39060202 48.61163119 -36.14794839     2    750   754   755   756
H 1114.13818754 47.79822246 -36.89096805     6    753    0    0    0
H 1112.59325189 48.85425472 -34.06679496     6    753    0    0    0
C 1110.28922341 46.74425078 -36.66955638     2    753   757   758   759
H 1108.70026848 47.30097311 -35.63012772     6    756    0    0    0
H 1109.66948541 46.61188656 -38.67871804     6    756    0    0    0
C 1110.94723915 44.06270492 -36.05736399     2    756   760   761   762
H 1112.00618132 43.28980475 -37.62496709     6    759    0    0    0
H 1112.20298556 43.82434535 -34.40340580     6    759    0    0    0
C 1108.53453806 42.42535787 -35.65812427     2    759   763   764   765
H 1107.08285780 43.45489787 -34.64733504     6    762    0    0    0
H 1107.70634443 42.07150946 -37.41725311     6    762    0    0    0
C 1108.96571109 40.02728333 -34.03462821     2    762   766   767   768
H 1110.16020941 38.64343525 -35.18436695     6    765    0    0    0
H 1110.00432761 40.40060521 -32.22259722     6    765    0    0    0
C 1106.42133529 38.72743081 -33.45682925     1    765   769   770   771
H 1105.05217697 39.92077026 -32.49210441     6    768    0    0    0
H 1106.66701208 37.03824092 -32.25877951     6    768    0    0    0
H 1105.45190014 37.92273567 -35.16869889     6    768    0    0    0
H 1118.64926053 13.42535263 -62.54058493     6     773    0    0    0 
C 1117.67779521 11.78594031 -63.15789579     1     772    774    775    776
H 1118.97704797 11.03373334 -64.70346481     6     773    0    0    0
H 1117.93257635 10.36875436 -61.56150246     6     773    0    0    0
C 1114.98876946 12.49476147 -63.86544292     2     773    777    778    779
H 1113.98797115 10.85076694 -64.67999629     6     776    0    0    0
H 1113.81224187 13.05148844 -62.22339973     6     776    0    0    0
C 1114.84057746 14.24866907 -66.06677044     2     776    780   781   782
H 1116.21460606 15.77336559 -65.76308076     6     779    0    0    0
H 1115.62860811 13.36647621 -67.68152012     6     779    0    0    0
C 1112.17849436 15.08120583 -66.91526462     2     779   783   784   785
H 1111.07672966 13.37867248 -67.17597405     6    782    0    0    0
H 1111.25817694 16.17408641 -65.24582954     6    782    0    0    0
C 1112.14882631 16.57241682 -69.30723281     2    782   786   787   788
H 1113.83067243 17.49462849 -69.23479803     6    785    0    0    0
H 1112.31252447 15.51491681 -71.05366748     6    785    0    0    0
C 1109.80660871 18.40863748 -69.44673650     2    785   789   790   791
H 1108.11991465 17.22290022 -69.71262266     6    788    0    0    0
H 1109.64565450 19.45687468 -67.65581379     6    788    0    0    0
C 1110.02548413 20.26918426 -71.58314091     2    788   792   793   794
H 1111.97199713 21.07618097 -71.68544645     6    791    0    0    0
H 1110.10647018 19.11179952 -73.24062369     6    791    0    0    0
C 1108.01782167 22.33969095 -71.68921683     2    791   795   796   797
H 1106.18760348 21.67805243 -72.21181664     6    794    0    0    0
H 1107.63241230 23.14738362 -69.77114901     6    794    0    0    0
C 1108.63427581 24.46025162 -73.39706512     2    794   798   799   800
H 1110.57200377 25.18852408 -73.05881574     6    797    0    0    0
H 1108.58650213 23.76813834 -75.34397316     6    797    0    0    0
C 1106.53696376 26.47613510 -73.42770908     2    797   801   802   803
H 1104.89653571 25.29804435 -73.84399363     6    800    0    0    0
H 1106.50611524 27.18241128 -71.50682026     6    800    0    0    0
C 1106.85812571 28.62952157 -75.39233179     2    800   804   805   806
H 1108.70639739 29.32197460 -74.78587012     6    803    0    0    0
H 1107.10410663 28.03359802 -77.35569549     6    803    0    0    0
C 1104.91043310 30.74821356 -75.29878831     1    803   807   808   809
H 1105.13075388 31.76443951 -77.00223834     6    806    0    0    0
H 1105.17693897 31.68239757 -73.52018462     6    806    0    0    0
H 1102.97700352 30.15931485 -75.33002288     6    806    0    0    0
H 1126.48781548 33.86728226 -41.09359837     6     811    0    0    0 
C 1125.35065405 33.79995809 -42.86145542     1     810    812    813    814
H 1123.99331073 35.25469029 -43.17406420     6     811    0    0    0
H 1126.72088468 33.82863537 -44.33829697     6     811    0    0    0
C 1124.27193309 30.97561535 -43.03595535     2     811    815    816    817
H 1123.53382910 30.45074836 -44.98805204     6     814    0    0    0
H 1125.82624599 29.66106496 -42.52390705     6     814    0    0    0
C 1122.11790236 30.53878250 -41.16243903     2     814    818   819   820
H 1122.84496669 30.51517801 -39.31492937     6     817    0    0    0
H 1120.91217887 32.07346467 -41.17989868     6     817    0    0    0
C 1120.68882203 28.04569230 -41.66889919     2     817   821   822   823
H 1120.18070535 28.01707558 -43.74072373     6    820    0    0    0
H 1121.99272221 26.47117050 -41.59809859     6    820    0    0    0
C 1118.36450707 27.57055551 -39.95732617     2    820   824   825   826
H 1118.96269168 27.37270096 -37.94176281     6    823    0    0    0
H 1117.26737580 29.24977272 -39.95194928     6    823    0    0    0
C 1116.78727252 25.22066892 -40.79823137     2    823   827   828   829
H 1116.32070298 25.36769999 -42.86682383     6    826    0    0    0
H 1117.90761144 23.49436426 -41.05643531     6    826    0    0    0
C 1114.26218161 25.16647113 -39.21228301     2    826   830   831   832
H 1114.83318279 25.29775067 -37.33873420     6    829    0    0    0
H 1112.99177190 26.61686263 -39.62794629     6    829    0    0    0
C 1112.68694616 22.76665290 -39.78216530     2    829   833   834   835
H 1112.36901183 22.72430008 -41.84925463     6    832    0    0    0
H 1113.85807871 21.20857291 -39.30066910     6    832    0    0    0
C 1110.14442461 22.37520521 -38.54478256     2    832   836   837   838
H 1110.09886178 23.30547633 -36.65837448     6    835    0    0    0
H 1108.47718281 23.11831545 -39.68202534     6    835    0    0    0
C 1109.68732332 19.52263950 -38.15842335     2    835   839   840   841
H 1109.62945305 18.33340329 -39.82560231     6    838    0    0    0
H 1111.19775812 18.87570663 -37.09027950     6    838    0    0    0
C 1107.25595384 19.05124025 -36.64599676     2    838   842   843   844
H 1107.19533347 19.99984102 -34.73223559     6    841    0    0    0
H 1105.55458831 19.68647599 -37.70262144     6    841    0    0    0
C 1107.08604900 16.19661930 -36.31521883     1    841   845   846   847
H 1105.47838510 15.34009786 -35.22991017     6    844    0    0    0
H 1108.64058278 15.20656423 -35.41311977     6    844    0    0    0
H 1107.00262243 15.47364432 -38.28454689     6    844    0    0    0
H 1151.11645209 45.55663215 -69.30165192     6     849    0    0    0 
C 1149.21105772 45.59091049 -70.07475588     1     848    850    851    852
H 1148.86024805 47.19877111 -71.39136300     6     849    0    0    0
H 1149.16898908 43.81095315 -70.91831971     6     849    0    0    0
C 1147.39052420 45.25213992 -68.01827020     2     849    853    854    855
H 1147.45325964 46.98070154 -66.84995395     6     852    0    0    0
H 1145.47891761 45.20693466 -68.78614966     6     852    0    0    0
C 1147.74150048 42.93969874 -66.28438880     2     852    856   857   858
H 1147.85354058 41.29137814 -67.57051584     6     855    0    0    0
H 1149.45638064 42.94131206 -65.31628225     6     855    0    0    0
C 1145.49093148 42.28188803 -64.53291790     2     855   859   860   861
H 1145.13214719 43.83243208 -63.24098241     6    858    0    0    0
H 1143.83874912 41.94706600 -65.71783175     6    858    0    0    0
C 1146.03279095 39.68142127 -63.21887631     2    858   862   863   864
H 1146.20750396 38.25631205 -64.57199894     6    861    0    0    0
H 1147.69742709 39.99509895 -62.04289120     6    861    0    0    0
C 1143.80407954 38.82580716 -61.51759576     2    861   865   866   867
H 1143.45363806 40.17139004 -60.06231959     6    864    0    0    0
H 1142.05501642 38.60528095 -62.53434637     6    864    0    0    0
C 1144.54235050 36.52816516 -59.95204924     2    864   868   869   870
H 1145.04435023 35.14841812 -61.36730001     6    867    0    0    0
H 1146.16256499 37.02623151 -58.80525906     6    867    0    0    0
C 1142.20279138 35.48364843 -58.40984898     2    867   871   872   873
H 1141.54955385 36.81810458 -57.12594367     6    870    0    0    0
H 1140.63625204 35.46751677 -59.73453296     6    870    0    0    0
C 1142.76769096 32.92120775 -57.07973525     2    870   874   875   876
H 1140.85277165 32.16989507 -57.01984113     6    873    0    0    0
H 1143.66105035 31.34058053 -57.96522563     6    873    0    0    0
C 1143.63611845 33.14120653 -54.45995808     2    873   877   878   879
H 1145.69832827 33.10689246 -54.59379897     6    876    0    0    0
H 1142.89120173 34.90637190 -53.66209746     6    876    0    0    0
C 1142.91922553 30.62393099 -53.01134127     2    876   880   881   882
H 1140.88426418 30.17160073 -53.53668283     6    879    0    0    0
H 1143.80049588 29.08212543 -53.97675038     6    879    0    0    0
C 1142.71118811 30.61714767 -50.10589045     1    879   883   884   885
H 1141.56705806 32.01583314 -49.28448135     6    882    0    0    0
H 1144.47471995 30.44467221 -49.38439117     6    882    0    0    0
H 1141.76659652 28.84692104 -49.38714699     6    882    0    0    0
H 1109.78116126 26.68831301 -45.95313352     6     887    0    0    0 
C 1109.65983150 26.79124543 -48.14612569     1     886    888    889    890
H 1110.96863028 25.35004861 -48.76620184     6     887    0    0    0
H 1107.79906738 26.12663648 -48.81241936     6     887    0    0    0
C 1110.54995322 29.26397359 -49.18934268     2     887    891    892    893
H 1110.72656871 29.33477198 -51.16282079     6     890    0    0    0
H 1109.29090224 30.64582345 -48.65860654     6     890    0    0    0
C 1113.13225305 29.76736003 -47.97712367     2     890    894   895   896
H 1112.97725358 29.61784225 -46.01014973     6     893    0    0    0
H 1114.35024901 28.26068711 -48.49639388     6     893    0    0    0
C 1114.35732710 32.30018148 -48.92728700     2     893   897   898   899
H 1114.44675417 32.56610784 -50.92606390     6    896    0    0    0
H 1113.41775673 33.98276434 -48.07211176     6    896    0    0    0
C 1117.18277165 32.52928038 -48.13781877     2    896   900   901   902
H 1117.39603991 32.68668433 -46.06931650     6    899    0    0    0
H 1118.26068253 30.81851096 -48.69092464     6    899    0    0    0
C 1118.37386986 34.84736956 -49.44752252     2    899   903   904   905
H 1118.90764148 34.08355393 -51.26218760     6    902    0    0    0
H 1117.20692256 36.32898844 -49.92747543     6    902    0    0    0
C 1120.70864344 36.04110459 -48.22074424     2    902   906   907   908
H 1120.11417497 37.29705421 -46.63671108     6    905    0    0    0
H 1121.76966488 34.58071806 -47.36915165     6    905    0    0    0
C 1122.43683892 37.50782701 -50.11575290     2    905   909   910   911
H 1122.76577319 36.36651042 -51.69784477     6    908    0    0    0
H 1121.47127251 39.29221888 -50.74064450     6    908    0    0    0
C 1124.82859877 38.28369061 -48.80364194     2    908   912   913   914
H 1124.61780727 38.92728217 -46.83687248     6    911    0    0    0
H 1125.85454798 36.47329829 -48.43612815     6    911    0    0    0
C 1126.16376541 40.38007371 -50.19269576     2    911   915   916   917
H 1126.48112073 39.77732964 -52.10289863     6    914    0    0    0
H 1125.04247257 41.92827814 -50.05411031     6    914    0    0    0
C 1128.73897393 40.87843925 -48.90456791     2    914   918   919   920
H 1128.85850851 40.97864915 -46.87934535     6    917    0    0    0
H 1130.06541473 39.53310189 -49.52539521     6    917    0    0    0
C 1129.95157501 43.29507330 -50.08688640     1    917   921   922   923
H 1128.83998936 45.13088371 -49.88178257     6    920    0    0    0
H 1130.50154785 42.85161600 -52.15559385     6    920    0    0    0
H 1131.85292087 43.53580469 -49.42336479     6    920    0    0    0
H 1146.40719749 22.75702930 -62.12346526     6     925    0    0    0 
C 1147.58325869 21.58884251 -61.03751528     1     924    926    927    928
H 1148.68911096 20.44179118 -62.30218120     6     925    0    0    0
H 1148.90920956 22.73690053 -59.92497412     6     925    0    0    0
C 1146.03957922 19.90693459 -59.23984156     2     925    929    930    931
H 1144.69199420 18.90568477 -60.27758340     6     928    0    0    0
H 1147.28869623 18.49774228 -58.25127712     6     928    0    0    0
C 1144.58388007 21.19408525 -57.10070196     2     928    932   933   934
H 1145.91219836 22.21528762 -55.74096536     6     931    0    0    0
H 1143.06597950 22.38877957 -57.74917709     6     931    0    0    0
C 1143.35527872 19.11753192 -55.31944775     2     931   935   936   937
H 1141.75013855 18.38482378 -56.31944593     6    934    0    0    0
H 1144.62212644 17.51612433 -55.01348074     6    934    0    0    0
C 1142.28271538 20.31324873 -53.04255851     2    934   938   939   940
H 1143.88850474 20.63627890 -51.78035827     6    937    0    0    0
H 1141.41468577 22.10947874 -53.46293334     6    937    0    0    0
C 1140.39988953 18.66718454 -51.48733617     2    937   941   942   943
H 1138.91393750 17.87616117 -52.78433119     6    940    0    0    0
H 1141.19583512 17.09991323 -50.63509265     6    940    0    0    0
C 1138.89842480 20.16883442 -49.37961660     2    940   944   945   946
H 1137.67616772 21.83893700 -50.00829329     6    943    0    0    0
H 1137.99835804 18.61287661 -48.52444456     6    943    0    0    0
C 1140.76253879 21.55439389 -47.57066099     2    943   947   948   949
H 1142.00392884 20.11037929 -46.82796796     6    946    0    0    0
H 1142.05140627 22.92844248 -48.51543080     6    946    0    0    0
C 1139.33631765 22.85167346 -45.44721776     2    946   950   951   952
H 1138.35469753 24.55017123 -46.13345191     6    949    0    0    0
H 1137.89584056 21.57285258 -44.85554946     6    949    0    0    0
C 1141.23596904 23.71108120 -43.27609391     2    949   953   954   955
H 1142.59518818 22.21307202 -43.11423682     6    952    0    0    0
H 1142.57837425 25.16386621 -43.96275335     6    952    0    0    0
C 1139.97917835 24.25625300 -40.65327178     2    952   956   957   958
H 1138.20353658 25.32465332 -40.83492435     6    955    0    0    0
H 1139.66017358 22.53898698 -39.57852983     6    955    0    0    0
C 1141.62182110 26.09927271 -38.97460642     1    955   959   960   961
H 1141.01621150 26.14596995 -36.99057710     6    958    0    0    0
H 1141.81325221 27.90641050 -39.84766138     6    958    0    0    0
H 1143.60070180 25.47868922 -38.98558684     6    958    0    0    0
H 1103.54712620 47.27244377 -50.03569748     6     963    0    0    0 
C 1105.42295805 46.52044137 -50.50333888     1     962    964    965    966
H 1106.64353081 48.24949751 -50.57680981     6     963    0    0    0
H 1105.66463813 45.29642452 -48.83259184     6     963    0    0    0
C 1105.54400068 45.12865216 -53.06946308     2     963    967    968    969
H 1107.43021722 44.20618193 -53.38848526     6     966    0    0    0
H 1104.34476402 43.48773658 -53.04120951     6     966    0    0    0
C 1104.80301376 46.76905011 -55.38953361     2     966    970   971   972
H 1103.12196753 47.92243010 -54.96245718     6     969    0    0    0
H 1106.37826995 47.95921983 -55.63542828     6     969    0    0    0
C 1104.56979855 45.18858139 -57.84557845     2     969   973   974   975
H 1106.24294857 43.95058996 -58.02773537     6    972    0    0    0
H 1102.86950123 44.01180092 -57.69163946     6    972    0    0    0
C 1104.49110048 46.91814953 -60.26719528     2    972   976   977   978
H 1103.15009823 48.48845558 -59.98867094     6    975    0    0    0
H 1106.29128653 47.82075090 -60.53692652     6    975    0    0    0
C 1103.77231815 45.54728497 -62.72607641     2    975   979   980   981
H 1104.87965978 43.73791119 -62.96799849     6    978    0    0    0
H 1101.85607980 44.90814087 -62.44647975     6    978    0    0    0
C 1104.31873433 47.20278565 -65.17166073     2    978   982   983   984
H 1103.38206461 49.00358170 -64.83189054     6    981    0    0    0
H 1106.28380736 47.91238023 -65.57240238     6    981    0    0    0
C 1103.10602437 46.01675450 -67.58646790     2    981   985   986   987
H 1103.67753568 43.98306147 -67.53759553     6    984    0    0    0
H 1101.18756383 46.23440870 -67.28798333     6    984    0    0    0
C 1103.93373433 47.31377387 -70.02413710     2    984   988   989   990
H 1102.76043810 46.39320093 -71.41692393     6    987    0    0    0
H 1103.45252378 49.28603282 -70.10974958     6    987    0    0    0
C 1106.69137573 46.76765635 -71.11304408     2    987   991   992   993
H 1108.20958422 47.18516015 -69.83296739     6    990    0    0    0
H 1106.87396216 44.76588854 -71.59628568     6    990    0    0    0
C 1107.07084829 48.48167699 -73.46895725     2    990   994   995   996
H 1105.61315961 48.24262061 -74.88303135     6    993    0    0    0
H 1106.90019938 50.38866044 -72.73806672     6    993    0    0    0
C 1109.66863116 48.17393054 -74.75223407     1    993   997   998   999
H 1111.32741567 48.61991739 -73.63014175     6    996    0    0    0
H 1109.80326005 49.25285399 -76.43274780     6    996    0    0    0
H 1109.83090370 46.35687602 -75.45725113     6    996    0    0    0
H 1094.49652499 38.64772580 -44.68399662     6     1001    0    0    0 
C 1094.50584973 40.49767643 -43.92471826     1     1000    1002    1003    1004
H 1092.59640273 41.31498153 -43.56879518     6     1001    0    0    0
H 1095.16069878 40.49856345 -42.02866709     6     1001    0    0    0
C 1096.19840856 42.15090011 -45.63589193     2     1001    1005    1006    1007
H 1098.10466591 41.54872823 -45.67990513     6     1004    0    0    0
H 1095.55011334 41.66339415 -47.57660622     6     1004    0    0    0
C 1095.91979279 44.97173653 -45.19070227     2     1004    1008   1009   1010
H 1093.98806322 45.34766466 -45.16706607     6     1007    0    0    0
H 1096.74513260 45.70096821 -43.52754155     6     1007    0    0    0
C 1096.99920686 46.47912687 -47.39353497     2     1007   1011   1012   1013
H 1098.76559574 45.52935033 -47.96022028     6    1010    0    0    0
H 1096.03385119 46.28148963 -49.20888584     6    1010    0    0    0
C 1097.13175905 49.32286863 -46.68283620     2    1010   1014   1015   1016
H 1095.18942143 50.07199580 -46.65187403     6    1013    0    0    0
H 1097.82992303 49.83038037 -44.69529520     6    1013    0    0    0
C 1098.73965834 50.69642957 -48.71589397     2    1013   1017   1018   1019
H 1100.51153678 49.81660146 -48.75817287     6    1016    0    0    0
H 1098.01863190 50.35664764 -50.56311848     6    1016    0    0    0
C 1098.94967397 53.59376088 -48.40241626     2    1016   1020   1021   1022
H 1097.10087512 54.24804668 -48.16782082     6    1019    0    0    0
H 1099.93341434 53.79832090 -46.54187148     6    1019    0    0    0
C 1100.30668474 54.90090251 -50.53556900     2    1019   1023   1024   1025
H 1098.95902979 54.41068989 -52.06240734     6    1022    0    0    0
H 1100.40791340 56.82723516 -50.08769489     6    1022    0    0    0
C 1102.85362127 53.77175213 -51.33694397     2    1022   1026   1027   1028
H 1104.07469495 53.24851489 -49.72812727     6    1025    0    0    0
H 1102.44443311 51.75661718 -52.02249127     6    1025    0    0    0
C 1104.30095083 55.41817178 -53.27043923     2    1025   1029   1030   1031
H 1103.01643568 55.76699922 -54.88289498     6    1028    0    0    0
H 1104.92111765 57.17563058 -52.41977000     6    1028    0    0    0
C 1106.78314060 54.15115135 -54.13199433     2    1028   1032   1033   1034
H 1108.05876546 53.93610734 -52.49662768     6    1031    0    0    0
H 1106.14608750 52.38096500 -54.84104647     6    1031    0    0    0
C 1107.75200495 55.55604429 -56.44195573     1    1031   1035   1036   1037
H 1109.64950667 54.84547348 -56.87617808     6    1034    0    0    0
H 1108.02304484 57.61995084 -56.15834450     6    1034    0    0    0
H 1106.73800620 55.37952603 -58.16636045     6    1034    0    0    0
H 1108.21774202 21.18090649 -61.48953809     6     1039    0    0    0 
C 1110.08424048 21.63866860 -62.18597043     1     1038    1040    1041    1042
H 1110.29507885 20.19794791 -63.67780949     6     1039    0    0    0
H 1110.45902972 23.48510575 -62.81728121     6     1039    0    0    0
C 1112.07225313 21.12984647 -60.04304156     2     1039    1043    1044    1045
H 1113.91567352 21.69875358 -60.47280586     6     1042    0    0    0
H 1111.65202530 22.36897761 -58.47164747     6     1042    0    0    0
C 1112.02099632 18.43394009 -58.93983720     2     1042    1046   1047   1048
H 1110.07671080 18.17422730 -58.46748104     6     1045    0    0    0
H 1112.31458963 17.34574875 -60.73277837     6     1045    0    0    0
C 1113.84668730 18.12169963 -56.77034620     2     1045   1049   1050   1051
H 1115.67008019 18.50950704 -57.60196752     6    1048    0    0    0
H 1113.47537654 19.53615058 -55.31665405     6    1048    0    0    0
C 1114.06717445 15.41187571 -55.82799047     2    1048   1052   1053   1054
H 1112.24248088 14.98758552 -55.02067292     6    1051    0    0    0
H 1114.69982273 14.40570412 -57.48757138     6    1051    0    0    0
C 1116.02708222 14.97366752 -53.70739321     2    1051   1055   1056   1057
H 1117.83113743 15.58705459 -54.38248548     6    1054    0    0    0
H 1115.36403435 16.35612342 -52.26419337     6    1054    0    0    0
[...]
 1803      H    1133.0821323900    19.1750066800   -69.4512803400
 1804      H    1130.2479064800    20.3428976100   -68.2711785800
 1805      C    1131.7410491500    17.3653985600   -66.1404610800
 1806      H    1130.0543833200    16.3055314500   -65.5179246900
 1807      H    1133.1470266000    15.9594225700   -66.5093859400
 1808      C    1132.3486037600    19.2963655000   -64.0576663300
 1809      H    1133.9097601100    18.5497615200   -62.9864234500
 1810      H    1133.1632265100    21.1419097000   -64.9028311400
 1811      C    1130.0476564800    19.9236939300   -62.2460646900
 1812      H    1128.4428745600    20.2638117900   -63.5347727400
 1813      H    1129.6696453500    18.4900593900   -60.8342335500
 1814      C    1130.7741200000    22.0283545700   -60.4399846500
 1815      H    1131.9318976600    21.4065206600   -58.9409187600
 1816      H    1131.7539730900    23.6024307300   -61.3149303000
 1817      C    1128.4950952000    23.3004504600   -59.3067350000
 1818      H    1127.3612775300    24.3169500800   -60.8196651700
 1819      H    1127.2419037400    21.8933079700   -58.3645217000
 1820      C    1129.3072663400    24.9986812600   -57.1514162400
 1821      H    1130.5741183900    23.8672527100   -55.9120013000
 1822      H    1130.3917807000    26.6467196800   -57.7623964800
 1823      C    1127.2258275400    25.7298219200   -55.2140577400
 1824      H    1125.3953008100    26.0642523500   -56.0910468200
 1825      H    1126.6964668000    24.1030492700   -54.0763271300
 1826      C    1127.7592655100    28.0786608800   -53.4342432600
 1827      H    1129.2174252000    27.7162976100   -52.0575515700
 1828      H    1128.3219223000    29.6576695700   -54.7774770800
 1829      C    1125.3478059600    28.8165976100   -51.9995558700
 1830      H    1124.0142748800    29.3293696100   -53.4381019300
 1831      H    1124.6488011000    27.0753464700   -50.9347725800
 1832      C    1125.5792349500    31.1950407700   -50.2887222300
 1833      H    1123.8468210500    31.4692960200   -49.1424455200
 1834      H    1125.8098841600    32.7609542800   -51.7405569500
 1835      H    1127.2457594400    31.2894070300   -49.0809933200
 1836      H    1127.8730081100    35.5102502800   -54.9386717200
 1837      C    1128.5967281900    36.3647853100   -56.6173807100
 1838      H    1126.9729407500    36.3620819900   -58.0900992900
 1839      H    1129.0050439100    38.4054537500   -56.2188791100
 1840      C    1131.0202356600    35.1780976400   -57.4764754000
 1841      H    1132.2542316100    36.6667212400   -58.0209731200
 1842      H    1131.8256617100    34.0459332800   -55.8461241300
 1843      C    1130.7937332100    33.4375529400   -59.7811327800
 1844      H    1129.5994959800    31.8983407400   -59.1947541900
 1845      H    1129.7423119300    34.2615620600   -61.3716410600
 1846      C    1133.2777336000    32.2233625400   -60.6150333100
 1847      H    1134.5087991500    33.8756050400   -60.9566556300
 1848      H    1134.0601476200    31.1092739600   -59.0849130100
 1849      C    1133.2480928700    30.2560814400   -62.8370871100
 1850      H    1132.5423155400    28.5081195700   -62.1694617300
 1851      H    1132.1608412900    30.9462246900   -64.3328267300
 1852      C    1135.8891930700    30.0518743700   -64.0287507000
 1853      H    1137.1936378400    30.0258221200   -62.4311858900
 1854      H    1136.1377945200    28.0858956800   -64.9113508400
 1855      C    1136.6253562600    31.9874426000   -65.9960343100
 1856      H    1135.6329941200    31.7843551500   -67.7592515400
 1857      H    1136.2312377700    33.8754587000   -65.4215467200
 1858      C    1139.4618168300    31.9607116000   -66.7462925700
 1859      H    1140.6206120200    31.9179457200   -65.0858143300
 1860      H    1140.2218983300    30.2024656200   -67.7047839200
 1861      C    1140.1969895500    34.1914961200   -68.5199968300
 1862      H    1138.8495628900    34.0000109800   -70.0900440000
 1863      H    1139.8238031700    35.9059209200   -67.4161399900
 1864      C    1143.0347090700    34.3298510000   -69.1026281700
 1865      H    1144.2657239000    34.5288639600   -67.5289800000
 1866      H    1143.5718062300    32.5923132800   -70.0558117900
 1867      C    1143.6382576000    36.4960752100   -70.8877819300
 1868      H    1142.5760839600    36.4403314700   -72.6618513600
 1869      H    1143.1867288800    38.2570815400   -70.2219429000
 1870      C    1146.5098772400    36.6094710800   -71.3413306300
 1871      H    1147.0782534500    38.3338013300   -72.2934593400
 1872      H    1146.8532874900    35.1077257300   -72.7532803100
 1873      H    1147.6544271700    36.2226263700   -69.6652803000
 1874      H    1122.8730134300    40.0286862200   -80.7647882800
 1875      C    1121.1674523600    39.5112325900   -79.8166883500
 1876      H    1119.5975385400    39.4146922100   -81.2099332600
 1877      H    1121.7500312700    37.7596669200   -79.1049413700
 1878      C    1119.8146439200    41.0042391800   -77.6850044400
 1879      H    1121.0922977200    41.5224811200   -76.1696618100
 1880      H    1119.2787746000    42.9182159800   -78.0854813100
 1881      C    1117.6662355100    39.3729914700   -76.4627889900
 1882      H    1116.0699255000    39.6406786400   -77.6860826200
 1883      H    1118.1504802200    37.3864181200   -76.4896330800
 1884      C    1116.8235236700    40.2492916100   -73.7775208500
 1885      H    1118.3099830500    40.1479379700   -72.3623096600
 1886      H    1116.6370897600    42.2743792900   -73.7490603200
 1887      C    1114.3109241700    39.2743863300   -72.9463651700
 1888      H    1112.8262135100    39.6558235800   -74.4198150000
 1889      H    1114.4836516100    37.1699278100   -73.0112298800
 1890      C    1113.5778465400    39.8996872800   -70.3144433500
 1891      H    1115.0045310400    39.2238305400   -69.0865869600
 1892      H    1113.7252020400    41.8793794700   -70.2494078600
 1893      C    1111.0273721900    38.7234635700   -69.5033442800
 1894      H    1109.6556066800    39.5989712600   -70.7027619000
 1895      H    1110.8472016800    36.6963352000   -69.5402660600
 1896      C    1110.4147555200    39.4804784800   -66.8450611000
 1897      H    1112.1418372700    39.2882558700   -65.7261966400
 1898      H    1109.7345647000    41.4950304700   -66.8833856100
 1899      C    1108.4492437400    37.8007852900   -65.5599612600
 1900      H    1106.6931474200    37.6652866900   -66.6083402500
 1901      H    1109.1947701000    35.8659219500   -65.6951550600
 1902      C    1107.8600359300    38.3560129600   -62.7131312100
 1903      H    1109.5561830200    37.8715156900   -61.7001851800
 1904      H    1107.6752736200    40.4676669100   -62.2877011800
 1905      C    1105.6758282400    36.8445248900   -61.6755493800
 1906      H    1104.0902919200    37.8042186600   -62.5357468800
 1907      H    1105.7404256400    34.8928936600   -62.1370828300
 1908      C    1105.1304046300    37.2113991200   -58.8173882100
 1909      H    1103.5575905300    36.2505381000   -58.0295186700
 1910      H    1104.7475737400    39.1742508800   -58.5005709400
 1911      H    1106.6525756200    36.6248269600   -57.5285348600
 ----------------------------------------------------------------
 Nuclear Repulsion Energy =           0.00000000 hartrees
 There are     2498 alpha and     2498 beta electrons

 Total QAlloc Memory Limit   2000 MB
 Mega-Array Size       204 MB
 MEM_STATIC part       192 MB
   **** Step 1: MM calculation on the entire system **** 
 OPLSAA force field loaded.
Reading user-defined FF parameters...
 Reading user defined atom types.
 Found 3 user defined AtomTypes
finished.
Determining angles, torsions, etc. from user defined input
Determining VDW/Coulomb pairs... (useList = 0)

 Time req'd to get MM system information: 0.2 s (CPU) 0.7 s (wall)

 ------ MM Energies ------
   Ebond:           574.451597473221
   Eangle:          900.951034150258
   EUreyBrad:         0.000000000000
   Eimptors:          0.000000000000
   Etorsion:        216.459455794982
   Evdw:        1047513.472552628722
   Ecoulomb:        186.230037852653
   Etot:        1049391.564677899936 Kcal/mol (   1672.311914281689 hartree)
 -------------------------
 Time req'd to calc MM energy: 0.1 s (CPU) 0.1 s (wall)
 OPLSAA force field loaded.
Reading user-defined FF parameters...
 Reading user defined atom types.
 Found 3 user defined AtomTypes
finished.
 Time req'd to get MM system information: 0.0 s (CPU) 0.0 s (wall)
 Time req'd to calc MM gradient: 0.2 s (CPU) 0.2 s (wall)
   **** Step 2: MM calculation on the model system **** 
 Reading user defined atom types.
 Found 3 user defined AtomTypes
 ----------------------------------------------------------------
             Standard Nuclear Orientation (Bohr)
    I     Atom           X                Y                Z
 ----------------------------------------------------------------
    1      Fe   1118.3715849600    41.3665365800   -62.1326110300
    2      C    1115.2229002500    42.6441729900   -62.3573546400
    3      C    1120.8378175500    41.1061138600   -64.4929497300
    4      C    1119.6376106400    44.4442492800   -61.2746028900
    5      C    1118.8977818800    40.4398838300   -59.0081065700
    6      C    1117.5369258800    38.2324471800   -63.0396737400
    7      O    1113.1821329400    43.4027426400   -61.9199786900
    8      O    1122.5171201200    40.4463683300   -65.7670730000
    9      O    1120.3706063100    46.4837562900   -60.6964336300
   10      O    1119.1628845000    39.6434318800   -56.9834218100
   11      O    1117.0424789700    36.1093553700   -63.3625758100
 ----------------------------------------------------------------
 Nuclear Repulsion Energy =         805.07125166 hartrees
 There are       48 alpha and       48 beta electrons
 OPLSAA force field loaded.
Reading user-defined FF parameters...
 Reading user defined atom types.
 Found 3 user defined AtomTypes
finished.
Determining VDW/Coulomb pairs... (useList = 0)

 No MM bonds in system. Return all possible pairs.
 Time req'd to get MM system information: 0.0 s (CPU) 0.0 s (wall)

 ------ MM Energies ------
   Ebond:             0.000000000000
   Eangle:            0.000000000000
   EUreyBrad:         0.000000000000
   Eimptors:          0.000000000000
   Etorsion:          0.000000000000
   Evdw:        1047961.075969714089
   Ecoulomb:         -6.422282533103
   Etot:        1047954.653687180951 Kcal/mol (   1670.022050849940 hartree)
 -------------------------
 Eold: 1672.3119143 mm_energy: 1670.0220508 Enew:    2.2898634
 Time req'd to calc MM energy: 0.0 s (CPU) 0.0 s (wall)
 OPLSAA force field loaded.
Reading user-defined FF parameters...
 Reading user defined atom types.
 Found 3 user defined AtomTypes
finished.
Determining VDW/Coulomb pairs... (useList = 0)

 No MM bonds in system. Return all possible pairs.
 Time req'd to get MM system information: 0.0 s (CPU) 0.0 s (wall)
 Number of fixed atoms: 0
 Time req'd to calc MM gradient: 0.0 s (CPU) 0.0 s (wall)
   **** Step 3: QM calculation on the model system **** 
 Requested basis set is def2-mSVP
 There are 80 shells and 174 basis functions

                       Distance Matrix (Bohrs)
             Fe(  1)   C (  2)   C (  3)   C (  4)   C (  5)   C (  6)
   C (  2)  3.405449
   C (  3)  3.423642  6.201104
   C (  4)  3.436759  4.888997  4.789718
   C (  5)  3.301227  5.438852  5.855861  4.660396
   C (  6)  3.367779  5.028280  4.611492  6.790791  4.793562
   O (  7)  5.578688  2.220688  8.396677  6.570726  7.065846  6.851999
   O (  8)  5.589408  8.346387  2.208781  6.667602  7.667025  6.094464
   O (  9)  5.678435  6.633245  6.599307  2.243023  6.445778  9.033528
   O ( 10)  5.487203  7.308015  7.831848  6.456582  2.191795  6.427504
   O ( 11)  5.560332  6.857491  6.375730  8.975789  6.415374  2.203693
             O (  7)   O (  8)   O (  9)   O ( 10)
   O (  8) 10.520564
   O (  9)  7.916051  8.171227
   O ( 10)  8.618086  9.436532  7.876236
   O ( 11)  8.377163  7.386676 11.216637  7.594697

 A cutoff of  1.0D-11 yielded   2499 shell pairs
 There are     12861 function pairs (     14726 Cartesian)
 Smallest overlap matrix eigenvalue = 2.28E-03
 Guess MOs from SCF MO coefficient file
 Reading MOs from coefficient file
 Reading MOs from coefficient file
 A restricted Kohn-Sham SCF calculation will be
 performed using Pulay DIIS extrapolation
 Exchange:  B88      Correlation:  P86
 Using SG-1 standard quadrature grid
 SCF converges when DIIS error is below 1.0E-08
 Using Q-Chem read-in guess as SCF_GUESS READ specified.

 using 2 threads for integral computing
 -------------------------------------------------------
 OpenMP Integral computing Module                
 Release: version 1.0, May 2013, Q-Chem Inc. Pittsburgh 
 -------------------------------------------------------
 ---------------------------------------
  Cycle       Energy         DIIS Error
 ---------------------------------------
    1   -1830.5196066036      1.92E-09
    2   -1830.5196066036      8.98E-09 Convergence criterion met
 ---------------------------------------
 SCF time:  CPU 2.85 s  wall 1.50 s
 E(QM + QM/MM):    -1830.5196066036 E(MM):    2.2898634 E(Tot): -1828.229743171867 
 SCF   energy in the final basis set = -1828.22974317
 Total energy in the final basis set = -1828.22974317

 --------------------------------------------------------------

                    Orbital Energies (a.u.)
 --------------------------------------------------------------

 Alpha MOs
 -- Occupied --
******** -29.6388 -25.5982 -25.5860 -25.5821 -18.8911 -18.8856 -18.8803
-18.8739 -18.8712 -10.0654 -10.0548 -10.0487 -10.0415 -10.0393  -3.3249
 -2.1600  -2.1372  -2.1284  -1.0575  -1.0509  -1.0501  -1.0476  -1.0403
 -0.5793  -0.5305  -0.5211  -0.5166  -0.5150  -0.4577  -0.4448  -0.4405
 -0.4344  -0.4311  -0.4298  -0.4274  -0.4198  -0.4153  -0.4066  -0.4058
 -0.4050  -0.3990  -0.3954  -0.3805  -0.2831  -0.2765  -0.2373  -0.2270
 -- Virtual --
 -0.1044  -0.0947  -0.0917  -0.0858  -0.0749  -0.0721  -0.0660  -0.0532
 -0.0407  -0.0352  -0.0261   0.0124   0.1845   0.2084   0.2204   0.2363
  0.2927   0.3412   0.3811   0.4004   0.4071   0.4187   0.4246   0.4393
  0.4496   0.4739   0.4910   0.5055   0.5341   0.5555   0.5649   0.5939
  0.6040   0.6145   0.6362   0.6454   0.7400   0.7566   0.7623   0.7715
  0.7831   0.8209   0.8302   0.8478   0.8593   0.9267   0.9438   0.9570
  0.9712   0.9807   0.9869   0.9998   1.0109   1.0197   1.0286   1.0702
  1.1993   1.2268   1.2583   1.3396   1.4018   1.4093   1.4106   1.4125
  1.4198   1.4214   1.4344   1.4385   1.4563   1.4661   1.4733   1.4927
  1.5103   1.5142   1.5533   1.5741   1.6102   1.6540   1.6655   1.6814
  1.7201   1.8163   1.8304   1.8345   1.8436   1.8468   1.8496   1.8537
  1.8573   1.8604   1.8707   1.8859   1.8908   1.9099   1.9178   1.9674
  2.3568   2.3915   2.4031   2.4406   2.4573   2.4624   2.4701   2.4747
  2.5036   2.5203   2.6410   2.6424   2.6596   2.6627   2.6725   2.8052
  2.8139   2.8900   2.8954   2.9563  13.2647  13.2890  13.3435  13.3515
 13.4527  24.9026  24.9134  24.9442  24.9782  25.0131
 --------------------------------------------------------------

          Ground-State Mulliken Net Atomic Charges

     Atom                 Charge (a.u.)
  ----------------------------------------
      1 Fe                   -0.519905
      2 C                     0.242854
      3 C                     0.212811
      4 C                     0.224234
      5 C                     0.236499
      6 C                     0.198869
      7 O                    -0.125593
      8 O                    -0.114565
      9 O                    -0.123685
     10 O                    -0.118760
     11 O                    -0.112759
  ----------------------------------------
  Sum of atomic charges =     0.000000

 -----------------------------------------------------------------
                    Cartesian Multipole Moments
 -----------------------------------------------------------------
    Charge (ESU x 10^10)
                -0.0000
    Dipole Moment (Debye)
         X       0.1887933782      Y       0.2375831801      Z      -0.3881240950
       Tot       0.4926753700
    Quadrupole Moments (Debye-Ang)
        XX     153.3173     XY     145.6309     YY     -59.3563
        XZ    -235.0791     YZ     -16.3257     ZZ     -43.9086
    Octopole Moments (Debye-Ang^2)
       XXX   73833.9049    XXY   87623.9295    XYY  -35000.1107
       YYY   -4233.5741    XXZ -140005.4736    XYZ   -9809.7169
       YYZ    1757.0035    XZZ  -25843.0362    YZZ    -697.0356
       ZZZ    5563.4995
    Hexadecapole Moments (Debye-Ang^3)
      XXXX 9124115.9818   XXXY ************   XXYY ************
      XYYY ************   YYYY -190900.2312   XXXZ ************
      XXYZ ************   XYYZ 1035987.7339   YYYZ  134522.1288
      XXZZ ************   XYZZ -408376.4852   YYZZ  -84602.9064
      XZZZ 3289268.4757   YZZZ  112643.3500   ZZZZ -392323.4294
 -----------------------------------------------------------------
 Calculating MO derivatives via CPSCF
 Full subspace dimension requested for CIS/TDDFT
 MAX_CIS_SUBSPACE fits in available memory
    1     0    36    0.0411645  
    2     0    36    0.0063623  
    3     0    36    0.0007222  
    4     0    36    0.0000476  
    5    33     3    0.0000012  
    6    36     0    0.0000000  Converged
 Time for AOints: 6.6 s (CPU) 3.4 s (wall)
 ------------------------------------------------------------------------------
                     AOints        : Timing summary (seconds)
 ------------------------------------------------------------------------------
     job step          cpu (% of tot)      sys (% of tot)     wall (% of tot)
 ------------------------------------------------------------------------------
  AOints            0.6601E+01 ( 3.6)   0.1200E-04 ( 9.6)   0.3360E+01 ( 3.6)
 ------------------------------------------------------------------------------
   Grand Totals     0.1832E+03          0.1250E-03          0.9228E+02
 ------------------------------------------------------------------------------
 Polarizability Matrix (a.u.)
            1           2           3
    1 -90.6852172  -1.3815256   7.5115075
    2  -1.3815255 -99.1248233  -8.2488201
    3   7.5115075  -8.2488201 -82.9094172
 Derivative of Dipole Moment Matrix (a.u.)
            1           2           3
    1  -1.8968847  -0.0039897   0.0645329
    2  -0.0167186  -1.9564059   0.0004157
    3   0.0384804  -0.0813502  -1.8607756
    4   2.1288793  -0.6618558   0.0478961
    5  -0.6357700   0.6623540  -0.0342888
    6  -0.3085928   0.1193662   0.4201988
    7   1.5223425  -0.2210419  -1.0288819
    8  -0.3767725   0.4232593   0.3396269
    9  -0.8616926   0.1631291   1.2041912
   10   0.6239203   0.5691331   0.1573910
   11   0.5393335   1.8873682   0.3287880
   12   0.1822135   0.4270006   0.5341534
   13   0.4275310  -0.0672811   0.2047326
   14  -0.0826120   0.5990984  -0.6229896
   15   0.2545898  -0.5861527   2.0607018
   16   0.5286978   0.3606839   0.1317748
   17   0.4342669   2.0749279   0.4403920
   18   0.1264169   0.3193556   0.5300870
   19  -1.5197405   0.5321806  -0.0422786
   20   0.5004076  -0.3625186   0.0229934
   21   0.3281728  -0.1260077  -0.1689856
   22  -1.0505336   0.1637558   0.8311760
   23   0.3644042  -0.1992201  -0.3276151
   24   0.6513794  -0.1089699  -0.7840999
   25  -0.3266369  -0.4452057  -0.1159258
   26  -0.4561608  -1.3312083  -0.2891198
   27  -0.1364574  -0.3391957  -0.2405838
   28  -0.2001129   0.0587765  -0.1615537
   29   0.0854847  -0.3252364   0.5148118
   30  -0.2056510   0.4329875  -1.4781946
   31  -0.2374621  -0.2851557  -0.0888634
   32  -0.3558630  -1.4724185  -0.3730144
   33  -0.0688589  -0.2201628  -0.2166927
 -----------------------------------------
 Net:   0.00000  -0.00000  -0.00000
 -----------------------------------------

 Calculating analytic Hessian of the SCF energy
