                  Welcome to Q-Chem
     A Quantum Leap Into The Future Of Chemistry


 Q-Chem 5.4 (devel), Q-Chem, Inc., Pleasanton, CA (2021)

 E. Epifanovsky,  A. T. B. Gilbert,  Xintian Feng,  Joonho Lee,  Yuezhi Mao,  
 N. Mardirossian,  P. Pokhilko,  A. White,  M. Wormit,  M. P. Coons,  
 A. L. Dempwolff,  Zhengting Gan,  D. Hait,  P. R. Horn,  L. D. Jacobson,  
 I. Kaliman,  J. Kussmann,  A. W. Lange,  Ka Un Lao,  D. S. Levine,  Jie Liu,  
 S. C. McKenzie,  A. F. Morrison,  K. Nanda,  F. Plasser,  D. R. Rehn,  
 M. L. Vidal,  Zhi-Qiang You,  Ying Zhu,  B. Alam,  B. Albrecht,  
 A. Aldossary,  E. Alguire,  J. H. Andersen,  D. Barton,  K. Begam,  A. Behn,  
 Y. A. Bernard,  E. J. Berquist,  H. Burton,  A. Carreras,  K. Carter-Fenk,  
 R. Chakraborty,  A. D. Chien,  K. D. Closser,  V. Cofer-Shabica,  
 S. Dasgupta,  Jia Deng,  M. de Wergifosse,  M. Diedenhofen,  Hainam Do,  
 S. Ehlert,  Po-Tung Fang,  S. Fatehi,  Qingguo Feng,  T. Friedhoff,  
 J. Gayvert,  Qinghui Ge,  G. Gidofalvi,  M. Goldey,  J. Gomes,  
 C. Gonzalez-Espinoza,  S. Gulania,  A. Gunina,  M. W. D. Hanson-Heine,  
 P. H. P. Harbach,  A. W. Hauser,  M. F. Herbst,  M. Hernandez Vera,  
 M. Hodecker,  Z. C. Holden,  S. Houck,  Xunkun Huang,  Kerwin Hui,  
 B. C. Huynh,  M. Ivanov,  Hyunjun Ji,  Hanjie Jiang,  B. Kaduk,  S. Kaehler,  
 K. Khistyaev,  Jaehoon Kim,  P. Klunzinger,  Z. Koczor-Benda,  
 Joong Hoon Koh,  D. Kosenkov,  L. Koulias,  T. Kowalczyk,  C. M. Krauter,  
 K. Kue,  A. Kunitsa,  T. Kus,  A. Landau,  K. V. Lawler,  D. Lefrancois,  
 S. Lehtola,  Rain Li,  Yi-Pei Li,  Jiashu Liang,  M. Liebenthal,  
 Hung-Hsuan Lin,  You-Sheng Lin,  Fenglai Liu,  Kuan-Yu Liu,  
 M. Loipersberger,  A. Luenser,  A. Manjanath,  P. Manohar,  E. Mansoor,  
 S. F. Manzer,  Shan-Ping Mao,  A. V. Marenich,  T. Markovich,  S. Mason,  
 S. A. Maurer,  P. F. McLaughlin,  M. F. S. J. Menger,  J.-M. Mewes,  
 S. A. Mewes,  P. Morgante,  J. W. Mullinax,  K. J. Oosterbaan,  G. Paran,  
 Alexander C. Paul,  Suranjan K. Paul,  F. Pavosevic,  Zheng Pei,  S. Prager,  
 E. I. Proynov,  E. Ramos,  B. Rana,  A. E. Rask,  A. Rettig,  R. M. Richard,  
 F. Rob,  E. Rossomme,  T. Scheele,  M. Scheurer,  M. Schneider,  
 N. Sergueev,  S. M. Sharada,  W. Skomorowski,  D. W. Small,  C. J. Stein,  
 Yu-Chuan Su,  E. J. Sundstrom,  Zhen Tao,  J. Thirman,  T. Tsuchimochi,  
 N. M. Tubman,  S. P. Veccham,  O. Vydrov,  J. Wenzel,  J. Witte,  A. Yamada,  
 Kun Yao,  S. Yeganeh,  S. R. Yost,  A. Zech,  Igor Ying Zhang,  Xing Zhang,  
 Yu Zhang,  D. Zuev,  A. Aspuru-Guzik,  A. T. Bell,  N. A. Besley,  
 K. B. Bravaya,  B. R. Brooks,  D. Casanova,  Jeng-Da Chai,  S. Coriani,  
 C. J. Cramer,  A. E. DePrince, III,  R. A. DiStasio Jr.,  A. Dreuw,  
 B. D. Dunietz,  T. R. Furlani,  W. A. Goddard III,  S. Grimme,  
 S. Hammes-Schiffer,  T. Head-Gordon,  W. J. Hehre,  Chao-Ping Hsu,  
 T.-C. Jagau,  Yousung Jung,  A. Klamt,  Jing Kong,  D. S. Lambrecht,  
 WanZhen Liang,  N. J. Mayhall,  C. W. McCurdy,  J. B. Neaton,  
 C. Ochsenfeld,  J. A. Parkhill,  R. Peverati,  V. A. Rassolov,  Yihan Shao,  
 L. V. Slipchenko,  T. Stauch,  R. P. Steele,  J. E. Subotnik,  
 A. J. W. Thom,  A. Tkatchenko,  D. G. Truhlar,  T. Van Voorhis,  
 T. A. Wesolowski,  K. B. Whaley,  H. L. Woodcock III,  P. M. Zimmerman,  
 S. Faraji,  P. M. W. Gill,  M. Head-Gordon,  J. M. Herbert,  A. I. Krylov

 Additional authors for Version 5.4.1: 
 S. Kotaru,  Shaozhi Li,  Xiangyuan Li,  F. Matz,  A. Molle,  Haisheng Ren,  
 Yingli Su,  Hung-Yi Tsai,  C. Utku,  Fang Wang

 Contributors to earlier versions of Q-Chem not listed above: 
 R. D. Adamson,  B. Austin,  R. Baer,  J. Baker,  G. J. O. Beran,  
 K. Brandhorst,  S. T. Brown,  E. F. C. Byrd,  A. K. Chakraborty,  
 G. K. L. Chan,  Chun-Min Chang,  Yunqing Chen,  C.-L. Cheng,  
 Siu Hung Chien,  D. M. Chipman,  D. L. Crittenden,  H. Dachsel,  
 R. J. Doerksen,  A. D. Dutoi,  R. G. Edgar,  J. Fosso-Tande,  
 L. Fusti-Molnar,  D. Ghosh,  A. Ghysels,  A. Golubeva-Zadorozhnaya,  
 J. Gonthier,  M. S. Gordon,  S. R. Gwaltney,  G. Hawkins,  J. E. Herr,  
 A. Heyden,  S. Hirata,  E. G. Hohenstein,  G. Kedziora,  F. J. Keil,  
 C. Kelley,  Jihan Kim,  R. A. King,  R. Z. Khaliullin,  P. P. Korambath,  
 W. Kurlancheek,  A. Laurent,  A. M. Lee,  M. S. Lee,  S. V. Levchenko,  
 Ching Yeh Lin,  D. Liotard,  E. Livshits,  R. C. Lochan,  I. Lotan,  
 L. A. Martinez-Martinez,  P. E. Maslen,  N. Nair,  D. P. O'Neill,  
 D. Neuhauser,  E. Neuscamman,  C. M. Oana,  R. Olivares-Amaya,  R. Olson,  
 T. M. Perrine,  B. Peters,  P. A. Pieniazek,  A. Prociuk,  Y. M. Rhee,  
 J. Ritchie,  M. A. Rohrdanz,  E. Rosta,  N. J. Russ,  H. F. Schaefer III,  
 M. W. Schmidt,  N. E. Schultz,  S. Sharma,  N. Shenvi,  C. D. Sherrill,  
 A. C. Simmonett,  A. Sodt,  T. Stein,  D. Stuck,  K. S. Thanthiriwatte,  
 V. Vanovschi,  L. Vogt,  Tao Wang,  A. Warshel,  M. A. Watson,  
 C. F. Williams,  Q. Wu,  X. Xu,  Jun Yang,  W. Zhang,  Yan Zhao

 Please cite Q-Chem as follows:
 Y. Shao et al., Mol. Phys. 113, 184-215 (2015)
 DOI: 10.1080/00268976.2014.952696

 Q-Chem 5.4.1 for Intel X86 EM64T Linux

 Parts of Q-Chem use Armadillo 9.900.5 (Nocturnal Misbehaviour).
 http://arma.sourceforge.net/

 Q-Chem begins on Wed Jun 22 16:41:24 2022  

 Host: p09r14n13.grace.hpc.yale.internal
0

     Scratch files written to /home/tl686/scratch60/qchem_dev/scratch/qchem247317//
 Processing $rem in /home/tl686/qchem_dev/qchem/config/preferences:
 Processing $rem in /home/tl686/.qchemrc:
Applying user defined connections for MM calculations

 Checking the input file for inconsistencies... 	...done.

--------------------------------------------------------------
User input:
--------------------------------------------------------------
$molecule
0   1
 Fe -1430.12003128 15.95583084 38.69956606    -1  0   0   0   0
C -1429.44775088 18.92495128 37.26895853    -2  0   0   0   0 
C -1429.66871953 16.14727569 42.10546446    -2  0   0   0   0
C -1433.52589577 16.12959812 39.05844349    -2  0   0   0   0
C -1430.65360281 13.82630722 36.08996286    -2  0   0   0   0
C -1426.76749314 14.98467794 38.27005718    -2  0   0   0   0
O -1429.08536444 20.98433806 36.66073368    -3  0   0   0   0
O -1429.25878126 16.29254291 44.28183491    -3  0   0   0   0 
O -1435.76394753 15.83008175 39.05890106    -3  0   0   0   0
O -1430.98971703 12.83791541 34.14888334    -3  0   0   0   0 
O -1424.84161703 14.18981306 37.75521260    -3  0   0   0   0
H -1446.98623392 42.04338959 24.05995611      6     13    0    0    0 
C -1445.28707333 42.31969375 22.96561775     1     12    14    15    16
H -1445.76574577 44.05916059 22.05039015     6     13    0    0    0
H -1443.65718895 42.77347495 24.15466404     6     13    0    0    0
C -1444.64187664 40.20119778 21.04920668     2     13    17    18    19
H -1446.24160902 39.79669348 19.74320749     6     16    0    0    0
H -1443.17892700 40.75883783 19.73851607     6     16    0    0    0
C -1443.94870660 37.67503215 22.27542472     2     16    20   21   22
H -1442.12284129 37.84032499 23.35501709     6     19    0    0    0
H -1445.44867146 37.16791758 23.54007281     6     19    0    0    0
C -1443.83021132 35.43333840 20.26749754     2     19   23   24   25
H -1445.68619944 35.09489591 19.35329794     6    22    0    0    0
H -1442.60732476 36.00680567 18.60959813     6    22    0    0    0
C -1442.99750402 32.81946712 21.28576425     2    22   26   27   28
H -1441.07176144 32.91192456 21.86208843     6    25    0    0    0
H -1444.08525177 32.44477390 22.99608422     6    25    0    0    0
C -1443.50813844 31.08148469 19.23011728     2    25   29   30   31
H -1445.55160440 30.87771387 19.12150641     6    28    0    0    0
H -1442.73969725 31.87043956 17.54148633     6    28    0    0    0
C -1442.41866042 28.34773114 19.52387194     2    28   32   33   34
H -1440.48356369 28.70410429 19.41435179     6    31    0    0    0
H -1443.00351769 27.57455740 21.40176283     6    31    0    0    0
C -1443.11859580 26.58671132 17.32602181     2    31   35   36   37
H -1445.06568534 25.92686187 17.52523147     6    34    0    0    0
H -1442.83413061 27.27978048 15.36110871     6    34    0    0    0
C -1441.47110199 24.24183858 17.33290855     2    34   38   39   40
H -1439.56733302 24.70793931 17.85987914     6    37    0    0    0
H -1442.26833410 22.99618981 18.88650852     6    37    0    0    0
C -1441.37434531 22.64186814 14.93842805     2    37   41   42   43
H -1443.28671502 22.62898058 14.26966049     6    40    0    0    0
H -1440.08838610 23.52752759 13.51475739     6    40    0    0    0
C -1440.43162172 19.92658780 15.49803830     2    40   44   45   46
H -1438.98023056 19.95479356 16.88373370     6    43    0    0    0
H -1442.05799264 18.96309013 16.25105244     6    43    0    0    0
C -1439.70933936 18.55019559 13.16253712     1    43   47   48   49
H -1441.21813519 18.25589066 11.86398619     6    46    0    0    0
H -1439.01114846 16.72845357 13.54835574     6    46    0    0    0
H -1438.17124661 19.43293362 12.15230428     6    46    0    0    0
H -1427.05860166 13.71196157 24.58072687     6     51    0    0    0 
C -1427.97105160 13.44992379 26.40952355     1     50    52    53    54
H -1428.64193656 11.53820615 26.80298610     6     51    0    0    0
H -1426.50078091 13.60294806 27.89980841     6     51    0    0    0
C -1430.21545791 15.35286221 26.58085388     2     51    55    56    57
H -1430.55777948 15.72263771 28.52604327     6     54    0    0    0
H -1429.64687390 17.07981090 25.87833512     6     54    0    0    0
C -1432.72611715 14.62744032 25.51008746     2     54    58   59   60
H -1433.29369804 12.87183634 26.46402107     6     57    0    0    0
H -1434.09668349 16.06583893 26.13411601     6     57    0    0    0
C -1432.63397294 14.26959309 22.57527976     2     57   61   62   63
H -1432.05396576 16.10404773 21.90782352     6    60    0    0    0
H -1431.22516045 12.81379756 22.04478653     6    60    0    0    0
C -1435.20355585 14.00164581 21.29012582     2    60   64   65   66
H -1435.84918129 11.97282861 21.67095118     6    63    0    0    0
H -1436.71777895 15.23624630 21.95030084     6    63    0    0    0
C -1435.03653300 14.14865929 18.34120373     2    63   67   68   69
H -1436.80845337 13.20042200 17.64415995     6    66    0    0    0
H -1435.18090163 16.11158360 17.82792175     6    66    0    0    0
C -1432.53877977 13.17703657 17.25065922     2    66   70   71   72
H -1430.95667770 14.20618182 18.09012384     6    69    0    0    0
H -1432.27534755 11.18558127 17.77035864     6    69    0    0    0
C -1432.37604344 13.07112830 14.35542364     2    69   73   74   75
H -1434.01011669 12.30710060 13.38888341     6    72    0    0    0
H -1432.22375877 15.04964416 13.64011732     6    72    0    0    0
C -1429.81288181 11.77036781 13.58585731     2    72   76   77   78
H -1428.36193280 12.76056739 14.55024572     6    75    0    0    0
H -1430.03169389 9.77583322 14.22675082     6    75    0    0    0
C -1429.78772688 11.91782684 10.68075497     2    75   79   80   81
H -1431.11532202 10.75407032 9.82914600     6    78    0    0    0
H -1430.23701732 13.94454419 10.13547810     6    78    0    0    0
C -1427.19105915 11.21166757 9.49860457     2    78   82   83   84
H -1425.65152951 12.47063310 10.09826793     6    81    0    0    0
H -1426.62353748 9.35626495 10.11960533     6    81    0    0    0
C -1427.43376675 11.22646622 6.59871846     1    81   85   86   87
H -1425.60229123 10.96575256 5.83163481     6    84    0    0    0
H -1427.72775289 13.20415419 5.82323504     6    84    0    0    0
H -1428.90623595 9.86899615 5.74276576     6    84    0    0    0
H -1456.73285491 28.33054708 31.70985497     6     89    0    0    0 
C -1456.94494038 27.04152226 30.22018244     1     88    90    91    92
H -1456.40303755 25.34999442 31.26614781     6     89    0    0    0
H -1458.97233739 26.75085720 29.90971547     6     89    0    0    0
C -1455.41385034 27.59382541 27.76090879     2     89    93    94    95
H -1455.99358330 29.50732021 27.00916617     6     92    0    0    0
H -1453.39110413 27.63997033 28.28362080     6     92    0    0    0
C -1456.07124603 25.58398802 25.83894657     2     92    96   97   98
H -1455.41155130 23.65975245 26.29639447     6     95    0    0    0
H -1458.10056838 25.30589270 25.61063819     6     95    0    0    0
C -1455.36057329 26.37250511 23.07186456     2     95   99   100   101
H -1456.15270543 28.18824522 22.50885217     6    98    0    0    0
H -1453.26690645 26.39196115 23.03662439     6    98    0    0    0
C -1456.39542477 24.48146398 21.20470764     2    98   102   103   104
H -1455.95074373 22.66830121 21.70215611     6    101    0    0    0
H -1458.46918803 24.91824894 21.05926972     6    101    0    0    0
C -1455.27482860 24.66501084 18.59081507     2    101   105   106   107
H -1455.61593955 26.49351525 17.80848893     6    104    0    0    0
H -1453.26908526 24.44923797 18.57010883     6    104    0    0    0
C -1456.24807039 22.61014588 16.91094794     2    104   108   109   110
H -1455.87057738 20.73801238 17.73877616     6    107    0    0    0
H -1458.30607412 22.90009398 17.01492555     6    107    0    0    0
C -1455.28194242 22.55810996 13.99564555     2    107   111   112   113
H -1455.96425502 24.10537462 12.90193947     6    110    0    0    0
H -1453.19663515 22.70160876 14.03907286     6    110    0    0    0
C -1455.74677944 19.96383809 12.74288397     2    110   114   115   116
H -1454.89260867 18.34493075 13.79660626     6    113    0    0    0
H -1457.79787645 19.64319981 12.46909353     6    113    0    0    0
C -1454.67717619 19.81840470 10.05102577     2    113   117   118   119
H -1455.16014963 21.60003737 8.98206853     6    116    0    0    0
H -1452.60694184 19.98203312 10.25494373     6    116    0    0    0
C -1455.31390189 17.35380686 8.69237476     2    116   120   121   122
H -1454.42984927 17.12922383 6.92665334     6    119    0    0    0
H -1454.63719918 15.81811444 9.94096326     6    119    0    0    0
C -1458.19719166 16.89491333 8.26337353     1    119   123   124   125
H -1458.59146073 15.01392615 7.55285772     6    122    0    0    0
H -1458.89963215 18.22893522 6.95083152     6    122    0    0    0
H -1459.21954667 17.04562937 10.11033015     6    122    0    0    0
H -1462.02437015 16.53161956 55.97142074     6     127    0    0    0 
C -1460.21186930 15.58070468 55.60536611     1     126    128    129    130
H -1459.09782611 15.77562987 57.34659797     6     127    0    0    0
H -1460.62820778 13.58573401 55.35153195     6     127    0    0    0
C -1458.80605580 16.51966409 53.21586673     2     127    131    132    133
H -1459.87596548 16.39190359 51.40427731     6     130    0    0    0
H -1458.25910822 18.49166767 53.30649579     6     130    0    0    0
C -1456.57350087 14.61665225 52.86165165     2     130    134   135   136
H -1455.22305192 14.52169987 54.52885316     6     133    0    0    0
H -1457.50462665 12.78724563 52.61501696     6     133    0    0    0
C -1454.88691002 15.32403018 50.56929227     2     133   137   138   139
H -1455.78875737 14.56614799 49.02115208     6    136    0    0    0
H -1454.82124678 17.35607285 50.39938986     6    136    0    0    0
C -1452.20364660 14.25754828 50.88667900     2    136   140   141   142
H -1451.45256931 15.05379802 52.83764829     6    139    0    0    0
H -1452.25667055 12.20810959 51.02291677     6    139    0    0    0
C -1450.41300356 15.13979135 48.73449011     2    139   143   144   145
H -1450.80693630 14.34310382 46.91383898     6    142    0    0    0
H -1450.69450937 17.19826908 48.68308021     6    142    0    0    0
C -1447.73741895 14.36850957 49.49671804     2    142   146   147   148
H -1447.30464837 15.05813125 51.35656309     6    145    0    0    0
H -1447.52031300 12.34377517 49.43425463     6    145    0    0    0
C -1445.61542344 15.24101272 47.78388984     2    145   149   150   151
H -1445.99631211 14.57404453 45.85308696     6    148    0    0    0
H -1445.67005724 17.33217335 47.62251664     6    148    0    0    0
C -1442.93195537 14.43617349 48.47458068     2    148   152   153   154
H -1442.11368556 15.12757707 50.19957461     6    151    0    0    0
H -1442.88382809 12.42744019 48.77274264     6    151    0    0    0
C -1441.17252994 14.88833320 46.29671389     2    151   155   156   157
H -1439.31290693 13.98713575 46.70864124     6    154    0    0    0
H -1441.65726571 14.01872423 44.56044943     6    154    0    0    0
C -1440.77602521 17.78965978 45.98123759     2    154   158   159   160
H -1442.62756052 18.62131446 45.61706591     6    157    0    0    0
H -1440.30957077 18.51570644 47.78235942     6    157    0    0    0
C -1439.08526198 18.65207738 43.93046607     1    157   161   162   163
H -1439.06059133 20.71897341 43.86412908     6    160    0    0    0
H -1439.83048487 17.99202053 42.17532646     6    160    0    0    0
H -1437.28122096 18.00926707 44.05459089     6    160    0    0    0
H -1465.23369368 -3.91212057 33.73240099     6     165    0    0    0 
C -1464.22596099 -3.82773998 35.54836824     1     164    166    167    168
H -1463.39566868 -1.96087232 35.75302759     6     165    0    0    0
H -1465.64763400 -4.08706138 36.95394166     6     165    0    0    0
C -1462.31976252 -5.88968099 35.97626442     2     165    169    170    171
H -1463.35100411 -7.70428153 35.91635860     6     168    0    0    0
H -1461.13033783 -5.94702489 34.36316114     6     168    0    0    0
C -1460.90233292 -5.41682154 38.47244340     2     168    172   173   174
H -1460.02076689 -3.65034231 38.68571828     6     171    0    0    0
H -1462.16123432 -5.52854233 40.11857547     6     171    0    0    0
C -1458.92751346 -7.29822398 38.98210328     2     171   175   176   177
H -1459.75012903 -9.22818285 39.02762279     6    174    0    0    0
H -1457.39799198 -7.11918578 37.39650087     6    174    0    0    0
C -1457.87789162 -6.87676997 41.65382871     2    174   178   179   180
H -1457.25912742 -4.82880714 41.86783186     6    177    0    0    0
H -1459.39280287 -7.00454973 42.97843891     6    177    0    0    0
C -1455.84622702 -8.83420755 42.51982606     2    177   181   182   183
H -1456.63549836 -10.71456032 42.61001176     6    180    0    0    0
H -1454.39222549 -9.16211126 41.08111437     6    180    0    0    0
C -1454.42294973 -8.09770456 44.90092886     2    180   184   185   186
H -1453.24474376 -6.51681632 44.49862646     6    183    0    0    0
H -1455.88016802 -7.59349836 46.34192311     6    183    0    0    0
C -1452.77728525 -10.23837213 45.95940732     2    183   187   188   189
H -1454.03906181 -11.88278589 46.15601666     6    186    0    0    0
H -1451.36938364 -11.13160005 44.78497710     6    186    0    0    0
C -1451.65134591 -9.63220197 48.61618755     2    186   190   191   192
H -1450.34888671 -8.04652411 48.61569499     6    189    0    0    0
H -1453.15624799 -9.13011132 49.92642989     6    189    0    0    0
C -1450.13361887 -11.86457160 49.84763411     2    189   193   194   195
H -1451.24589423 -13.49394394 50.43598638     6    192    0    0    0
H -1448.53221620 -12.60892533 48.70266557     6    192    0    0    0
C -1448.82202431 -10.93574216 52.26819335     2    192   196   197   198
H -1447.22374869 -9.69864119 51.72214087     6    195    0    0    0
H -1450.19173962 -9.85922001 53.37514817     6    195    0    0    0
C -1447.78898063 -13.20955898 53.77090931     1    195   199   200   201
H -1447.50490925 -12.68799239 55.68271730     6    198    0    0    0
H -1446.01221906 -14.06206166 53.25141827     6    198    0    0    0
H -1449.00769611 -14.81872331 53.90298157     6    198    0    0    0
H -1448.79776896 0.72343578 26.83622571     6     203    0    0    0 
C -1449.44403073 -0.69070718 28.24958839     1     202    204    205    206
H -1447.93623165 -1.81199022 29.12531520     6     203    0    0    0
H -1450.50774531 0.23155988 29.77672290     6     203    0    0    0
C -1450.85860421 -2.56172140 26.60872502     2     203    207    208    209
H -1451.55762055 -4.19171749 27.67897567     6     206    0    0    0
H -1452.32881320 -1.71929532 25.62155916     6     206    0    0    0
C -1449.05499025 -3.71858305 24.72417099     2     206    210   211   212
H -1450.10024447 -4.11982596 23.01892195     6     209    0    0    0
H -1447.63825245 -2.34856376 24.24572547     6     209    0    0    0
C -1447.68992700 -6.09576470 25.71452369     2     209   213   214   215
H -1446.91761155 -5.88496934 27.49204268     6    212    0    0    0
H -1449.23724380 -7.46423274 26.09796658     6    212    0    0    0
C -1445.64323757 -7.19957321 24.10965409     2    212   216   217   218
H -1446.53661087 -7.37800016 22.30054025     6    215    0    0    0
H -1444.22089669 -5.57584261 24.13082534     6    215    0    0    0
C -1444.36956129 -9.49505677 25.16456321     2    215   219   220   221
H -1443.18117455 -8.97771933 26.72714348     6    218    0    0    0
H -1445.75101883 -10.73676113 26.07516942     6    218    0    0    0
C -1442.96673787 -10.93590615 23.22994906     2    218   222   223   224
H -1444.24269870 -12.18767269 22.19319093     6    221    0    0    0
H -1442.15656924 -9.62494537 21.77696214     6    221    0    0    0
C -1440.82867016 -12.40825096 24.38837510     2    221   225   226   227
H -1439.67535401 -11.46608874 25.71385130     6    224    0    0    0
H -1441.59411548 -13.82536442 25.79447713     6    224    0    0    0
C -1439.36561712 -13.80868018 22.42353628     2    224   228   229   230
H -1440.42210256 -15.47569404 21.69736304     6    227    0    0    0
H -1439.52739515 -12.50338202 20.80120656     6    227    0    0    0
C -1436.57071237 -14.53429644 23.06562543     2    227   231   232   233
H -1435.59476912 -12.84208737 23.70136949     6    230    0    0    0
H -1436.48261563 -15.94560821 24.52338208     6    230    0    0    0
C -1435.31842414 -15.78333898 20.70231770     2    230   234   235   236
H -1436.20086111 -17.62037622 20.40671850     6    233    0    0    0
H -1435.54340765 -14.85667236 18.81481692     6    233    0    0    0
C -1432.65684514 -16.40550460 21.25019792     1    233   237   238   239
H -1431.90796987 -17.61152568 19.81549845     6    236    0    0    0
H -1432.51033812 -17.33321486 23.07629026     6    236    0    0    0
H -1431.62012955 -14.64717672 21.32175037     6    236    0    0    0
H -1435.10050234 11.39624215 8.88304817     6     241    0    0    0 
C -1437.11063401 11.54138905 8.97164546     1     240    242    243    244
H -1437.90759829 9.62146148 8.77280676     6     241    0    0    0
H -1437.75275912 12.11634189 10.79763269     6     241    0    0    0
C -1438.02103707 13.19404320 6.85801540     2     241    245    246    247
H -1437.62958647 12.42907923 5.09920544     6     244    0    0    0
H -1440.06103085 13.23475109 7.13315465     6     244    0    0    0
C -1436.86094260 15.85088346 6.99063037     2     244    248   249   250
H -1438.16030646 17.41575182 6.30523396     6     247    0    0    0
H -1436.15841709 16.50031312 8.77011385     6     247    0    0    0
C -1434.52965314 15.84106659 5.20178899     2     247   251   252   253
H -1433.32621254 17.34969916 5.70912763     6    250    0    0    0
H -1433.09883806 14.32709813 5.53128301     6    250    0    0    0
C -1434.90936541 16.57589143 2.39482327     2    250   254   255   256
H -1435.96578037 15.06642582 1.43581780     6    253    0    0    0
H -1435.81705915 18.30554645 2.06343109     6    253    0    0    0
C -1432.37342125 17.16761477 1.12378623     2    253   257   258   259
H -1433.04979620 17.57326999 -0.82572944     6    256    0    0    0
H -1431.44787970 18.88254458 1.91732995     6    256    0    0    0
C -1430.41021691 15.00144099 0.89576135     2    256   260   261   262
H -1429.36453121 15.08030682 2.59684886     6    259    0    0    0
H -1431.29730606 13.16440603 0.80999395     6    259    0    0    0
C -1428.84968464 15.13931720 -1.51230512     2    259   263   264   265
H -1430.07512804 14.75140805 -3.05635194     6    262    0    0    0
H -1428.25058445 17.08631871 -1.72661729     6    262    0    0    0
C -1426.61851971 13.17515639 -1.33107635     2    262   266   267   268
H -1425.74261623 13.29482034 0.64704199     6    265    0    0    0
H -1427.48562779 11.30862467 -1.69862825     6    265    0    0    0
C -1424.51083947 13.21559309 -3.35414892     2    265   269   270   271
H -1425.19430468 13.03366646 -5.24109924     6    268    0    0    0
H -1423.81938643 15.14102730 -3.32158179     6    268    0    0    0
C -1422.40119037 11.44039473 -2.90184856     2    268   272   273   274
H -1420.90243175 12.27330919 -1.69637516     6    271    0    0    0
H -1422.91706941 9.68281713 -1.92480868     6    271    0    0    0
C -1420.94874411 10.71469853 -5.44575626     1    271   275   276   277
H -1422.28169013 10.19249820 -6.85709851     6    274    0    0    0
H -1419.40784343 9.16079377 -5.13575491     6    274    0    0    0
H -1420.00216662 12.47378890 -5.97160278     6    274    0    0    0
H -1456.54380868 2.08751928 17.49620827     6     279    0    0    0 
C -1455.29314050 1.80967228 15.94396994     1     278    280    281    282
H -1455.90371114 0.27985367 14.71744950     6     279    0    0    0
H -1455.68505019 3.64511261 14.96199907     6     279    0    0    0
C -1452.66819746 1.21844645 16.92625282     2     279    283    284    285
H -1451.60943890 2.73232871 17.82993199     6     282    0    0    0
H -1453.01840560 -0.32854255 18.18595163     6     282    0    0    0
C -1451.02136137 0.20810842 14.75384922     2     282    286   287   288
H -1451.46373412 -1.62865250 14.05185961     6     285    0    0    0
H -1450.84916996 1.61799522 13.26947762     6     285    0    0    0
C -1448.30337701 -0.37787530 15.53804327     2     285   289   290   291
H -1447.27615978 1.35865886 16.02771540     6    288    0    0    0
H -1448.41137688 -1.44405182 17.33936185     6    288    0    0    0
C -1446.84018071 -1.62450756 13.40860171     2    288   292   293   294
H -1447.71801546 -3.45049180 13.02137765     6    291    0    0    0
H -1446.77285880 -0.41791765 11.67420368     6    291    0    0    0
C -1444.02199576 -1.86415626 14.33009942     2    291   295   296   297
H -1443.29709897 -0.12657986 15.30314176     6    294    0    0    0
H -1443.86081528 -3.28756678 15.83177715     6    294    0    0    0
C -1442.26607592 -2.67543282 12.21899230     2    294   298   299   300
H -1442.91582252 -4.52672972 11.31974251     6    297    0    0    0
H -1442.29272324 -1.55436279 10.48048591     6    297    0    0    0
C -1439.53752744 -3.11812128 13.14020325     2    297   301   302   303
H -1439.17011009 -1.31077957 13.93151554     6    300    0    0    0
H -1439.12596460 -4.40330171 14.62152225     6    300    0    0    0
C -1437.94912704 -3.79935179 10.85362868     2    300   304   305   306
H -1438.93035380 -5.26099252 9.85182762     6    303    0    0    0
H -1437.94605345 -2.06929644 9.57769009     6    303    0    0    0
C -1435.45889561 -4.81096731 11.62507736     2    303   307   308   309
H -1434.49765499 -3.61043160 12.98482263     6    306    0    0    0
H -1435.87828625 -6.64484600 12.58141615     6    306    0    0    0
C -1433.61870403 -5.21651686 9.31314388     2    306   310   311   312
H -1434.55663919 -6.15047003 7.88972461     6    309    0    0    0
H -1433.06113687 -3.27492892 8.70235363     6    309    0    0    0
C -1431.27029809 -6.75430062 9.84571318     1    309   313   314   315
H -1429.90518284 -6.93636989 8.42783076     6    312    0    0    0
H -1432.15960744 -8.38692165 10.68716641     6    312    0    0    0
H -1430.19399024 -5.83385947 11.42781217     6    312    0    0    0
H -1448.31151785 11.03206849 29.94924940     6     317    0    0    0 
C -1447.46031571 11.86214090 28.10862514     1     316    318    319    320
H -1445.65025495 12.64923483 28.39533705     6     317    0    0    0
H -1447.40524287 10.43715115 26.69947345     6     317    0    0    0
C -1449.40760231 13.97098122 27.43089057     2     317    321    322    323
H -1448.65000850 15.30429238 26.04958101     6     320    0    0    0
H -1451.20815618 13.29631128 26.68624476     6     320    0    0    0
C -1450.21817096 15.54146490 29.64770116     2     320    324   325   326
H -1451.60081366 16.91399732 29.26655317     6     323    0    0    0
H -1451.09997279 14.12069596 31.03676127     6     323    0    0    0
C -1447.98774659 16.98050534 30.75591950     2     323   327   328   329
H -1446.07859680 16.16239841 30.34948719     6    326    0    0    0
H -1448.26737831 18.70127838 29.68875024     6    326    0    0    0
C -1448.65661454 17.35841184 33.52719990     2    326   330   331   332
H -1450.44304806 18.16516261 33.90095432     6    329    0    0    0
H -1448.49786635 15.69668230 34.59715984     6    329    0    0    0
C -1446.66182064 19.30228892 34.42512261     2    329   333   334   335
H -1446.53339970 20.97007881 33.25722644     6    332    0    0    0
H -1447.65776080 20.04436068 35.98268249     6    332    0    0    0
C -1444.03323748 18.47293905 34.99324585     2    332   336   337   338
H -1444.06711043 17.19049316 36.66974380     6    335    0    0    0
H -1443.34182980 17.24749807 33.44371196     6    335    0    0    0
C -1442.24827154 20.70452294 35.68204881     2    335   339   340   341
H -1440.51908118 19.99874210 35.63372425     6    338    0    0    0
H -1442.35959752 22.09293307 34.01496295     6    338    0    0    0
C -1442.72629112 22.10839684 38.22070593     2    338   342   343   344
H -1444.56274828 23.05518117 38.05935506     6    341    0    0    0
H -1442.61484878 20.64719809 39.69421842     6    341    0    0    0
C -1440.44078218 23.84620408 39.04101904     2    341   345   346   347
H -1440.47214100 24.47010152 40.98368546     6    344    0    0    0
H -1438.74687295 22.65153302 38.99569393     6    344    0    0    0
C -1440.02300859 26.06393948 37.23433587     2    344   348   349   350
H -1439.88288117 25.54268814 35.19945528     6    347    0    0    0
H -1441.54450326 27.29056079 37.48221029     6    347    0    0    0
C -1437.56030416 27.55287308 37.83776640     1    347   351   352   353
H -1437.52398837 29.17852615 36.82171974     6    350    0    0    0
H -1435.74927409 26.57918631 37.82648058     6    350    0    0    0
H -1438.09073502 27.95773532 39.70901790     6    350    0    0    0
H -1442.18213134 10.59119617 15.58093403     6     355    0    0    0 
C -1443.14318945 10.97489179 17.46238016     1     354    356    357    358
H -1441.64786486 10.91827892 18.94354286     6     355    0    0    0
H -1443.75490162 12.94636071 17.57259370     6     355    0    0    0
C -1445.40437276 9.23230930 17.75073669     2     355    359    360    361
H -1446.58824830 9.41378791 16.04567795     6     358    0    0    0
H -1444.69772281 7.37268498 17.63511224     6     358    0    0    0
C -1447.13396398 9.86216329 19.98602345     2     358    362   363   364
H -1446.06047773 9.67381128 21.78270611     6     361    0    0    0
H -1447.47092915 11.90881725 19.81039303     6     361    0    0    0
C -1449.47784015 8.03419876 20.02372521     2     361   365   366   367
H -1450.66367128 8.38729183 18.32822379     6    364    0    0    0
H -1448.99102597 5.97118446 20.10368283     6    364    0    0    0
C -1450.90783127 8.62377517 22.53843512     2    364   368   369   370
H -1449.61122535 8.06269891 24.01972047     6    367    0    0    0
H -1451.00370228 10.61826437 22.92311602     6    367    0    0    0
C -1453.38937897 7.39604699 22.96967069     2    367   371   372   373
H -1454.73896201 8.44984339 21.76968091     6    370    0    0    0
H -1453.47843214 5.43215423 22.10283273     6    370    0    0    0
C -1454.26550110 7.58545960 25.79916672     2    370   374   375   376
H -1452.65551484 7.54417706 27.04249984     6    373    0    0    0
H -1454.92639798 9.57268936 25.92139425     6    373    0    0    0
C -1456.45096457 5.71780086 26.52384903     2    373   377   378   379
H -1457.72458054 5.81806184 24.92294468     6    376    0    0    0
H -1455.69194320 3.81603243 26.29519252     6    376    0    0    0
C -1457.78268005 6.21996375 29.01912910     2    376   380   381   382
H -1458.01528408 8.26614127 29.11193903     6    379    0    0    0
H -1459.64985222 5.26687557 29.16537011     6    379    0    0    0
C -1456.22441267 5.39247303 31.30446457     2    379   383   384   385
H -1455.56721558 3.43210525 31.18682393     6    382    0    0    0
H -1454.41993638 6.40857850 31.27373090     6    382    0    0    0
C -1457.43681104 5.70858723 33.94088628     2    382   386   387   388
H -1455.98448706 5.29271797 35.41091558     6    385    0    0    0
H -1458.12819799 7.73624770 34.26357093     6    385    0    0    0
C -1459.75589211 3.99278325 34.36463741     1    385   389   390   391
H -1460.53985360 4.36537016 36.06780852     6    388    0    0    0
H -1459.18573747 2.06909006 34.12879941     6    388    0    0    0
H -1461.16777396 4.39925673 32.93487650     6    388    0    0    0
H -1418.31063926 28.34258204 47.07213225     6     393    0    0    0 
C -1420.06520121 27.63253298 46.38246988     1     392    394    395    396
H -1420.36635179 25.71109510 47.00522446     6     393    0    0    0
H -1421.48003098 28.69646654 47.32187897     6     393    0    0    0
C -1420.20591440 27.89022254 43.51175424     2     393    397    398    399
H -1421.96292042 27.03284915 42.82030968     6     396    0    0    0
H -1420.38044831 29.80692297 43.11227572     6     396    0    0    0
C -1417.89489672 27.28212434 41.99877132     2     396    400   401   402
H -1416.55504549 28.79197065 42.28601046     6     399    0    0    0
H -1417.08171687 25.42197189 42.62556213     6     399    0    0    0
C -1418.39400451 27.28472691 39.21508337     2     399   403   404   405
H -1419.63131169 25.69295044 38.83216678     6    402    0    0    0
H -1419.23563508 28.96392947 38.63572259     6    402    0    0    0
C -1416.07267968 26.33165428 37.72915882     2    402   406   407   408
H -1414.44614184 27.40784800 38.36777583     6    405    0    0    0
H -1415.98650432 24.35068453 37.97702015     6    405    0    0    0
C -1416.31729221 26.97083039 34.98411852     2    405   409   410   411
H -1417.99702015 26.11194792 34.26846338     6    408    0    0    0
H -1416.60412993 29.00239300 34.99100791     6    408    0    0    0
C -1413.92760255 26.26993241 33.58539656     2    408   412   413   414
H -1412.31754326 27.42050597 34.27239384     6    411    0    0    0
H -1413.23401306 24.29662014 34.00309956     6    411    0    0    0
C -1414.27486949 26.33611996 30.72631241     2    411   415   416   417
H -1415.66111299 24.93027551 30.06428365     6    414    0    0    0
H -1415.16078174 28.10628156 30.28363078     6    414    0    0    0
C -1411.82805133 25.92511615 29.16239919     2    414   418   419   420
H -1410.33824027 27.13442644 29.79697324     6    417    0    0    0
H -1410.88217771 24.10462474 29.52423826     6    417    0    0    0
C -1412.23657222 26.18488599 26.36474783     2    417   421   422   423
H -1413.95018861 25.21173694 25.89249530     6    420    0    0    0
H -1412.35625073 28.10393980 25.75443634     6    420    0    0    0
C -1410.17498439 25.00218418 24.94908681     2    420   424   425   426
H -1410.41487139 25.69926486 23.03430481     6    423    0    0    0
H -1408.37985807 25.63308406 25.66438277     6    423    0    0    0
C -1410.63388155 22.18560520 24.80442757     1    423   427   428   429
H -1411.37113727 21.44678704 26.60431504     6    426    0    0    0
H -1408.78751539 21.04943609 24.31843703     6    426    0    0    0
H -1411.84967371 21.87515808 23.33746846     6    426    0    0    0
H -1425.48722034 25.13934282 10.15831264     6     431    0    0    0 
C -1427.14173382 25.86542564 11.05657810     1     430    432    433    434
H -1428.06882781 27.43360785 10.05326676     6     431    0    0    0
H -1428.41236758 24.11239293 11.23400098     6     431    0    0    0
C -1426.27482575 26.66634124 13.64230128     2     431    435    436    437
H -1425.41493367 25.17210863 14.62836070     6     434    0    0    0
H -1424.67990822 28.08110344 13.43014857     6     434    0    0    0
C -1428.43443514 27.60203479 15.48121907     2     434    438   439   440
H -1429.67005977 29.01897643 14.51594594     6     437    0    0    0
H -1429.67380961 25.94191084 15.78856049     6     437    0    0    0
C -1427.68250840 28.43653096 18.13180240     2     437   441   442   443
H -1429.39309817 29.05493322 18.96159957     6    440    0    0    0
H -1426.83438543 26.89490037 19.36408883     6    440    0    0    0
C -1425.88202306 30.71407317 17.93159772     2    440   444   445   446
H -1424.08622654 30.35023123 17.24872459     6    443    0    0    0
H -1426.83771017 32.04994879 16.65529255     6    443    0    0    0
C -1425.27831823 32.25212548 20.27675735     2    443   447   448   449
H -1427.08239580 32.07085041 21.26979842     6    446    0    0    0
H -1423.96746939 31.25725201 21.54939045     6    446    0    0    0
C -1424.51565064 35.05911112 20.01352411     2    446   450   451   452
H -1422.65302100 34.96896532 19.05929501     6    449    0    0    0
H -1425.58559837 36.18930294 18.86652105     6    449    0    0    0
C -1424.21425971 36.52442305 22.47341861     2    449   453   454   455
H -1426.07071399 36.61188609 23.31258916     6    452    0    0    0
H -1423.16116639 35.44293707 23.80198345     6    452    0    0    0
C -1422.90038319 39.11878894 22.15150421     2    452   456   457   458
H -1421.05718323 38.79327953 21.31105304     6    455    0    0    0
H -1424.03828645 40.06571788 20.76123325     6    455    0    0    0
C -1422.79295297 40.76053973 24.47068260     2    455   459   460   461
H -1422.25689548 42.74014191 23.75904136     6    458    0    0    0
H -1424.72739224 40.75895878 25.25649640     6    458    0    0    0
C -1420.56565235 39.97654211 26.27900836     2    458   462   463   464
H -1420.61152102 38.02587958 26.84817614     6    461    0    0    0
H -1418.80098667 40.19894142 25.41547282     6    461    0    0    0
C -1420.69034969 41.29590923 28.92372951     1    461   465   466   467
H -1422.43600708 40.70444561 29.69369886     6    464    0    0    0
H -1420.58943910 43.32890319 28.60668922     6    464    0    0    0
H -1419.04362895 40.91291189 30.10439780     6    464    0    0    0
H -1456.13943622 20.78298955 35.11494299     6     469    0    0    0 
C -1457.78697446 19.52014401 34.87194675     1     468    470    471    472
H -1457.25719682 17.77302820 35.77284875     6     469    0    0    0
H -1459.25331591 20.21360909 36.01136164     6     469    0    0    0
C -1458.69157511 19.19757683 32.08029160     2     469    473    474    475
H -1460.51465548 18.23153711 32.07988279     6     472    0    0    0
H -1458.97668082 21.09897047 31.33180952     6     472    0    0    0
C -1456.69685128 17.88890850 30.35478429     2     472    476   477   478
H -1454.82345817 18.32357046 31.06871935     6     475    0    0    0
H -1456.68532537 15.87549302 30.85793555     6     475    0    0    0
C -1457.13629728 18.26084570 27.55403455     2     475   479   480   481
H -1459.03598049 18.45743648 27.28315092     6    478    0    0    0
H -1456.19299486 19.85467841 26.68757306     6    478    0    0    0
C -1456.61308241 15.93163064 25.96549481     2    478   482   483   484
H -1454.62636364 15.22620895 26.42797151     6    481    0    0    0
H -1457.92975334 14.34627794 26.32257393     6    481    0    0    0
C -1456.85047273 16.36629349 23.18039058     2    481   485   486   487
H -1458.75295463 16.23134271 22.88530200     6    484    0    0    0
H -1455.98364940 18.18575141 22.68660149     6    484    0    0    0
C -1455.64848432 14.22858171 21.49521423     2    484   488   489   490
H -1453.63450234 14.28418554 22.00254471     6    487    0    0    0
H -1456.38069411 12.44407711 22.13536290     6    487    0    0    0
C -1455.93859537 14.33715147 18.59557156     2    487   491   492   493
H -1457.82975215 14.89653512 18.13699312     6    490    0    0    0
H -1455.01752929 16.02701803 18.00433262     6    490    0    0    0
C -1454.84933540 11.97991992 17.26320316     2    490   494   495   496
H -1452.97537357 11.69298896 18.17486165     6    493    0    0    0
H -1455.80913111 10.25050565 17.72439665     6    493    0    0    0
C -1454.51338264 12.34010658 14.46040458     2    493   497   498   499
H -1456.29615707 12.26451515 13.37336760     6    496    0    0    0
H -1453.64889365 14.13251694 13.93515944     6    496    0    0    0
C -1453.09577415 9.95579664 13.51952199     2    496   500   501   502
H -1451.27203893 9.75023862 14.61372930     6    499    0    0    0
H -1453.90720277 8.20770492 13.96222592     6    499    0    0    0
C -1452.57207657 10.15136349 10.67066362     1    499   503   504   505
H -1452.25146548 12.13387275 10.10995127     6    502    0    0    0
H -1454.24141610 9.85979738 9.62336451     6    502    0    0    0
H -1451.38156349 8.65218134 9.87644632     6    502    0    0    0
H -1416.80494632 14.18847994 -1.80846450     6     507    0    0    0 
C -1417.05013539 16.11317994 -1.12958577     1     506    508    509    510
H -1415.30901481 17.10220654 -1.08077063     6     507    0    0    0
H -1418.07687916 17.00168002 -2.64577978     6     507    0    0    0
C -1418.32957949 15.91155612 1.55031656     2     507    511    512    513
H -1420.33522553 15.16965311 1.46555199     6     510    0    0    0
H -1417.35579688 14.38289273 2.53054398     6     510    0    0    0
C -1418.34821926 18.35219647 2.84862943     2     510    514   515   516
H -1416.52515985 19.24182584 2.79743436     6     513    0    0    0
H -1419.61935240 19.78554849 2.01611277     6     513    0    0    0
C -1418.90323322 18.09020733 5.77856719     2     513   517   518   519
H -1420.56830858 16.92074778 6.15655353     6    516    0    0    0
H -1417.59739473 16.94535157 6.57886189     6    516    0    0    0
C -1419.35728531 20.66557911 7.22451314     2    516   520   521   522
H -1418.18535015 22.33769578 6.60042233     6    519    0    0    0
H -1421.26641235 21.37076895 6.99354766     6    519    0    0    0
C -1419.07488784 20.19689232 10.09047855     2    519   523   524   525
H -1420.79824224 19.14713232 10.59257474     6    522    0    0    0
H -1417.49508143 19.09313739 10.58613561     6    522    0    0    0
C -1418.95836374 22.69829506 11.56479122     2    522   526   527   528
H -1417.34360233 23.74527487 10.94286214     6    525    0    0    0
H -1420.63676591 23.87488526 11.27434968     6    525    0    0    0
C -1418.74036922 22.40324997 14.41172814     2    525   529   530   531
H -1420.04456267 20.93259586 15.05667268     6    528    0    0    0
H -1416.87915648 21.78627188 15.00788213     6    528    0    0    0
C -1419.62813407 24.84774572 15.88401603     2    528   532   533   534
H -1418.35549661 26.41504711 15.22191356     6    531    0    0    0
H -1421.47080640 25.45301572 15.20252593     6    531    0    0    0
C -1419.23003905 24.75844730 18.80596138     2    531   535   536   537
H -1420.51701811 23.19471467 19.48351334     6    534    0    0    0
H -1417.27545123 24.49217326 19.10481660     6    534    0    0    0
C -1420.32148767 26.98317032 20.13782463     2    534   538   539   540
H -1419.66945378 28.68144536 19.15284358     6    537    0    0    0
H -1422.31179408 27.03531434 20.04979711     6    537    0    0    0
C -1419.69021195 27.05932300 22.98330268     1    537   541   542   543
H -1419.36904832 28.93175261 23.73413483     6    540    0    0    0
H -1418.04616847 26.02450200 23.51513104     6    540    0    0    0
H -1421.29134602 26.40229730 24.06193583     6    540    0    0    0
H -1427.80643088 31.67542476 38.19896646     6     545    0    0    0 
C -1427.35763678 30.09162953 39.46589004     1     544    546    547    548
H -1425.82871488 28.91955065 38.64287232     6     545    0    0    0
H -1426.37774764 30.67381927 41.24064438     6     545    0    0    0
C -1429.76336837 28.46764893 40.24099159     2     545    549    550    551
H -1431.61636183 29.41811769 40.06809815     6     548    0    0    0
H -1429.74396124 27.07816401 38.67807246     6     548    0    0    0
C -1429.53744023 26.98956289 42.68685819     2     548    552   553   554
H -1427.80187491 25.96104126 42.55091280     6     551    0    0    0
H -1429.22388585 28.17629702 44.34472344     6     551    0    0    0
C -1431.82899486 25.06601279 43.02880719     2     551   555   556   557
H -1433.61897002 25.94541659 42.97404827     6    554    0    0    0
H -1431.66555091 23.72878867 41.42179809     6    554    0    0    0
C -1431.39767877 23.75286368 45.50339788     2    554   558   559   560
H -1429.57748061 23.00063847 45.69304658     6    557    0    0    0
H -1431.80969675 24.99640421 47.08291137     6    557    0    0    0
C -1433.19877698 21.43527279 46.07349934     2    557   561   562   563
H -1435.13281715 22.03482442 45.98357727     6    560    0    0    0
H -1433.13462944 20.06306724 44.56857281     6    560    0    0    0
C -1432.68265953 20.21897385 48.60720984     2    560   564   565   566
H -1430.68242573 19.84205497 48.91277260     6    563    0    0    0
H -1433.12303532 21.54083008 50.00316365     6    563    0    0    0
C -1434.17109833 17.69520309 49.13045588     2    563   567   568   569
H -1436.25019551 18.15114534 49.03862758     6    566    0    0    0
H -1433.64013217 16.46857335 47.57158718     6    566    0    0    0
C -1433.69177089 16.70511241 51.82393750     2    566   570   571   572
H -1431.78501003 16.19550483 51.99658237     6    569    0    0    0
H -1433.80179487 18.17908339 53.26808408     6    569    0    0    0
C -1435.55022704 14.47006869 52.12425018     2    569   573   574   575
H -1437.49361776 15.10775964 51.71011075     6    572    0    0    0
H -1435.03671694 12.90264811 50.91735422     6    572    0    0    0
C -1435.41641462 13.30501985 54.72092052     2    572   576   577   578
H -1436.11370691 14.85655846 56.10429506     6    575    0    0    0
H -1436.95181843 11.91976117 54.94293524     6    575    0    0    0
C -1432.84767334 11.97637179 55.33562340     1    575   579   580   581
H -1432.44356266 10.61074905 53.90550092     6    578    0    0    0
H -1433.27058725 10.91802145 57.03637405     6    578    0    0    0
H -1431.40122096 13.38714872 55.77104682     6    578    0    0    0
H -1458.51017576 -3.12736407 27.98525623     6     583    0    0    0 
C -1457.58527431 -3.98384939 29.75685932     1     582    584    585    586
H -1459.08493534 -5.00060941 30.67754321     6     583    0    0    0
H -1456.23796524 -5.33735819 29.01236874     6     583    0    0    0
C -1456.44150929 -1.85059309 31.46787129     2     583    587    588    589
H -1455.01740483 -0.71989082 30.51698032     6     586    0    0    0
H -1457.83676590 -0.46568564 31.46968421     6     586    0    0    0
C -1455.75309866 -2.56603971 34.21961879     2     586    590   591   592
H -1457.50135745 -2.68991200 35.28985949     6     589    0    0    0
H -1455.10049675 -4.43409527 34.29187256     6     589    0    0    0
C -1453.95869350 -0.86868598 35.64366815     2     589   593   594   595
H -1452.12941295 -1.01208760 34.73041449     6    592    0    0    0
H -1454.79587268 0.95562757 35.43675482     6    592    0    0    0
C -1453.55374398 -1.36340044 38.54659515     2    592   596   597   598
H -1455.47705559 -1.41845430 39.26686881     6    595    0    0    0
H -1453.05517098 -3.31254460 38.72699547     6    595    0    0    0
C -1451.72460431 0.53250733 39.88306441     2    595   599   600   601
H -1449.94917069 0.35478610 39.06889743     6    598    0    0    0
H -1452.46781112 2.43778331 39.41774063     6    598    0    0    0
C -1451.80273863 0.21098195 42.72507288     2    598   602   603   604
H -1453.71678658 -0.03091860 43.30568249     6    601    0    0    0
H -1450.71126475 -1.58861681 43.08301540     6    601    0    0    0
C -1450.79852657 2.40748552 44.14303916     2    601   605   606   607
H -1448.74419241 2.55337120 44.03399342     6    604    0    0    0
H -1451.02462324 4.13204236 42.95689313     6    604    0    0    0
C -1451.61673995 2.68128102 46.90659747     2    604   608   609   610
H -1453.72361416 2.75101919 46.97210465     6    607    0    0    0
H -1451.26810395 0.80036091 47.79849662     6    607    0    0    0
C -1450.24396271 4.68889358 48.44624734     2    607   611   612   613
H -1448.24413298 4.25302174 48.12519830     6    610    0    0    0
H -1450.70505213 6.57397876 47.51906244     6    610    0    0    0
C -1451.11893749 4.88533247 51.14958880     2    610   614   615   616
H -1453.06417130 5.61913634 51.24492801     6    613    0    0    0
H -1451.13451820 2.99892386 51.96724921     6    613    0    0    0
C -1449.63288342 6.85839559 52.43608842     1    613   617   618   619
H -1450.13006474 7.30515451 54.34508157     6    616    0    0    0
H -1449.46919552 8.53861421 51.19792263     6    616    0    0    0
H -1447.71937243 6.23563875 52.79708723     6    616    0    0    0
H -1407.79701190 2.48780005 32.71525685     6     621    0    0    0 
C -1409.26426809 3.41340812 33.83576058     1     620    622    623    624
H -1408.94365553 3.30640639 35.89176805     6     621    0    0    0
H -1409.21466182 5.47262705 33.39394810     6     621    0    0    0
C -1411.94876534 2.53056032 33.00212571     2     621    625    626    627
H -1413.27262053 2.78009584 34.56534447     6     624    0    0    0
H -1412.61727015 3.60775981 31.39353715     6     624    0    0    0
C -1411.67867118 -0.35884190 32.52692084     2     624    628   629   630
H -1410.38505529 -0.76449819 30.95475189     6     627    0    0    0
H -1411.08282151 -1.15078949 34.29629779     6     627    0    0    0
C -1414.24545672 -1.69264289 32.04827545     2     627   631   632   633
H -1415.68537652 -0.84070994 33.19066907     6    630    0    0    0
H -1414.85502274 -1.23939621 30.07748703     6    630    0    0    0
C -1414.12032570 -4.53511012 32.54136906     2    630   634   635   636
H -1412.71875874 -5.01915338 31.03702463     6    633    0    0    0
H -1412.82533947 -4.89323724 34.24566218     6    633    0    0    0
C -1416.50488920 -6.25342320 32.50009234     2    633   637   638   639
H -1417.59135183 -5.61431421 34.17739127     6    636    0    0    0
H -1417.56566747 -5.84146012 30.79502239     6    636    0    0    0
C -1415.69289296 -8.96151120 32.70548917     2    636   640   641   642
H -1414.23776888 -9.50348060 31.46902511     6    639    0    0    0
H -1414.89044675 -9.25230148 34.58145166     6    639    0    0    0
C -1418.23902073 -10.38890918 32.30523913     2    639   643   644   645
H -1419.70176619 -9.72026510 33.49530051     6    642    0    0    0
H -1418.71242312 -10.13838711 30.33539062     6    642    0    0    0
C -1417.83619090 -13.27113734 32.91651853     2    642   646   647   648
H -1419.29782860 -14.44045736 32.08681108     6    645    0    0    0
H -1416.01814807 -14.09188062 32.41569415     6    645    0    0    0
C -1418.33041457 -13.71523266 35.76755072     2    645   649   650   651
H -1417.57907113 -12.47286972 37.14691919     6    648    0    0    0
H -1420.42027188 -13.71498638 36.22792580     6    648    0    0    0
C -1417.57093181 -16.41683666 36.55361511     2    648   652   653   654
H -1418.52540795 -17.87802219 35.59080206     6    651    0    0    0
H -1415.54142484 -16.75048472 36.23391792     6    651    0    0    0
C -1418.46073138 -17.06348469 39.16570869     1    651   655   656   657
H -1417.50646551 -15.87972434 40.57090451     6    654    0    0    0
H -1418.06987975 -18.95795076 39.89905063     6    654    0    0    0
H -1420.32626275 -16.54631425 39.52450356     6    654    0    0    0
H -1443.47318364 -4.88419186 36.10475797     6     659    0    0    0 
C -1443.56487435 -3.03886301 36.86424825     1     658    660    661    662
H -1444.73638665 -1.81395216 35.57974756     6     659    0    0    0
H -1444.74389995 -3.19991942 38.58675319     6     659    0    0    0
C -1441.01077471 -1.53813896 37.31196276     2     659    663    664    665
H -1439.87691679 -2.52229909 38.63917622     6     662    0    0    0
H -1439.90940409 -1.39330746 35.51809271     6     662    0    0    0
C -1441.31560163 0.87405850 38.78021586     2     662    666   667   668
H -1439.90378880 2.32744780 38.41070949     6     665    0    0    0
H -1442.91792790 1.91999898 38.02248441     6     665    0    0    0
C -1441.57168651 0.65210636 41.56077030     2     665   669   670   671
H -1442.95190525 -0.63191933 41.92474776     6    668    0    0    0
H -1439.82021215 0.02644010 42.40286356     6    668    0    0    0
C -1442.50242195 3.14347708 42.75810899     2    668   672   673   674
H -1441.15333680 4.77488606 42.65993305     6    671    0    0    0
H -1444.02004629 3.94448639 41.46418854     6    671    0    0    0
C -1443.73956981 2.71106828 45.39158467     2    671   675   676   677
H -1444.82689611 4.40508708 45.98980536     6    674    0    0    0
H -1445.06988212 1.09046258 45.22733616     6    674    0    0    0
C -1442.03927708 2.30535985 47.58038751     2    674   678   679   680
H -1443.20843802 2.35687804 49.36359523     6    677    0    0    0
H -1441.38915978 0.33500466 47.54043343     6    677    0    0    0
C -1439.76877747 4.10799458 47.68465350     2    677   681   682   683
H -1438.37807330 3.85359087 46.12827152     6    680    0    0    0
H -1440.63334058 5.92361755 47.54168156     6    680    0    0    0
C -1438.51738637 3.89789924 50.29618666     2    680   684   685   686
H -1438.12132201 1.91800961 50.93008646     6    683    0    0    0
H -1436.71462807 4.94322690 50.23260761     6    683    0    0    0
C -1440.05872184 5.33946315 52.31519483     2    683   687   688   689
H -1440.34947475 7.19566210 51.75536794     6    686    0    0    0
H -1441.87672859 4.35650038 52.34761767     6    686    0    0    0
C -1438.49786674 5.76804823 54.74788874     2    686   690   691   692
H -1438.13056457 3.93053556 55.71197746     6    689    0    0    0
H -1436.59851217 6.54511494 54.56885452     6    689    0    0    0
C -1439.81430989 7.64958502 56.46274741     1    689   693   694   695
H -1438.59617043 8.56551137 57.76130341     6    692    0    0    0
H -1441.49491855 6.84160924 57.29388264     6    692    0    0    0
H -1440.38746866 9.29873398 55.32921157     6    692    0    0    0
H -1431.67422956 22.21298231 59.06123851     6     697    0    0    0 
C -1430.08818952 23.14642124 58.32914873     1     696    698    699    700
H -1428.60963867 23.65709047 59.86640530     6     697    0    0    0
H -1429.04580796 21.71727639 57.35377776     6     697    0    0    0
C -1430.97854155 25.46355447 56.90156633     2     697    701    702    703
H -1432.80288954 25.13829436 55.89582542     6     700    0    0    0
H -1431.50877462 27.06228225 57.95195041     6     700    0    0    0
C -1428.89399690 26.55378781 55.15606754     2     700    704   705   706
H -1427.61323283 27.65281080 56.34687295     6     703    0    0    0
H -1427.95531067 24.80793917 54.66269521     6     703    0    0    0
C -1430.05130676 27.99653681 53.14720790     2     703   707   708   709
H -1431.32788301 26.90531463 51.98193922     6    706    0    0    0
H -1431.26920554 29.37113595 54.20766821     6    706    0    0    0
C -1428.12367900 29.52550692 51.66557899     2    706   710   711   712
H -1427.24054542 30.54263474 53.33790745     6    709    0    0    0
H -1426.91477299 28.12642265 50.77326980     6    709    0    0    0
C -1429.34663597 31.29848952 49.72888989     2    709   713   714   715
H -1431.03846907 30.33485750 48.83245493     6    712    0    0    0
H -1430.46636443 32.68440846 50.91680664     6    712    0    0    0
C -1427.41976692 32.62948443 48.27013568     2    712   716   717   718
H -1426.51564349 33.89842165 49.70258089     6    715    0    0    0
H -1425.96086885 31.29177926 47.56948816     6    715    0    0    0
C -1428.59586864 34.20848309 46.15199774     2    715   719   720   721
H -1429.49185776 32.94634192 44.82336941     6    718    0    0    0
H -1430.09717472 35.30588720 46.93210271     6    718    0    0    0
C -1426.71602707 35.71042499 44.61635514     2    718   722   723   724
H -1425.05882400 36.25279182 45.78838306     6    721    0    0    0
H -1425.97152515 34.58967566 42.93393913     6    721    0    0    0
C -1428.02181944 37.84114369 43.37353117     2    721   725   726   727
H -1429.95968546 37.20864747 43.02469420     6    724    0    0    0
H -1428.28143389 39.50121506 44.44859505     6    724    0    0    0
C -1427.05630191 38.41294539 40.72803164     2    724   728   729   730
H -1424.97707837 38.70954138 40.56730118     6    727    0    0    0
H -1427.53768481 36.77295245 39.45933530     6    727    0    0    0
C -1428.21094528 40.89925707 39.49592289     1    727   731   732   733
H -1428.16046796 42.46286309 40.91701211     6    730    0    0    0
H -1430.03695040 40.61229642 38.91905985     6    730    0    0    0
H -1427.16521590 41.53677348 37.89897999     6    730    0    0    0
H -1445.66277209 24.21299696 24.06783452     6     735    0    0    0 
C -1447.62714929 24.61223003 23.60554369     1     734    736    737    738
H -1448.52615326 25.44797992 25.27088422     6     735    0    0    0
H -1447.28585440 25.63234845 21.96341427     6     735    0    0    0
C -1449.14759844 22.26933823 22.78215329     2     735    739    740    741
H -1448.93603396 20.70380728 24.02347864     6     738    0    0    0
H -1451.06483210 22.51018513 22.86013576     6     738    0    0    0
C -1448.29939611 21.12735043 20.14970021     2     738    742   743   744
H -1448.54911202 22.36909707 18.60954611     6     741    0    0    0
H -1446.27868363 20.59505644 20.25370989     6     741    0    0    0
C -1449.50311759 18.57633237 19.68244678     2     741   745   746   747
H -1449.64072719 17.52094206 21.39368943     6    744    0    0    0
H -1451.34702853 18.94657960 19.29734945     6    744    0    0    0
C -1448.24622601 16.85213730 17.70603337     2    744   748   749   750
H -1446.21110873 16.67186954 18.38740385     6    747    0    0    0
H -1449.25064801 14.98980108 17.73849392     6    747    0    0    0
C -1448.38148952 17.92896019 15.03059904     2    747   751   752   753
H -1450.53523309 18.23632891 14.65929501     6    750    0    0    0
H -1447.45376528 19.72157141 14.91985172     6    750    0    0    0
C -1447.14878434 16.10517211 13.25211547     2    750   754   755   756
H -1445.14140575 15.83593800 13.57661507     6    753    0    0    0
H -1448.08211572 14.33712273 13.38289774     6    753    0    0    0
C -1447.02662795 16.79424839 10.52624760     2    753   757   758   759
H -1448.72436547 17.76614229 9.84883554     6    756    0    0    0
H -1445.48138194 18.21947046 10.19920925     6    756    0    0    0
C -1446.16279300 14.61206954 8.86404141     2    756   760   761   762
H -1444.50417669 13.88035614 9.76604386     6    759    0    0    0
H -1447.75361288 13.24746747 9.09567548     6    759    0    0    0
C -1445.93880638 15.21343482 6.06884814     2    759   763   764   765
H -1447.63654673 16.29280578 5.46236077     6    762    0    0    0
H -1444.15839141 16.13361546 5.60500427     6    762    0    0    0
C -1446.03423890 12.73470481 4.53269490     2    762   766   767   768
H -1444.64057222 11.53145714 5.29051096     6    765    0    0    0
H -1447.87369028 11.97238411 5.12777480     6    765    0    0    0
C -1445.91837194 13.15316574 1.73175930     1    765   769   770   771
H -1447.55642469 14.30357777 1.13192775     6    768    0    0    0
H -1446.27797397 11.43055115 0.63880773     6    768    0    0    0
H -1444.06939801 13.78990478 1.10299245     6    768    0    0    0
H -1408.06678490 -7.41064830 26.91252667     6     773    0    0    0 
C -1407.16559855 -7.43940315 25.06032046     1     772    774    775    776
H -1405.09389826 -6.98306067 25.32632336     6     773    0    0    0
H -1407.28792599 -9.49150118 24.50800757     6     773    0    0    0
C -1408.45057630 -5.59664893 23.27486660     2     773    777    778    779
H -1407.45221871 -5.68591674 21.41538360     6     776    0    0    0
H -1410.39853333 -6.27379944 22.87783610     6     776    0    0    0
C -1408.09417200 -2.80814977 24.23987059     2     776    780   781   782
H -1408.25632850 -2.68459818 26.28581725     6     779    0    0    0
H -1406.42327708 -1.88190369 23.80062311     6     779    0    0    0
C -1410.11138941 -1.01508326 23.17267444     2     779   783   784   785
H -1409.48058373 -0.39160553 21.26889710     6    782    0    0    0
H -1411.68571702 -2.10077277 22.58561872     6    782    0    0    0
C -1410.90130004 1.20552516 24.77488242     2    782   786   787   788
H -1412.10906277 2.39962473 23.61100316     6    785    0    0    0
H -1411.73900869 0.65233206 26.56015032     6    785    0    0    0
C -1408.56059453 2.77135506 25.63131165     2    785   789   790   791
H -1407.47298227 1.90130744 26.99998554     6    788    0    0    0
H -1407.42834861 3.12842048 24.05502347     6    788    0    0    0
C -1409.12957712 5.29428426 26.95902416     2    788   792   793   794
H -1410.36766141 6.34736978 25.80261677     6    791    0    0    0
H -1409.92183783 4.98444408 28.79081312     6    791    0    0    0
C -1406.80493797 6.83917061 27.18639765     2    791   795   796   797
H -1405.17297587 5.68764285 28.07819097     6    794    0    0    0
H -1406.23972061 7.21692479 25.23036621     6    794    0    0    0
C -1406.85476001 9.48062864 28.51441179     2    794   798   799   800
H -1407.74953023 10.81853224 27.19773726     6    797    0    0    0
H -1408.38570485 9.35474103 29.87645473     6    797    0    0    0
C -1404.15461666 10.29896888 29.24274219     2    797   801   802   803
H -1403.61903201 9.10704755 30.83681633     6    800    0    0    0
H -1402.55210373 9.89390569 27.91104236     6    800    0    0    0
C -1404.02378270 12.89333865 30.38711974     2    800   804   805   806
H -1404.57465040 14.27800404 28.79564870     6    803    0    0    0
H -1405.13673526 13.10374655 32.11736863     6    803    0    0    0
C -1401.29894315 13.49986245 31.10051866     1    803   807   808   809
H -1400.13101061 13.25693094 29.51495949     6    806    0    0    0
H -1400.57380775 12.03984117 32.43461582     6    806    0    0    0
H -1400.95239674 15.39643915 31.87275693     6    806    0    0    0
H -1449.87843644 7.42768519 35.16112974     6     811    0    0    0 
C -1449.81717037 5.40580712 35.23504734     1     810    812    813    814
H -1450.01141206 4.97073513 37.21606638     6     811    0    0    0
H -1451.52729725 4.56966251 34.62694196     6     811    0    0    0
C -1447.39933481 4.18953388 33.89790303     2     811    815    816    817
H -1446.06061807 3.70551209 35.42561872     6     814    0    0    0
H -1447.81604160 2.37907040 33.08065302     6     814    0    0    0
C -1446.40137566 5.84766309 31.82035928     2     814    818   819   820
H -1447.75378808 6.41149995 30.49436397     6     817    0    0    0
H -1445.38668949 7.55743124 32.63340040     6     817    0    0    0
C -1444.25829239 4.66450458 30.04017691     2     817   821   822   823
H -1442.77343894 4.39167143 31.36711878     6    820    0    0    0
H -1444.74625728 2.87996029 29.43486178     6    820    0    0    0
C -1443.55639459 6.13182012 27.65066950     2    820   824   825   826
H -1445.05424973 5.47091073 26.33562359     6    823    0    0    0
H -1443.43207897 8.10379635 27.93527413     6    823    0    0    0
C -1441.24905717 5.08811768 26.17496986     2    823   827   828   829
H -1439.70239233 5.63465616 27.42962650     6    826    0    0    0
H -1441.26223442 3.02106798 26.17135585     6    826    0    0    0
C -1440.88229607 6.02267917 23.44507098     2    826   830   831   832
H -1442.60491904 5.93513869 22.33006093     6    829    0    0    0
H -1440.28786707 8.07758709 23.39839705     6    829    0    0    0
C -1438.70639397 4.57693519 22.10759714     2    829   833   834   835
H -1436.85511638 4.92664621 22.82958601     6    832    0    0    0
H -1438.93636971 2.61968390 22.17844102     6    832    0    0    0
C -1438.84459849 5.22772881 19.30460644     2    832   836   837   838
H -1440.67277958 5.17948177 18.52335473     6    835    0    0    0
H -1438.03810981 7.04998211 18.87088781     6    835    0    0    0
C -1437.38385132 3.34101503 17.75370904     2    835   839   840   841
H -1435.92119248 2.41379113 18.69989706     6    838    0    0    0
H -1438.63905928 1.84426903 17.22389208     6    838    0    0    0
C -1436.19155908 4.50806972 15.19547275     2    838   842   843   844
H -1437.67785076 5.34311101 14.09084599     6    841    0    0    0
H -1434.94822273 6.02997881 15.70199829     6    841    0    0    0
C -1434.55566215 2.64090592 13.74947909     1    841   845   846   847
H -1432.91755828 1.83897614 14.80077113     6    844    0    0    0
H -1433.59665327 3.45835567 11.99027011     6    844    0    0    0
H -1435.61333768 0.92490437 13.35689899     6    844    0    0    0
H -1457.08237299 -6.55952894 60.69311100     6     849    0    0    0 
C -1455.73200947 -5.21777347 61.58367175     1     848    850    851    852
H -1456.66465808 -4.29727254 63.11587050     6     849    0    0    0
H -1454.25280155 -6.55926342 62.33075546     6     849    0    0    0
C -1454.67398087 -3.19492769 59.77806148     2     849    853    854    855
H -1456.18101212 -2.40138773 58.68519777     6     852    0    0    0
H -1454.04401554 -1.58221259 60.82465612     6     852    0    0    0
C -1452.57534862 -4.12336255 57.89809060     2     852    856   857   858
H -1451.12008775 -4.80307146 59.13932242     6     855    0    0    0
H -1453.07961008 -5.70566367 56.86927783     6     855    0    0    0
C -1451.30712597 -2.16639766 56.24270934     2     855   859   860   861
H -1452.48668633 -1.32825435 54.88468564     6    858    0    0    0
H -1450.91189716 -0.73834129 57.59749569     6    858    0    0    0
C -1449.02454530 -3.33327676 54.88483644     2    858   862   863   864
H -1448.08215740 -4.76026697 56.15705271     6    861    0    0    0
H -1449.79411839 -4.67082464 53.53334691     6    861    0    0    0
C -1447.19554082 -1.39913972 53.91241363     2    861   865   866   867
H -1448.18197515 -0.04964145 52.65294685     6    864    0    0    0
H -1446.51960628 -0.26012144 55.54464560     6    864    0    0    0
C -1444.93512929 -2.44212250 52.32969361     2    864   868   869   870
H -1443.56440657 -1.00176315 51.81871852     6    867    0    0    0
H -1443.93057141 -3.85174210 53.35572640     6    867    0    0    0
C -1445.56011659 -3.44785824 49.65596856     2    867   871   872   873
H -1447.45614105 -4.27355209 49.76154587     6    870    0    0    0
H -1445.74954255 -1.76663515 48.59374534     6    870    0    0    0
C -1443.55600253 -5.12122044 48.44336060     2    870   874   875   876
H -1441.95193751 -3.90461387 47.97434344     6    873    0    0    0
H -1443.05757614 -6.34459486 50.04497108     6    873    0    0    0
C -1444.48047324 -6.86129657 46.41566251     2    873   877   878   879
H -1446.11144825 -8.00354149 47.11857510     6    876    0    0    0
H -1445.12917300 -5.80193491 44.81435137     6    876    0    0    0
C -1442.43707525 -8.80644875 45.67383033     2    876   880   881   882
H -1440.75374802 -7.70460768 45.03139855     6    879    0    0    0
H -1441.64894691 -9.67701535 47.38870527     6    879    0    0    0
C -1443.37830380 -10.31369351 43.41202541     1    879   883   884   885
H -1444.33640312 -9.29852339 41.96635369     6    882    0    0    0
H -1444.64319639 -11.77595502 43.87532531     6    882    0    0    0
H -1441.81572386 -11.37080270 42.59593649     6    882    0    0    0
H -1430.28848757 6.64147620 25.40340314     6     887    0    0    0 
C -1429.17441226 5.50106478 26.59964489     1     886    888    889    890
H -1429.34384772 3.46272648 26.43775521     6     887    0    0    0
H -1427.17450282 6.10006526 25.97893963     6     887    0    0    0
C -1429.90777840 6.37665457 29.29338518     2     887    891    892    893
H -1429.73759446 4.78192374 30.67885446     6     890    0    0    0
H -1428.69343876 7.93513621 30.02148041     6     890    0    0    0
C -1432.72559685 7.19309176 29.46233927     2     890    894   895   896
H -1432.71904114 9.08902143 28.69504594     6     893    0    0    0
H -1434.10042927 6.06157074 28.44714123     6     893    0    0    0
C -1433.70981067 7.32494414 32.11328860     2     893   897   898   899
H -1433.15520883 5.69329513 33.39242296     6    896    0    0    0
H -1432.62508412 8.76464778 33.07444830     6    896    0    0    0
C -1436.54790854 7.53605370 32.29549043     2    896   900   901   902
H -1437.33574334 8.62612230 30.70396748     6    899    0    0    0
H -1437.15017688 5.61290602 32.09936204     6    899    0    0    0
C -1437.42132025 8.86613784 34.76298986     2    899   903   904   905
H -1436.81283503 7.58373429 36.49669529     6    902    0    0    0
H -1436.48857670 10.69243942 34.92334259     6    902    0    0    0
C -1440.27251839 9.24522534 34.97450901     2    902   906   907   908
H -1440.71151499 10.45779805 33.34755990     6    905    0    0    0
H -1441.29554615 7.40633766 34.70306747     6    905    0    0    0
C -1441.01462001 10.52842079 37.49322015     2    905   909   910   911
H -1440.56317993 9.30544104 39.06715440     6    908    0    0    0
H -1439.72557204 12.16411622 37.73761991     6    908    0    0    0
C -1443.76023494 11.34200801 37.74380242     2    908   912   913   914
H -1444.40033468 12.62985517 36.21704132     6    911    0    0    0
H -1444.84868958 9.57094930 37.50592275     6    911    0    0    0
C -1444.29030378 12.65968181 40.25727815     2    911   915   916   917
H -1443.18876157 11.69072438 41.65612163     6    914    0    0    0
H -1443.58507407 14.57817693 40.23816514     6    914    0    0    0
C -1447.19083851 12.83874872 40.68566562     2    914   918   919   920
H -1447.70353090 14.59299547 41.67873039     6    917    0    0    0
H -1448.15451177 13.10891309 38.86363048     6    917    0    0    0
C -1448.26128356 10.74912811 42.41566470     1    917   921   922   923
H -1447.60097544 10.70581558 44.30089641     6    920    0    0    0
H -1447.55881891 9.02911226 41.70991090     6    920    0    0    0
H -1450.37878539 10.69392353 42.43211228     6    920    0    0    0
H -1430.89538616 -21.31533847 42.15587481     6     925    0    0    0 
C -1431.40515231 -19.21141672 41.89081177     1     924    926    927    928
H -1429.57666099 -18.09152724 41.94662135     6     925    0    0    0
H -1432.25938546 -18.77719472 40.13326180     6     925    0    0    0
C -1433.22639764 -18.28446722 43.95342661     2     925    929    930    931
H -1434.53337551 -19.68013086 44.31165239     6     928    0    0    0
H -1432.01704656 -17.90390787 45.53688367     6     928    0    0    0
C -1434.63020986 -15.80184471 43.16509166     2     928    932   933   934
H -1435.61533215 -16.10212305 41.34729235     6     931    0    0    0
H -1435.84463039 -15.27430832 44.59297993     6     931    0    0    0
C -1432.86635939 -13.61834046 42.88949253     2     931   935   936   937
H -1432.06816941 -13.32878747 44.75079897     6    934    0    0    0
H -1431.22907004 -14.04371491 41.63012314     6    934    0    0    0
C -1434.10557214 -11.03067607 42.08229055     2    934   938   939   940
H -1435.84777493 -10.65165337 43.10490379     6    937    0    0    0
H -1432.79072832 -9.54359590 42.48902620     6    937    0    0    0
C -1434.53856282 -10.92685414 39.31328191     2    937   941   942   943
H -1433.00638367 -11.47266306 38.02978803     6    940    0    0    0
H -1435.95188634 -12.25572673 38.72270763     6    940    0    0    0
C -1435.76380677 -8.34526175 38.31759456     2    940   944   945   946
H -1437.53310121 -7.98145848 39.51189610     6    943    0    0    0
H -1434.26483046 -6.80225165 38.56539438     6    943    0    0    0
C -1436.74834775 -8.40430981 35.63200936     2    943   947   948   949
H -1437.15883882 -6.49153652 35.15448592     6    946    0    0    0
H -1435.11218429 -8.56791454 34.33113278     6    946    0    0    0
C -1438.82555850 -10.28051935 35.13052165     2    946   950   951   952
H -1438.17368394 -12.01235238 35.47282855     6    949    0    0    0
H -1440.41176704 -9.99350060 36.43001031     6    949    0    0    0
C -1439.81805882 -10.24311347 32.34104004     2    949   953   954   955
H -1440.18702324 -8.26504518 32.00050354     6    952    0    0    0
H -1438.44362221 -10.56226098 30.94380455     6    952    0    0    0
C -1442.19916492 -11.89703491 31.77913870     2    952   956   957   958
H -1442.29042120 -12.38871581 29.78505044     6    955    0    0    0
H -1441.86205838 -13.72532909 32.70498445     6    955    0    0    0
C -1444.65894637 -10.39037777 32.54773432     1    955   959   960   961
H -1446.27354007 -11.56659618 32.36639684     6    958    0    0    0
H -1444.86495207 -8.82123159 31.28579146     6    958    0    0    0
H -1444.56418720 -9.55013651 34.46024211     6    958    0    0    0
H -1435.78143221 23.10987757 20.70417006     6     963    0    0    0 
C -1434.78821907 21.34152344 21.02864734     1     962    964    965    966
H -1436.37345118 20.20876659 21.43734581     6     963    0    0    0
H -1433.94720747 20.64102560 19.41944552     6     963    0    0    0
C -1433.03848257 21.52323100 23.24023838     2     963    967    968    969
H -1434.04964493 21.98090586 24.90778041     6     966    0    0    0
H -1432.42703850 19.48868097 23.55300550     6     966    0    0    0
C -1431.02541209 23.47156627 22.97988327     2     966    970   971   972
H -1429.75150718 23.22072292 21.41888433     6     969    0    0    0
H -1431.90610060 25.26040732 22.69024027     6     969    0    0    0
C -1429.51910701 23.59719865 25.45110705     2     969   973   974   975
H -1430.89800770 24.01391617 27.01790901     6    972    0    0    0
H -1428.60863148 21.81960210 25.98679916     6    972    0    0    0
C -1427.71995324 25.92454975 25.56811616     2    972   976   977   978
H -1426.79791907 26.33196960 23.73380275     6    975    0    0    0
H -1428.81410442 27.63357583 26.12889810     6    975    0    0    0
C -1425.70166191 25.57355995 27.69824403     2    975   979   980   981
H -1426.47336335 24.80402361 29.35593922     6    978    0    0    0
H -1424.18714372 24.43315737 27.05582386     6    978    0    0    0
C -1424.61126187 28.17384022 28.45499949     2    978   982   983   984
H -1424.30132555 29.35363419 26.72525495     6    981    0    0    0
H -1425.93112220 29.27414510 29.44308714     6    981    0    0    0
C -1422.16893718 27.98298556 30.01698599     2    981   985   986   987
H -1422.61710636 26.82635900 31.65127633     6    984    0    0    0
H -1420.97163048 26.82032883 28.90103216     6    984    0    0    0
C -1420.91022736 30.39550923 30.79481753     2    984   988   989   990
H -1419.18940675 30.03077842 31.87412559     6    987    0    0    0
H -1420.04646048 31.38265030 29.19009727     6    987    0    0    0
C -1422.40478000 32.16320924 32.50869042     2    987   991   992   993
H -1423.80030750 33.24063109 31.30652155     6    990    0    0    0
H -1423.33440635 30.97803026 33.81181296     6    990    0    0    0
C -1420.62490157 33.82965452 34.18413306     2    990   994   995   996
H -1419.24025385 32.73566306 35.30099864     6    993    0    0    0
H -1419.64642757 35.10783511 32.81342161     6    993    0    0    0
C -1422.13055498 35.23188660 36.03093997     1    993   997   998   999
H -1423.45382849 36.24763972 34.89025826     6    996    0    0    0
H -1421.20352163 36.80911516 37.10702981     6    996    0    0    0
H -1423.36467151 33.96516095 37.37905685     6    996    0    0    0
H -1438.61045692 25.36675545 2.54042958     6     1001    0    0    0 
C -1438.45856579 23.59857157 3.57899493     1     1000    1002    1003    1004
H -1440.26343151 22.67510263 3.81255780     6     1001    0    0    0
H -1437.60660460 22.07942740 2.55003627     6     1001    0    0    0
C -1436.79129770 23.98699426 5.95525677     2     1001    1005    1006    1007
H -1436.69985943 22.38498398 7.24460576     6     1004    0    0    0
H -1434.98887713 24.41369805 5.32748535     6     1004    0    0    0
C -1437.88732755 26.10007267 7.61563853     2     1004    1008   1009   1010
H -1438.32395461 27.73981137 6.40890178     6     1007    0    0    0
H -1439.71294349 25.61176058 8.55911681     6     1007    0    0    0
C -1436.10208409 26.90645232 9.67791313     2     1007   1011   1012   1013
H -1435.78383362 25.33975927 10.91500621     6    1010    0    0    0
H -1434.33762683 27.82962366 9.03364892     6    1010    0    0    0
C -1437.50551195 29.04521840 11.03861187     2    1010   1014   1015   1016
H -1437.62426302 30.51407129 9.51358764     6    1013    0    0    0
H -1439.44008822 28.47919660 11.72670853     6    1013    0    0    0
C -1435.96598486 30.05500561 13.24318382     2    1013   1017   1018   1019
H -1436.12195763 28.62526864 14.79272268     6    1016    0    0    0
H -1433.97200050 30.06753384 12.54009583     6    1016    0    0    0
C -1436.62000364 32.75077061 14.07542017     2    1016   1020   1021   1022
H -1436.48625027 33.98351553 12.43018662     6    1019    0    0    0
H -1438.62463700 32.70116895 14.59921014     6    1019    0    0    0
C -1435.20333149 33.75754678 16.39629086     2    1019   1023   1024   1025
H -1433.21531930 33.90972353 16.03353566     6    1022    0    0    0
H -1436.15099675 35.65893090 16.79276558     6    1022    0    0    0
C -1435.69711836 32.36380405 18.89065023     2    1022   1026   1027   1028
H -1437.65457414 32.26298389 19.27378773     6    1025    0    0    0
H -1435.28929332 30.39994663 18.71349140     6    1025    0    0    0
C -1434.40078918 33.53079211 21.18140558     2    1025   1029   1030   1031
H -1432.45007353 32.91369363 21.22328753     6    1028    0    0    0
H -1434.49314167 35.52243571 20.87911515     6    1028    0    0    0
C -1435.27639777 32.80339322 23.78679635     2    1028   1032   1033   1034
H -1434.53701378 34.23734020 25.29104898     6    1031    0    0    0
H -1437.32140241 32.77196276 23.54390617     6    1031    0    0    0
C -1434.43957254 30.19383321 24.68259169     1    1031   1035   1036   1037
H -1434.60358851 30.06638014 26.75749657     6    1034    0    0    0
H -1432.50588735 29.79916952 24.10064435     6    1034    0    0    0
H -1435.62148820 28.67929691 23.74898450     6    1034    0    0    0
H -1417.87565362 7.49976805 26.09186725     6     1039    0    0    0 
C -1416.92217581 6.02016069 24.94169468     1     1038    1040    1041    1042
H -1415.68976876 6.82504751 23.49933143     6     1039    0    0    0
H -1415.74906830 4.84905290 26.20042629     6     1039    0    0    0
C -1418.97291915 4.36699657 23.53523873     2     1039    1043    1044    1045
H -1420.38749832 4.03877307 24.85841926     6     1042    0    0    0
H -1419.77265791 5.36838770 22.02157928     6     1042    0    0    0
C -1417.94554287 1.81394432 22.63583696     2     1042    1046   1047   1048
H -1416.58076420 2.10255818 21.20963861     6     1045    0    0    0
H -1417.07946605 0.86175039 24.19911884     6     1045    0    0    0
C -1419.80936642 -0.07408827 21.65342928     2     1045   1049   1050   1051
H -1421.43794328 0.21758771 22.99681793     6    1048    0    0    0
H -1420.10298492 0.29612062 19.61686351     6    1048    0    0    0
C -1418.97397555 -2.84871073 22.25762285     2    1048   1052   1053   1054
H -1417.12776784 -3.22956416 21.55271422     6    1051    0    0    0
H -1418.86603828 -3.02436977 24.34180532     6    1051    0    0    0
C -1420.74956156 -4.98148373 21.34646643     2    1051   1055   1056   1057
H -1422.25702989 -5.02556160 22.74936946     6    1054    0    0    0
H -1421.76547240 -4.57875503 19.53720344     6    1054    0    0    0
C -1419.25420969 -7.55810062 21.24376255     2    1054   1058   1059   1060
H -1417.60015439 -7.25126652 20.12212280     6    1057    0    0    0
[...]
 1763      H   -1449.2826734600    29.1194090100    40.0576780500
 1764      C   -1446.8245882400    31.4957886300    42.5582808800
 1765      H   -1445.1361271100    30.4410520700    42.3035448500
 1766      H   -1446.1632488800    33.4268465800    42.7803279300
 1767      C   -1448.3870310700    30.6477912500    44.8170245400
 1768      H   -1450.0818147000    31.6504892400    44.5889994700
 1769      H   -1448.7232411800    28.6395312000    44.5485278900
 1770      C   -1447.2163001800    31.3351734500    47.3630003900
 1771      H   -1445.2306303700    30.7415138300    47.3439255400
 1772      H   -1447.0594330500    33.4208309800    47.1056199900
 1773      C   -1448.6096872900    30.2426381900    49.7948154800
 1774      H   -1450.5173381600    31.1936605200    49.6874278000
 1775      H   -1449.0965051300    28.1818633100    49.5181493300
 1776      C   -1447.0656375000    30.9313901700    52.2646457300
 1777      H   -1445.5242576900    29.6395117700    52.3272258700
 1778      H   -1446.1968807500    32.8030524200    52.1220968500
 1779      C   -1448.5769032000    30.5981277400    54.5734696200
 1780      H   -1450.2327823300    31.4882429700    54.0387887100
 1781      H   -1448.8979225800    28.5655237900    54.9104894700
 1782      C   -1447.6597861800    31.8676205400    56.9408544200
 1783      H   -1447.3077255100    33.7808567200    56.4992563800
 1784      H   -1449.0553892000    31.7870406500    58.5858009200
 1785      C   -1444.9696341100    31.0488412400    57.7279637100
 1786      H   -1444.9089556800    29.0102290000    58.0953612500
 1787      H   -1443.5623626300    31.4816153300    56.3755212100
 1788      C   -1444.0760024300    32.4741949900    60.0354432400
 1789      H   -1444.4672707200    34.5558302900    59.5908647500
 1790      H   -1445.2225649000    32.0949645300    61.5439024000
 1791      C   -1441.1128680800    32.0958797000    60.5353043700
 1792      H   -1440.4893586100    30.1732820300    60.7024105500
 1793      H   -1439.9936879000    32.8860089000    58.9750596200
 1794      C   -1440.3920439600    33.3681207700    63.0393478000
 1795      H   -1441.4685013900    32.8372439800    64.6489693300
 1796      H   -1440.7369324400    35.4135196300    62.8865902800
 1797      H   -1438.4264162700    33.2073700000    63.5077458500
 1798      H   -1415.8402830500   -10.1226397000    44.3323396200
 1799      C   -1416.3847113100    -8.6430205900    43.1507030200
 1800      H   -1416.3275441800    -7.0259252100    44.3914022400
 1801      H   -1415.1525385400    -8.4994276800    41.5608556700
 1802      C   -1419.0556391300    -9.1117544100    42.2964755300
 1803      H   -1419.3284615300   -10.7222372400    41.0378205900
 1804      H   -1420.2202130200    -9.2472635300    43.8214307800
 1805      C   -1420.0812736700    -6.8888493100    40.7832828000
 1806      H   -1420.2396342200    -5.2099872800    42.0569302800
 1807      H   -1418.7408258000    -6.2286730400    39.1993973200
 1808      C   -1422.6601439500    -7.3089499900    39.6677245000
 1809      H   -1422.8378240100    -8.8548396100    38.1675627300
 1810      H   -1423.9538714500    -7.6128389100    41.2416713100
 1811      C   -1423.5331983400    -4.7935032400    38.6313584800
 1812      H   -1423.4664705100    -3.4990020300    40.2773849600
 1813      H   -1422.4143306300    -4.2553242100    37.0837293000
 1814      C   -1426.1875516700    -4.6535762300    37.8362592400
 1815      H   -1426.8668683900    -6.4237237000    37.1693020700
 1816      H   -1427.2575825900    -4.5517186200    39.5449506200
 1817      C   -1427.1661132600    -2.5314848800    36.1639494600
 1818      H   -1426.7820126400    -0.7696547200    37.3110526600
 1819      H   -1426.0072907700    -2.3923959100    34.5962884300
 1820      C   -1429.8455109000    -2.8936050100    35.4238886400
 1821      H   -1429.9769129600    -4.6708508500    34.5158356200
 1822      H   -1430.8954989800    -3.1239975600    37.1751743600
 1823      C   -1431.2558965400    -0.8133040100    33.7678990700
 1824      H   -1430.9072300300     1.2231834000    34.0611152300
 1825      H   -1430.5145004600    -1.1635085600    31.7575608200
 1826      C   -1434.1006600500    -1.0983265300    33.5238181800
 1827      H   -1434.5707926200    -3.1122080800    33.9639758800
 1828      H   -1435.1840461000     0.1365789100    34.8972038100
 1829      C   -1435.1499902000    -0.3764278800    31.0073749200
 1830      H   -1434.7277059800     1.5989953400    30.8165526200
 1831      H   -1434.2316418600    -1.3817721500    29.3772754200
 1832      C   -1437.9778608600    -0.5399166800    30.5729516200
 1833      H   -1438.6310557600    -0.1748744400    28.5998715700
 1834      H   -1438.8904106400     0.9559400800    31.8372539800
 1835      H   -1438.6595750000    -2.3320271400    31.1699249900
 1836      H   -1435.3284299200     3.3905199500    37.1936322900
 1837      C   -1433.8437394300     3.5542406900    38.6083735700
 1838      H   -1432.0470241200     3.0376479000    37.7394637700
 1839      H   -1433.6687375500     5.5049011100    38.9973278300
 1840      C   -1434.3498218200     2.4268519200    41.2639689600
 1841      H   -1432.8092616600     2.9425446400    42.4616691600
 1842      H   -1435.9674361300     3.4846733200    42.1037675300
 1843      C   -1434.3258803800    -0.3950376900    41.4241969400
 1844      H   -1435.6624206000    -1.1046699600    40.0267436600
 1845      H   -1432.5473319800    -1.0454306300    40.6126630800
 1846      C   -1434.8594902900    -1.5659237900    44.1777882600
 1847      H   -1433.2189955700    -0.7021268300    45.2238127900
 1848      H   -1436.7030653400    -1.0415443800    44.8980153700
 1849      C   -1434.6137244200    -4.5201640500    44.5294448900
 1850      H   -1435.5366284300    -5.5452310800    43.0459501100
 1851      H   -1432.5418948800    -4.8177928500    44.3603853700
 1852      C   -1435.7497427400    -5.5577924500    47.0469967400
 1853      H   -1437.7756741800    -4.8666734900    46.9578993700
 1854      H   -1435.7957942900    -7.5590933500    46.8135324200
 1855      C   -1434.5096100000    -4.5834614700    49.4319745500
 1856      H   -1432.4346189700    -4.8201574400    49.3223233300
 1857      H   -1434.6321573000    -2.4969663500    49.1799296900
 1858      C   -1435.8247718600    -5.6931373700    51.8016061100
 1859      H   -1437.8635127600    -5.9185699500    51.6149424300
 1860      H   -1435.1103836900    -7.5894263600    51.9387699300
 1861      C   -1435.0783670400    -4.0992681600    54.1067080100
 1862      H   -1433.0230323600    -3.9178463400    54.3750951000
 1863      H   -1435.3698538500    -2.0461360900    53.7920266800
 1864      C   -1436.0743215500    -5.2953480200    56.6153915600
 1865      H   -1438.1690997800    -5.2074787900    56.3883898800
 1866      H   -1435.4647520000    -7.2937303300    56.5452642100
 1867      C   -1435.2373960100    -3.9518850000    59.1853396800
 1868      H   -1433.2658196200    -3.3160745300    58.9531682200
 1869      H   -1436.2863624800    -2.3093210400    59.5116015800
 1870      C   -1434.6794462500    -5.5708638700    61.6082829300
 1871      H   -1434.0799540100    -4.5879485300    63.1907105000
 1872      H   -1433.1718598400    -6.9515639100    61.1259911300
 1873      H   -1436.4345242900    -6.5350174800    62.2146085900
 1874      H   -1424.4823581800    22.7715426300    53.7617198600
 1875      C   -1423.3593813900    22.0597304200    52.2749998200
 1876      H   -1421.6814633100    23.1732288600    52.3620117700
 1877      H   -1422.9366058700    20.2233868600    52.8891630000
 1878      C   -1424.5559313700    22.4477549600    49.6123014100
 1879      H   -1426.5491014800    22.0019082600    49.5556629400
 1880      H   -1424.4704521700    24.5029689000    49.2459610300
 1881      C   -1423.0092436600    20.9165161200    47.6108519500
 1882      H   -1421.1773643100    21.4117508100    47.9900305600
 1883      H   -1423.2458236200    18.9521534500    48.1961239800
 1884      C   -1423.7483919200    21.5508256200    44.8661863500
 1885      H   -1425.5675096600    20.9748912200    44.6480512200
 1886      H   -1423.7268451500    23.5095534300    44.6338683600
 1887      C   -1422.1194635000    20.3999577500    42.8059581700
 1888      H   -1420.2421984400    21.1227003000    42.9482956400
 1889      H   -1422.2395367300    18.4397121100    43.5240730600
 1890      C   -1422.9860487000    20.8878238800    40.1195667100
 1891      H   -1424.9221627700    20.0738945000    39.8366342500
 1892      H   -1423.2136343700    22.8039962700    39.6770032800
 1893      C   -1421.2289521100    19.6755262500    38.0259421400
 1894      H   -1419.3072563900    20.5009410700    38.3671734000
 1895      H   -1421.0506591900    17.5803112400    37.8508832000
 1896      C   -1421.9500831100    20.6336494400    35.3908025100
 1897      H   -1423.8695550900    20.2055323400    34.8464145700
 1898      H   -1422.0307806100    22.6423755900    35.6596950400
 1899      C   -1419.9829161800    19.9562924400    33.3960870000
 1900      H   -1418.1317609200    20.4826583600    33.9988030200
 1901      H   -1419.8052236500    17.8842704900    33.5318453500
 1902      C   -1420.6354915200    21.1273632600    30.7937478300
 1903      H   -1422.6693704100    20.7066141700    30.4220640600
 1904      H   -1420.2745456900    23.0619493000    30.4921524500
 1905      C   -1418.9577003800    19.8328404900    28.9570075500
 1906      H   -1417.0877961300    19.7745818300    29.6242074500
 1907      H   -1419.3992233800    17.8162623900    28.7975975600
 1908      C   -1418.6572241900    20.9675191500    26.3195972800
 1909      H   -1418.3058812500    22.9848752400    26.6390844800
 1910      H   -1420.4335540500    20.8912200600    25.1620747600
 1911      H   -1417.2911724900    20.0168353900    25.2279857100
 ----------------------------------------------------------------
 Nuclear Repulsion Energy =           0.00000000 hartrees
 There are     2498 alpha and     2498 beta electrons

 Total QAlloc Memory Limit   2000 MB
 Mega-Array Size       204 MB
 MEM_STATIC part       192 MB
   **** Step 1: MM calculation on the entire system **** 
 OPLSAA force field loaded.
Reading user-defined FF parameters...
 Reading user defined atom types.
 Found 3 user defined AtomTypes
finished.
Determining angles, torsions, etc. from user defined input
Determining VDW/Coulomb pairs... (useList = 0)

 Time req'd to get MM system information: 0.2 s (CPU) 0.3 s (wall)

 ------ MM Energies ------
   Ebond:           567.634328789819
   Eangle:          870.936903392573
   EUreyBrad:         0.000000000000
   Eimptors:          0.000000000000
   Etorsion:        229.972242539710
   Evdw:        1139977.038545019925
   Ecoulomb:        183.437107057541
   Etot:        1141829.019126799656 Kcal/mol (   1819.620375302351 hartree)
 -------------------------
 Time req'd to calc MM energy: 0.1 s (CPU) 0.1 s (wall)
 OPLSAA force field loaded.
Reading user-defined FF parameters...
 Reading user defined atom types.
 Found 3 user defined AtomTypes
finished.
 Time req'd to get MM system information: 0.0 s (CPU) 0.0 s (wall)
 Time req'd to calc MM gradient: 0.2 s (CPU) 0.2 s (wall)
   **** Step 2: MM calculation on the model system **** 
 Reading user defined atom types.
 Found 3 user defined AtomTypes
 ----------------------------------------------------------------
             Standard Nuclear Orientation (Bohr)
    I     Atom           X                Y                Z
 ----------------------------------------------------------------
    1      Fe  -1430.1200312800    15.9558308400    38.6995660600
    2      C   -1429.4477508800    18.9249512800    37.2689585300
    3      C   -1429.6687195300    16.1472756900    42.1054644600
    4      C   -1433.5258957700    16.1295981200    39.0584434900
    5      C   -1430.6536028100    13.8263072200    36.0899628600
    6      C   -1426.7674931400    14.9846779400    38.2700571800
    7      O   -1429.0853644400    20.9843380600    36.6607336800
    8      O   -1429.2587812600    16.2925429100    44.2818349100
    9      O   -1435.7639475300    15.8300817500    39.0589010600
   10      O   -1430.9897170300    12.8379154100    34.1488833400
   11      O   -1424.8416170300    14.1898130600    37.7552126000
 ----------------------------------------------------------------
 Nuclear Repulsion Energy =         799.21268321 hartrees
 There are       48 alpha and       48 beta electrons
 OPLSAA force field loaded.
Reading user-defined FF parameters...
 Reading user defined atom types.
 Found 3 user defined AtomTypes
finished.
Determining VDW/Coulomb pairs... (useList = 0)

 No MM bonds in system. Return all possible pairs.
 Time req'd to get MM system information: 0.0 s (CPU) 0.0 s (wall)

 ------ MM Energies ------
   Ebond:             0.000000000000
   Eangle:            0.000000000000
   EUreyBrad:         0.000000000000
   Eimptors:          0.000000000000
   Etorsion:          0.000000000000
   Evdw:        1140393.552720445907
   Ecoulomb:         -6.513532084883
   Etot:        1140387.039188361028 Kcal/mol (   1817.322433988189 hartree)
 -------------------------
 Eold: 1819.6203753 mm_energy: 1817.3224340 Enew:    2.2979413
 Time req'd to calc MM energy: 0.0 s (CPU) 0.0 s (wall)
 OPLSAA force field loaded.
Reading user-defined FF parameters...
 Reading user defined atom types.
 Found 3 user defined AtomTypes
finished.
Determining VDW/Coulomb pairs... (useList = 0)

 No MM bonds in system. Return all possible pairs.
 Time req'd to get MM system information: 0.0 s (CPU) 0.0 s (wall)
 Number of fixed atoms: 0
 Time req'd to calc MM gradient: 0.0 s (CPU) 0.0 s (wall)
   **** Step 3: QM calculation on the model system **** 
 Requested basis set is def2-mSVP
 There are 80 shells and 174 basis functions

                       Distance Matrix (Bohrs)
             Fe(  1)   C (  2)   C (  3)   C (  4)   C (  5)   C (  6)
   C (  2)  3.363670
   C (  3)  3.440999  5.581765
   C (  4)  3.429125  5.258091  4.915532
   C (  5)  3.410220  5.370315  6.522511  4.729386
   C (  6)  3.516693  4.869470  4.947636  6.899884  4.603964
   O (  7)  5.523881  2.177690  7.306338  7.002559  7.350004  6.630111
   O (  8)  5.658344  7.493045  2.219401  6.746750  8.668022  6.637658
   O (  9)  5.656742  7.257854  6.821581  2.258005  6.240619  9.070456
   O ( 10)  5.584484  7.011743  8.718032  6.432042  2.204015  6.278522
   O ( 11)  5.645554  6.623779  6.786551  8.993213  6.056762  2.146130
             O (  7)   O (  8)   O (  9)   O ( 10)
   O (  8)  8.951212
   O (  9)  8.770464  8.355244
   O ( 10)  8.734996 10.844690  7.473594
   O ( 11)  8.085348  8.156569 11.121483  7.254817

 A cutoff of  1.0D-11 yielded   2492 shell pairs
 There are     12846 function pairs (     14702 Cartesian)
 Smallest overlap matrix eigenvalue = 2.37E-03
 Guess MOs from SCF MO coefficient file
 Reading MOs from coefficient file
 Reading MOs from coefficient file
 A restricted Kohn-Sham SCF calculation will be
 performed using Pulay DIIS extrapolation
 Exchange:  B88      Correlation:  P86
 Using SG-1 standard quadrature grid
 SCF converges when DIIS error is below 1.0E-08
 Using Q-Chem read-in guess as SCF_GUESS READ specified.

 using 2 threads for integral computing
 -------------------------------------------------------
 OpenMP Integral computing Module                
 Release: version 1.0, May 2013, Q-Chem Inc. Pittsburgh 
 -------------------------------------------------------
 ---------------------------------------
  Cycle       Energy         DIIS Error
 ---------------------------------------
    1   -1830.5149642600      1.75E-09
    2   -1830.5149642598      1.11E-08
    3   -1830.5149642596      5.97E-09 Convergence criterion met
 ---------------------------------------
 SCF time:  CPU 4.13 s  wall 2.17 s
 E(QM + QM/MM):    -1830.5149642596 E(MM):    2.2979413 E(Tot): -1828.217022945403 
 SCF   energy in the final basis set = -1828.21702295
 Total energy in the final basis set = -1828.21702295

 --------------------------------------------------------------

                    Orbital Energies (a.u.)
 --------------------------------------------------------------

 Alpha MOs
 -- Occupied --
******** -29.6356 -25.5949 -25.5851 -25.5771 -18.8997 -18.8791 -18.8775
-18.8739 -18.8737 -10.0632 -10.0528 -10.0449 -10.0415 -10.0370  -3.3194
 -2.1531  -2.1362  -2.1188  -1.0873  -1.0530  -1.0495  -1.0405  -1.0348
 -0.5739  -0.5291  -0.5184  -0.5154  -0.5139  -0.4612  -0.4532  -0.4493
 -0.4347  -0.4263  -0.4254  -0.4215  -0.4211  -0.4114  -0.4097  -0.4068
 -0.4048  -0.4005  -0.3872  -0.3803  -0.2796  -0.2655  -0.2427  -0.2117
 -- Virtual --
 -0.1098  -0.0961  -0.0839  -0.0790  -0.0759  -0.0684  -0.0615  -0.0553
 -0.0472  -0.0407  -0.0234   0.0137   0.1923   0.2016   0.2206   0.2455
  0.2862   0.3411   0.3737   0.3938   0.4009   0.4168   0.4355   0.4392
  0.4563   0.4694   0.4787   0.5109   0.5265   0.5405   0.5697   0.6097
  0.6181   0.6208   0.6320   0.6644   0.7330   0.7524   0.7669   0.7691
  0.7773   0.8297   0.8387   0.8492   0.8726   0.9127   0.9527   0.9598
  0.9625   0.9727   0.9828   1.0057   1.0263   1.0418   1.0511   1.0696
  1.1594   1.1979   1.2246   1.3454   1.3924   1.4082   1.4106   1.4153
  1.4171   1.4249   1.4281   1.4423   1.4477   1.4516   1.4619   1.4664
  1.5234   1.5290   1.5392   1.5740   1.6011   1.6396   1.6696   1.6801
  1.6959   1.8147   1.8310   1.8341   1.8419   1.8440   1.8532   1.8615
  1.8654   1.8678   1.8739   1.8798   1.8892   1.9045   1.9212   1.9561
  2.3564   2.3947   2.4053   2.4432   2.4554   2.4750   2.4784   2.5037
  2.5184   2.5604   2.6332   2.6364   2.6495   2.6738   2.6811   2.8037
  2.8252   2.8777   2.8854   2.9842  13.2565  13.2692  13.3147  13.3642
 13.3987  24.9097  24.9445  24.9563  24.9616  25.0184
 --------------------------------------------------------------

          Ground-State Mulliken Net Atomic Charges

     Atom                 Charge (a.u.)
  ----------------------------------------
      1 Fe                   -0.549493
      2 C                     0.256082
      3 C                     0.214024
      4 C                     0.212751
      5 C                     0.214338
      6 C                     0.213527
      7 O                    -0.106865
      8 O                    -0.126844
      9 O                    -0.140342
     10 O                    -0.115245
     11 O                    -0.071932
  ----------------------------------------
  Sum of atomic charges =     0.000000

 -----------------------------------------------------------------
                    Cartesian Multipole Moments
 -----------------------------------------------------------------
    Charge (ESU x 10^10)
                -0.0000
    Dipole Moment (Debye)
         X       0.7499238872      Y      -0.0859039654      Z      -0.1598707524
       Tot       0.7715724109
    Quadrupole Moments (Debye-Ang)
        XX   -1203.5353     XY      70.5486     YY     -70.9500
        XZ     135.8192     YZ      -3.4569     ZZ     -77.3327
    Octopole Moments (Debye-Ang^2)
       XXX 1443955.2809    XXY  -58157.6879    XYY   53729.0988
       YYY   -1790.8688    XXZ -115405.4654    XYZ    2725.7440
       YYZ   -1458.1519    XZZ   58813.1113    YZZ    -701.9988
       ZZZ   -4537.6794
    Hexadecapole Moments (Debye-Ang^3)
      XXXX ************   XXXY ************   XXYY ************
      XYYY 1355457.3469   YYYY  -30883.6025   XXXZ ************
      XXYZ ************   XYYZ 1104204.4278   YYYZ  -36573.4724
      XXZZ ************   XYZZ  533391.2456   YYZZ  -35211.2172
      XZZZ 3439567.6917   YZZZ  -39471.1686   ZZZZ -183394.7393
 -----------------------------------------------------------------
 Calculating MO derivatives via CPSCF
 Full subspace dimension requested for CIS/TDDFT
 MAX_CIS_SUBSPACE fits in available memory
    1     0    36    0.0407180  
    2     0    36    0.0062991  
    3     0    36    0.0007092  
