                  Welcome to Q-Chem
     A Quantum Leap Into The Future Of Chemistry


 Q-Chem 5.4 (devel), Q-Chem, Inc., Pleasanton, CA (2021)

 E. Epifanovsky,  A. T. B. Gilbert,  Xintian Feng,  Joonho Lee,  Yuezhi Mao,  
 N. Mardirossian,  P. Pokhilko,  A. White,  M. Wormit,  M. P. Coons,  
 A. L. Dempwolff,  Zhengting Gan,  D. Hait,  P. R. Horn,  L. D. Jacobson,  
 I. Kaliman,  J. Kussmann,  A. W. Lange,  Ka Un Lao,  D. S. Levine,  Jie Liu,  
 S. C. McKenzie,  A. F. Morrison,  K. Nanda,  F. Plasser,  D. R. Rehn,  
 M. L. Vidal,  Zhi-Qiang You,  Ying Zhu,  B. Alam,  B. Albrecht,  
 A. Aldossary,  E. Alguire,  J. H. Andersen,  D. Barton,  K. Begam,  A. Behn,  
 Y. A. Bernard,  E. J. Berquist,  H. Burton,  A. Carreras,  K. Carter-Fenk,  
 R. Chakraborty,  A. D. Chien,  K. D. Closser,  V. Cofer-Shabica,  
 S. Dasgupta,  Jia Deng,  M. de Wergifosse,  M. Diedenhofen,  Hainam Do,  
 S. Ehlert,  Po-Tung Fang,  S. Fatehi,  Qingguo Feng,  T. Friedhoff,  
 J. Gayvert,  Qinghui Ge,  G. Gidofalvi,  M. Goldey,  J. Gomes,  
 C. Gonzalez-Espinoza,  S. Gulania,  A. Gunina,  M. W. D. Hanson-Heine,  
 P. H. P. Harbach,  A. W. Hauser,  M. F. Herbst,  M. Hernandez Vera,  
 M. Hodecker,  Z. C. Holden,  S. Houck,  Xunkun Huang,  Kerwin Hui,  
 B. C. Huynh,  M. Ivanov,  Hyunjun Ji,  Hanjie Jiang,  B. Kaduk,  S. Kaehler,  
 K. Khistyaev,  Jaehoon Kim,  P. Klunzinger,  Z. Koczor-Benda,  
 Joong Hoon Koh,  D. Kosenkov,  L. Koulias,  T. Kowalczyk,  C. M. Krauter,  
 K. Kue,  A. Kunitsa,  T. Kus,  A. Landau,  K. V. Lawler,  D. Lefrancois,  
 S. Lehtola,  Rain Li,  Yi-Pei Li,  Jiashu Liang,  M. Liebenthal,  
 Hung-Hsuan Lin,  You-Sheng Lin,  Fenglai Liu,  Kuan-Yu Liu,  
 M. Loipersberger,  A. Luenser,  A. Manjanath,  P. Manohar,  E. Mansoor,  
 S. F. Manzer,  Shan-Ping Mao,  A. V. Marenich,  T. Markovich,  S. Mason,  
 S. A. Maurer,  P. F. McLaughlin,  M. F. S. J. Menger,  J.-M. Mewes,  
 S. A. Mewes,  P. Morgante,  J. W. Mullinax,  K. J. Oosterbaan,  G. Paran,  
 Alexander C. Paul,  Suranjan K. Paul,  F. Pavosevic,  Zheng Pei,  S. Prager,  
 E. I. Proynov,  E. Ramos,  B. Rana,  A. E. Rask,  A. Rettig,  R. M. Richard,  
 F. Rob,  E. Rossomme,  T. Scheele,  M. Scheurer,  M. Schneider,  
 N. Sergueev,  S. M. Sharada,  W. Skomorowski,  D. W. Small,  C. J. Stein,  
 Yu-Chuan Su,  E. J. Sundstrom,  Zhen Tao,  J. Thirman,  T. Tsuchimochi,  
 N. M. Tubman,  S. P. Veccham,  O. Vydrov,  J. Wenzel,  J. Witte,  A. Yamada,  
 Kun Yao,  S. Yeganeh,  S. R. Yost,  A. Zech,  Igor Ying Zhang,  Xing Zhang,  
 Yu Zhang,  D. Zuev,  A. Aspuru-Guzik,  A. T. Bell,  N. A. Besley,  
 K. B. Bravaya,  B. R. Brooks,  D. Casanova,  Jeng-Da Chai,  S. Coriani,  
 C. J. Cramer,  A. E. DePrince, III,  R. A. DiStasio Jr.,  A. Dreuw,  
 B. D. Dunietz,  T. R. Furlani,  W. A. Goddard III,  S. Grimme,  
 S. Hammes-Schiffer,  T. Head-Gordon,  W. J. Hehre,  Chao-Ping Hsu,  
 T.-C. Jagau,  Yousung Jung,  A. Klamt,  Jing Kong,  D. S. Lambrecht,  
 WanZhen Liang,  N. J. Mayhall,  C. W. McCurdy,  J. B. Neaton,  
 C. Ochsenfeld,  J. A. Parkhill,  R. Peverati,  V. A. Rassolov,  Yihan Shao,  
 L. V. Slipchenko,  T. Stauch,  R. P. Steele,  J. E. Subotnik,  
 A. J. W. Thom,  A. Tkatchenko,  D. G. Truhlar,  T. Van Voorhis,  
 T. A. Wesolowski,  K. B. Whaley,  H. L. Woodcock III,  P. M. Zimmerman,  
 S. Faraji,  P. M. W. Gill,  M. Head-Gordon,  J. M. Herbert,  A. I. Krylov

 Additional authors for Version 5.4.1: 
 S. Kotaru,  Shaozhi Li,  Xiangyuan Li,  F. Matz,  A. Molle,  Haisheng Ren,  
 Yingli Su,  Hung-Yi Tsai,  C. Utku,  Fang Wang

 Contributors to earlier versions of Q-Chem not listed above: 
 R. D. Adamson,  B. Austin,  R. Baer,  J. Baker,  G. J. O. Beran,  
 K. Brandhorst,  S. T. Brown,  E. F. C. Byrd,  A. K. Chakraborty,  
 G. K. L. Chan,  Chun-Min Chang,  Yunqing Chen,  C.-L. Cheng,  
 Siu Hung Chien,  D. M. Chipman,  D. L. Crittenden,  H. Dachsel,  
 R. J. Doerksen,  A. D. Dutoi,  R. G. Edgar,  J. Fosso-Tande,  
 L. Fusti-Molnar,  D. Ghosh,  A. Ghysels,  A. Golubeva-Zadorozhnaya,  
 J. Gonthier,  M. S. Gordon,  S. R. Gwaltney,  G. Hawkins,  J. E. Herr,  
 A. Heyden,  S. Hirata,  E. G. Hohenstein,  G. Kedziora,  F. J. Keil,  
 C. Kelley,  Jihan Kim,  R. A. King,  R. Z. Khaliullin,  P. P. Korambath,  
 W. Kurlancheek,  A. Laurent,  A. M. Lee,  M. S. Lee,  S. V. Levchenko,  
 Ching Yeh Lin,  D. Liotard,  E. Livshits,  R. C. Lochan,  I. Lotan,  
 L. A. Martinez-Martinez,  P. E. Maslen,  N. Nair,  D. P. O'Neill,  
 D. Neuhauser,  E. Neuscamman,  C. M. Oana,  R. Olivares-Amaya,  R. Olson,  
 T. M. Perrine,  B. Peters,  P. A. Pieniazek,  A. Prociuk,  Y. M. Rhee,  
 J. Ritchie,  M. A. Rohrdanz,  E. Rosta,  N. J. Russ,  H. F. Schaefer III,  
 M. W. Schmidt,  N. E. Schultz,  S. Sharma,  N. Shenvi,  C. D. Sherrill,  
 A. C. Simmonett,  A. Sodt,  T. Stein,  D. Stuck,  K. S. Thanthiriwatte,  
 V. Vanovschi,  L. Vogt,  Tao Wang,  A. Warshel,  M. A. Watson,  
 C. F. Williams,  Q. Wu,  X. Xu,  Jun Yang,  W. Zhang,  Yan Zhao

 Please cite Q-Chem as follows:
 Y. Shao et al., Mol. Phys. 113, 184-215 (2015)
 DOI: 10.1080/00268976.2014.952696

 Q-Chem 5.4.1 for Intel X86 EM64T Linux

 Parts of Q-Chem use Armadillo 9.900.5 (Nocturnal Misbehaviour).
 http://arma.sourceforge.net/

 Q-Chem begins on Wed Jun 22 16:41:24 2022  

 Host: p09r14n13.grace.hpc.yale.internal
0

     Scratch files written to /home/tl686/scratch60/qchem_dev/scratch/qchem247202//
 Processing $rem in /home/tl686/qchem_dev/qchem/config/preferences:
 Processing $rem in /home/tl686/.qchemrc:
Applying user defined connections for MM calculations

 Checking the input file for inconsistencies... 	...done.

--------------------------------------------------------------
User input:
--------------------------------------------------------------
$molecule
0   1
 Fe 1476.14301594 -17.44743990 3.48254721    -1  0   0   0   0
C 1472.96003378 -18.53204332 3.71759117    -2  0   0   0   0 
C 1475.41170175 -15.50783922 0.67708393    -2  0   0   0   0
C 1477.41893812 -19.36052954 5.96701437    -2  0   0   0   0
C 1478.52949353 -19.10404221 1.64218976    -2  0   0   0   0
C 1477.22784421 -14.48065129 4.81329264    -2  0   0   0   0
O 1470.92017947 -19.48003753 3.88882046    -3  0   0   0   0
O 1475.64169252 -14.25376525 -1.16160484    -3  0   0   0   0 
O 1478.50836180 -20.92273631 7.07713356    -3  0   0   0   0
O 1479.85453635 -20.63155700 0.74637149    -3  0   0   0   0 
O 1477.65650316 -12.30817998 5.19927049    -3  0   0   0   0
H 1461.75683243 -38.05213671 20.02935955      6     13    0    0    0 
C 1463.35269710 -36.80962073 19.49719020     1     12    14    15    16
H 1462.91107868 -34.87936018 20.11293548     6     13    0    0    0
H 1464.71059300 -37.50423122 20.88210522     6     13    0    0    0
C 1464.23416121 -37.34848432 16.82996772     2     13    17    18    19
H 1462.85644237 -36.80287428 15.62129785     6     16    0    0    0
H 1465.76102612 -36.07018707 16.19353031     6     16    0    0    0
C 1465.19768512 -39.92905879 16.09971206     2     16    20   21   22
H 1466.81147034 -40.20735808 17.30562268     6     19    0    0    0
H 1463.97576985 -41.39872567 16.83951421     6     19    0    0    0
C 1465.91287555 -40.40205413 13.40806188     2     19   23   24   25
H 1464.36794388 -39.60353609 12.11012504     6    22    0    0    0
H 1467.50313022 -39.04672143 13.10863511     6    22    0    0    0
C 1466.70649986 -42.98007503 12.53065233     2    22   26   27   28
H 1468.50522912 -43.32997036 13.53139465     6    25    0    0    0
H 1465.29295798 -44.36354459 13.14962212     6    25    0    0    0
C 1466.93773578 -43.20380439 9.54847362     2    25   29   30   31
H 1467.27982659 -45.23218700 9.48091999     6    28    0    0    0
H 1465.02836522 -42.74201239 8.70897318     6    28    0    0    0
C 1468.98849264 -41.60372480 8.33673335     2    28   32   33   34
H 1468.74855518 -39.61596407 8.99424053     6    31    0    0    0
H 1470.75120459 -42.15847701 9.01813756     6    31    0    0    0
C 1468.93494339 -41.57480712 5.36934758     2    31   35   36   37
H 1469.38502951 -43.45273202 4.54768487     6    34    0    0    0
H 1466.99785286 -41.35585446 4.70084076     6    34    0    0    0
C 1470.49405822 -39.64076265 3.78241112     2    34   38   39   40
H 1469.77283100 -37.64044663 4.12900820     6    37    0    0    0
H 1472.44732886 -39.76576886 4.39628671     6    37    0    0    0
C 1470.15795665 -40.17559066 0.90276241     2    37   41   42   43
H 1470.44203405 -42.17907192 0.55470789     6    40    0    0    0
H 1468.26181592 -39.79787452 0.24310496     6    40    0    0    0
C 1472.04902831 -38.74627257 -0.81656956     2    40   44   45   46
H 1471.50483296 -36.73997493 -0.86330848     6    43    0    0    0
H 1474.04061709 -38.68569649 -0.34666485     6    43    0    0    0
C 1471.76427927 -39.73020328 -3.48328452     1    43   47   48   49
H 1469.70636924 -39.87619415 -4.13414716     6    46    0    0    0
H 1472.78957820 -41.45598704 -3.53796978     6    46    0    0    0
H 1472.73968535 -38.49617020 -4.90388268     6    46    0    0    0
H 1471.89530227 -23.98792184 -3.38515153     6     51    0    0    0 
C 1471.83809574 -23.09182402 -1.48350817     1     50    52    53    54
H 1473.32370040 -21.73862466 -1.32311648     6     51    0    0    0
H 1470.12277601 -21.85213010 -1.39734681     6     51    0    0    0
C 1471.65954516 -24.97253319 0.86127662     2     51    55    56    57
H 1472.13331934 -23.98442687 2.48329965     6     54    0    0    0
H 1469.76069034 -25.66015256 1.18984492     6     54    0    0    0
C 1473.79509205 -26.95820839 0.65942796     2     54    58   59   60
H 1475.65703752 -25.76014623 0.70542887     6     57    0    0    0
H 1473.61119368 -28.26218960 2.22536111     6     57    0    0    0
C 1473.63766486 -28.55402329 -1.59315614     2     57   61   62   63
H 1471.66849194 -29.34522299 -1.76129587     6    60    0    0    0
H 1474.08790149 -27.36670046 -3.16991267     6    60    0    0    0
C 1475.37324416 -30.80875784 -1.64149102     2    60   64   65   66
H 1477.44195732 -30.52423803 -1.72906105     6    63    0    0    0
H 1475.00686386 -32.10503076 -0.01112505     6    63    0    0    0
C 1474.86774744 -32.54259229 -3.84366410     2    63   67   68   69
H 1476.29074665 -34.03316415 -3.71358313     6    66    0    0    0
H 1473.00824221 -33.23153192 -3.49108650     6    66    0    0    0
C 1475.33487351 -31.49732828 -6.56487326     2    66   70   71   72
H 1474.31036442 -29.79569446 -6.53231664     6    69    0    0    0
H 1477.32526834 -30.94447472 -6.81929504     6    69    0    0    0
C 1474.53049791 -33.24547747 -8.78465965     2    69   73   74   75
H 1476.07434149 -34.43160328 -9.14507682     6    72    0    0    0
H 1472.51281906 -34.00284306 -8.64435784     6    72    0    0    0
C 1474.59447950 -31.61028414 -11.20627891     2    72   76   77   78
H 1473.42727859 -29.97637205 -10.82895650     6    75    0    0    0
H 1476.56350942 -30.96167710 -11.15273814     6    75    0    0    0
C 1474.12504181 -33.07160308 -13.68399002     2    75   79   80   81
H 1475.69523163 -34.25875089 -14.23901959     6    78    0    0    0
H 1472.66159084 -34.36411991 -13.48293267     6    78    0    0    0
C 1473.18442051 -31.27356898 -15.88532127     2    78   82   83   84
H 1471.47639789 -30.37019752 -15.26376267     6    81    0    0    0
H 1474.47591854 -29.67742510 -16.17037476     6    81    0    0    0
C 1472.38553506 -32.84619340 -18.21023930     1    81   85   86   87
H 1471.62885583 -31.90197502 -20.03416635     6    84    0    0    0
H 1470.81961327 -34.04692609 -17.54898224     6    84    0    0    0
H 1473.81306248 -34.31834037 -18.61574098     6    84    0    0    0
H 1495.40930108 -47.05928269 14.79840484     6     89    0    0    0 
C 1495.02321532 -47.73012336 12.81898102     1     88    90    91    92
H 1495.89603090 -46.69627937 11.39270285     6     89    0    0    0
H 1495.87020561 -49.65182713 12.80093491     6     89    0    0    0
C 1492.12038144 -47.95328822 12.27719620     2     89    93    94    95
H 1491.20595502 -48.68358213 13.95903792     6     92    0    0    0
H 1491.29344607 -46.02484251 12.13091950     6     92    0    0    0
C 1491.59047971 -49.91283080 10.18150677     2     92    96   97   98
H 1492.92138458 -49.57252661 8.60678370     6     95    0    0    0
H 1491.96470047 -51.72261138 11.00504419     6     95    0    0    0
C 1488.78225887 -49.70023853 9.47291702     2     95   99   100   101
H 1487.47988211 -49.92515173 11.11203491     6    98    0    0    0
H 1488.48251028 -47.78596301 8.80852123     6    98    0    0    0
C 1488.21768365 -51.77854222 7.29382826     2    98   102   103   104
H 1489.32270254 -51.12685598 5.57136165     6    101    0    0    0
H 1488.82187677 -53.64862123 7.70456466     6    101    0    0    0
C 1485.41779139 -52.00637024 6.58037644     2    101   105   106   107
H 1484.38959202 -53.10914806 8.12721920     6    104    0    0    0
H 1484.66139746 -50.15138326 6.42961836     6    104    0    0    0
C 1485.10966873 -53.34795099 4.02501597     2    104   108   109   110
H 1486.41240084 -52.52776457 2.65639458     6    107    0    0    0
H 1485.46232862 -55.27060380 4.42200641     6    107    0    0    0
C 1482.49283343 -53.16953247 2.99425521     2    107   111   112   113
H 1481.24129620 -53.91527423 4.37601682     6    110    0    0    0
H 1482.08522503 -51.24368102 2.54411694     6    110    0    0    0
C 1482.26182883 -54.62475882 0.61201155     2    110   114   115   116
H 1483.83344752 -54.08241599 -0.46014033     6    113    0    0    0
H 1482.62835025 -56.67715931 0.94458663     6    113    0    0    0
C 1479.71579547 -54.15344252 -0.98362906     2    113   117   118   119
H 1478.15895083 -54.94222270 0.13538023     6    116    0    0    0
H 1479.20885432 -52.14216612 -1.39664321     6    116    0    0    0
C 1479.54264750 -55.45196355 -3.55199555     2    116   120   121   122
H 1477.76582997 -54.54213532 -4.43605418     6    119    0    0    0
H 1481.20251626 -55.33333174 -4.74118496     6    119    0    0    0
C 1478.56998505 -58.08553566 -3.46815339     1    119   123   124   125
H 1478.11194799 -58.76366730 -5.30406584     6    122    0    0    0
H 1476.70961301 -58.02253217 -2.51927786     6    122    0    0    0
H 1479.69739972 -59.35246690 -2.43392653     6    122    0    0    0
H 1499.90602311 -34.48295485 17.41391195     6     127    0    0    0 
C 1499.80953552 -32.54397384 16.72005605     1     126    128    129    130
H 1500.63854558 -31.35617467 18.22870739     6     127    0    0    0
H 1500.82367998 -32.11157206 15.02758184     6     127    0    0    0
C 1497.05828726 -31.78339550 16.53415056     2     127    131    132    133
H 1496.23574333 -33.19534217 15.30922096     6     130    0    0    0
H 1496.23712500 -32.09343454 18.36813466     6     130    0    0    0
C 1496.63016991 -29.05678746 15.33348911     2     130    134   135   136
H 1498.20849066 -27.74645639 15.80062253     6     133    0    0    0
H 1496.46192981 -28.93461516 13.27068494     6     133    0    0    0
C 1494.07608374 -27.94957697 16.46947811     2     133   137   138   139
H 1492.49324502 -29.10537994 16.04870891     6    136    0    0    0
H 1494.29935677 -27.51742536 18.56734869     6    136    0    0    0
C 1493.70515458 -25.24635335 15.34558441     2    136   140   141   142
H 1495.32920915 -24.14275708 15.46311894     6    139    0    0    0
H 1492.89160336 -25.40466007 13.42131023     6    139    0    0    0
C 1491.69282089 -23.92714666 16.72763433     2    139   143   144   145
H 1489.88112676 -24.67257073 16.40692965     6    142    0    0    0
H 1491.76857852 -24.14551587 18.77232146     6    142    0    0    0
C 1491.27364447 -21.09176359 16.10705591     2    142   146   147   148
H 1492.95941132 -19.98526661 16.07297696     6    145    0    0    0
H 1490.51999781 -21.01636184 14.05809799     6    145    0    0    0
C 1489.05804427 -19.95150397 17.70222290     2    145   149   150   151
H 1487.28962217 -21.02712774 17.66255808     6    148    0    0    0
H 1489.71472256 -20.08866588 19.69243301     6    148    0    0    0
C 1488.76319560 -17.12498224 17.18041525     2    148   152   153   154
H 1490.44525429 -16.32086946 16.44513977     6    151    0    0    0
H 1487.43585965 -17.28146560 15.59321677     6    151    0    0    0
C 1487.56439534 -15.60807715 19.42241597     2    151   155   156   157
H 1487.06689984 -13.71137198 18.66780469     6    154    0    0    0
H 1485.86689038 -16.75420595 19.69377058     6    154    0    0    0
C 1489.32379818 -15.36185203 21.75163262     2    154   158   159   160
H 1489.66499053 -17.18979649 22.51953959     6    157    0    0    0
H 1491.23617949 -14.66356598 21.31391572     6    157    0    0    0
C 1488.31016226 -13.87100907 23.84059440     1    157   161   162   163
H 1489.56818871 -13.79888702 25.56286270     6    160    0    0    0
H 1486.50627881 -14.74350911 24.65482280     6    160    0    0    0
H 1487.81665183 -11.93698988 23.32424854     6    160    0    0    0
H 1511.68803578 -38.98330166 -2.05487286     6     165    0    0    0 
C 1511.31429342 -39.58717320 -0.05543145     1     164    166    167    168
H 1509.79764307 -40.89832917 -0.17409629     6     165    0    0    0
H 1513.07374676 -40.54103013 0.64797551     6     165    0    0    0
C 1510.51705361 -37.40703783 1.79151437     2     165    169    170    171
H 1511.77643627 -35.91999319 1.42875664     6     168    0    0    0
H 1508.56169836 -36.94662454 1.37703492     6     168    0    0    0
C 1510.68359669 -38.19527500 4.45820177     2     168    172   173   174
H 1509.85923969 -40.03751344 4.93702898     6     171    0    0    0
H 1512.64044727 -38.07882937 5.19639853     6     171    0    0    0
C 1509.13754976 -36.43435652 6.18832899     2     171   175   176   177
H 1508.93938266 -34.56338918 5.30807386     6    174    0    0    0
H 1507.20756449 -36.88582868 6.11501430     6    174    0    0    0
C 1510.22202841 -36.29828024 8.83267992     2    174   178   179   180
H 1509.89574256 -38.11436416 9.77097199     6    177    0    0    0
H 1512.25338580 -35.89372872 8.88604598     6    177    0    0    0
C 1509.45472020 -33.99022501 10.45235729     2    177   181   182   183
H 1507.48729328 -33.99244921 10.91604896     6    180    0    0    0
H 1510.31660188 -34.33352989 12.29511730     6    180    0    0    0
C 1510.11200179 -31.31540733 9.49145149     2    180   184   185   186
H 1512.11446381 -31.15185427 8.70747208     6    183    0    0    0
H 1508.71828902 -30.80429680 7.91365128     6    183    0    0    0
C 1509.81361123 -29.14421741 11.55220520     2    183   187   188   189
H 1508.24180983 -29.32315491 12.79626699     6    186    0    0    0
H 1511.45180133 -29.22414767 12.84316140     6    186    0    0    0
C 1509.77858257 -26.49017769 10.37440063     2    186   190   191   192
H 1511.42255290 -26.50679837 9.01856491     6    189    0    0    0
H 1508.11642909 -26.14484505 9.17229900     6    189    0    0    0
C 1510.31157641 -24.45139220 12.34790668     2    189   193   194   195
H 1508.83800893 -24.79216030 13.68690815     6    192    0    0    0
H 1512.17371958 -24.96043369 13.17045485     6    192    0    0    0
C 1510.47552450 -21.78306859 11.50372465     2    192   196   197   198
H 1512.01537005 -21.72487827 10.16519665     6    195    0    0    0
H 1508.84649486 -21.45597470 10.36558708     6    195    0    0    0
C 1510.41471585 -19.87423115 13.60543244     1    195   199   200   201
H 1509.88100038 -18.10673651 12.81452178     6    198    0    0    0
H 1512.25474468 -19.94023945 14.19973339     6    198    0    0    0
H 1509.05491213 -20.13656815 15.09488412     6    198    0    0    0
H 1501.08073689 -31.36057666 -8.97825878     6     203    0    0    0 
C 1499.82908051 -30.27823933 -10.00170151     1     202    204    205    206
H 1498.30424639 -31.40954282 -10.67579553     6     203    0    0    0
H 1499.12998431 -29.01115235 -8.57737423     6     203    0    0    0
C 1501.21059373 -29.09249337 -12.15623102     2     203    207    208    209
H 1499.96187407 -27.48590724 -12.67672313     6     206    0    0    0
H 1502.88887125 -28.37723347 -11.24671407     6     206    0    0    0
C 1501.99240518 -31.06301258 -14.12897527     2     206    210   211   212
H 1503.47792285 -32.20760613 -13.17276475     6     209    0    0    0
H 1500.62274772 -32.44513321 -14.81639749     6     209    0    0    0
C 1503.00790265 -29.61482035 -16.33035511     2     209   213   214   215
H 1504.74217082 -28.48372874 -16.11413474     6    212    0    0    0
H 1503.76121017 -31.12794172 -17.51568413     6    212    0    0    0
C 1501.14440338 -27.78899462 -17.70856126     2    212   216   217   218
H 1499.25490717 -28.68927923 -17.92691193     6    215    0    0    0
H 1500.91929215 -26.12449736 -16.55262835     6    215    0    0    0
C 1501.99312613 -27.10164133 -20.37807206     2    215   219   220   221
H 1503.95373858 -26.74817389 -20.51220398     6    218    0    0    0
H 1501.80721660 -28.62595826 -21.66280398     6    218    0    0    0
C 1500.48780807 -24.98924592 -21.51969066     2    218   222   223   224
H 1498.79001034 -25.80477669 -22.22354237     6    221    0    0    0
H 1499.82130266 -23.70334828 -19.92951183     6    221    0    0    0
C 1502.03618783 -23.51491392 -23.54202566     2    221   225   226   227
H 1503.80920424 -22.84255374 -22.74271699     6    224    0    0    0
H 1502.53351238 -24.92649319 -25.08524820     6    224    0    0    0
C 1500.51100245 -21.40322252 -24.62542846     2    224   228   229   230
H 1498.97818624 -22.20265576 -25.64370749     6    227    0    0    0
H 1499.75263336 -20.29957464 -23.10433972     6    227    0    0    0
C 1502.28642486 -19.69696054 -26.09967386     2    227   231   232   233
H 1503.82340349 -18.96810922 -24.91269632     6    230    0    0    0
H 1503.27483263 -20.71370085 -27.57005571     6    230    0    0    0
C 1500.89120327 -17.34954130 -27.29377571     2    230   234   235   236
H 1499.38433897 -18.28184878 -28.50694448     6    233    0    0    0
H 1499.98858232 -16.40176463 -25.65910922     6    233    0    0    0
C 1502.59571486 -15.44885942 -28.72166880     1    233   237   238   239
H 1501.68053316 -13.65890320 -29.16195073     6    236    0    0    0
H 1502.96667435 -15.98425515 -30.68218905     6    236    0    0    0
H 1504.34327364 -14.99717019 -27.70368195     6    236    0    0    0
H 1473.99268777 -39.01003840 -14.56333123     6     241    0    0    0 
C 1474.92716085 -39.84568148 -12.84362529     1     240    242    243    244
H 1476.51259697 -41.10928007 -13.59963605     6     241    0    0    0
H 1475.59812122 -38.30748123 -11.63800760     6     241    0    0    0
C 1473.15746550 -41.38949110 -11.23147258     2     241    245    246    247
H 1473.04351204 -43.27930487 -11.85784609     6     244    0    0    0
H 1474.17889207 -41.44832559 -9.33935659     6     244    0    0    0
C 1470.60232084 -40.12434167 -10.83829868     2     244    248   249   250
H 1469.52705280 -41.04375438 -9.33863917     6     247    0    0    0
H 1470.90906831 -38.22094851 -10.02459153     6     247    0    0    0
C 1469.07475836 -39.66432179 -13.18351000     2     247   251   252   253
H 1467.29787364 -38.72536708 -12.53450373     6    250    0    0    0
H 1469.96775954 -38.14229708 -14.35128578     6    250    0    0    0
C 1468.77837297 -42.17886375 -14.73759297     2    250   254   255   256
H 1470.67139046 -42.42754226 -15.35881607     6    253    0    0    0
H 1468.26080975 -43.91874701 -13.58454435     6    253    0    0    0
C 1466.89870851 -42.08583899 -16.93269448     2    253   257   258   259
H 1467.05865074 -43.83082925 -17.78901329     6    256    0    0    0
H 1464.92893303 -41.87226707 -16.38153721     6    256    0    0    0
C 1467.79812363 -40.05412095 -18.78753907     2    256   260   261   262
H 1467.35716016 -38.31143997 -17.73165498     6    259    0    0    0
H 1469.79669425 -40.28516988 -19.01561463     6    259    0    0    0
C 1466.36395932 -40.31897325 -21.38561559     2    259   263   264   265
H 1466.49904466 -42.24817685 -22.24794724     6    262    0    0    0
H 1464.33184923 -39.79143256 -21.13742826     6    262    0    0    0
C 1467.65533826 -38.42055990 -23.07337137     2    262   266   267   268
H 1467.84321958 -36.54149619 -22.09027997     6    265    0    0    0
H 1469.40910161 -39.32099462 -23.42749624     6    265    0    0    0
C 1466.28012834 -38.06631066 -25.68906561     2    265   269   270   271
H 1466.28640433 -39.79167828 -26.83020647     6    268    0    0    0
H 1464.33331103 -37.47684782 -25.45819029     6    268    0    0    0
C 1467.64420565 -36.05949944 -27.28983883     2    268   272   273   274
H 1467.30234375 -34.20758497 -26.42595930     6    271    0    0    0
H 1469.65228066 -36.27151584 -27.53228405     6    271    0    0    0
C 1466.59861488 -35.82222429 -29.90929943     1    271   275   276   277
H 1466.85848587 -37.57412489 -31.20276466     6    274    0    0    0
H 1467.61711378 -34.17623071 -30.60450057     6    274    0    0    0
H 1464.55995583 -35.34340681 -30.09701420     6    274    0    0    0
H 1490.70203028 -48.47573100 -12.60469839     6     279    0    0    0 
C 1491.46911015 -46.92888139 -11.52984914     1     278    280    281    282
H 1491.41484782 -47.47128512 -9.52347608     6     279    0    0    0
H 1493.49254611 -46.75168158 -11.67841893     6     279    0    0    0
C 1490.03145116 -44.46512613 -12.28069918     2     279    283    284    285
H 1488.10107744 -44.69778343 -11.46168229     6     282    0    0    0
H 1490.69692936 -42.95539594 -11.26832077     6     282    0    0    0
C 1490.12281258 -44.18631430 -15.21950893     2     282    286   287   288
H 1491.93667989 -44.48145884 -15.92685314     6     285    0    0    0
H 1488.82856031 -45.23799622 -16.53802797     6     285    0    0    0
C 1489.34013053 -41.52651549 -16.04331658     2     285   289   290   291
H 1487.50570407 -41.12740568 -15.19947522     6    288    0    0    0
H 1490.40673687 -40.12572317 -15.07015804     6    288    0    0    0
C 1489.66804412 -40.80440020 -18.83844725     2    288   292   293   294
H 1491.52990897 -40.51206888 -19.27577738     6    291    0    0    0
H 1489.00912463 -42.50566201 -20.04394552     6    291    0    0    0
C 1488.28767396 -38.32330971 -19.42787922     2    291   295   296   297
H 1486.70026527 -38.13931392 -18.22691706     6    294    0    0    0
H 1489.35096888 -36.77661534 -18.72917122     6    294    0    0    0
C 1487.66097068 -37.88556981 -22.18876013     2    294   298   299   300
H 1489.13676314 -38.73975687 -23.46941759     6    297    0    0    0
H 1485.79942150 -38.54796150 -22.61128180     6    297    0    0    0
C 1487.27851754 -34.99813353 -22.65702854     2    297   301   302   303
H 1485.82507694 -34.19192504 -21.35578738     6    300    0    0    0
H 1489.15115465 -34.10203165 -22.32831651     6    300    0    0    0
C 1486.54256363 -34.46774106 -25.45614022     2    300   304   305   306
H 1487.43630112 -35.79144553 -26.84311583     6    303    0    0    0
H 1484.54444511 -34.62625332 -25.84242167     6    303    0    0    0
C 1487.18125364 -31.73770104 -25.91722913     2    303   307   308   309
H 1486.19132741 -30.67654826 -24.37606232     6    306    0    0    0
H 1489.22090757 -31.55774060 -25.66844520     6    306    0    0    0
C 1486.19826387 -30.93067164 -28.64618131     2    306   310   311   312
H 1486.67620143 -32.31068654 -30.05211370     6    309    0    0    0
H 1484.21871397 -31.37430690 -28.70279381     6    309    0    0    0
C 1486.93601414 -28.18369821 -29.42364911     1    309   313   314   315
H 1488.79283900 -27.74842730 -28.44911652     6    312    0    0    0
H 1485.57739566 -26.93092904 -28.43383129     6    312    0    0    0
H 1487.10640539 -27.69005251 -31.35256767     6    312    0    0    0
H 1490.21883541 -42.80103449 6.77366071     6     317    0    0    0 
C 1491.18937529 -41.52264083 5.59710973     1     316    318    319    320
H 1492.80726779 -41.12595794 6.76996217     6     317    0    0    0
H 1491.45484319 -42.39213504 3.71956280     6     317    0    0    0
C 1489.48488950 -39.16751204 5.23206143     2     317    321    322    323
H 1490.47151272 -37.94478704 3.78786416     6     320    0    0    0
H 1487.61870143 -39.62924949 4.34634933     6     320    0    0    0
C 1489.14302227 -37.85130404 7.77505028     2     320    324   325   326
H 1488.33394884 -39.16227861 9.05385832     6     323    0    0    0
H 1491.02456186 -37.71813487 8.57296832     6     323    0    0    0
C 1487.45254884 -35.45984993 7.71298397     2     323   327   328   329
H 1488.28635843 -34.17811228 6.20476532     6    326    0    0    0
H 1485.66822527 -35.98657229 7.17374645     6    326    0    0    0
C 1487.10848705 -34.17357613 10.29023797     2    326   330   331   332
H 1485.98700086 -35.22687901 11.52863150     6    329    0    0    0
H 1488.71810883 -33.69498622 11.38114563     6    329    0    0    0
C 1485.82064129 -31.57642091 9.96041482     2    329   333   334   335
H 1486.80351267 -30.36167227 8.59924470     6    332    0    0    0
H 1483.94241573 -31.87503379 9.00730383     6    332    0    0    0
C 1485.65228481 -29.93089932 12.47754628     2    332   336   337   338
H 1485.11724137 -31.22751737 14.05376948     6    335    0    0    0
H 1487.45915290 -29.22612849 13.15121610     6    335    0    0    0
C 1483.57171869 -27.94798850 12.12913860     2    335   339   340   341
H 1484.15070231 -26.83029643 10.51327206     6    338    0    0    0
H 1481.87362496 -29.03107301 11.70760045     6    338    0    0    0
C 1482.91518809 -26.38058023 14.50455980     2    338   342   343   344
H 1482.67781938 -27.49018536 16.33442472     6    341    0    0    0
H 1484.44600183 -25.08711189 14.79002367     6    341    0    0    0
C 1480.45400295 -24.81548031 14.58061956     2    341   345   346   347
H 1480.43097948 -23.20010317 15.94674609     6    344    0    0    0
H 1480.58073652 -23.90166801 12.85225109     6    344    0    0    0
C 1478.20287942 -26.60436650 14.70104719     2    344   348   349   350
H 1478.01688511 -27.67600945 12.96560173     6    347    0    0    0
H 1478.63487092 -27.97546829 16.24269880     6    347    0    0    0
C 1475.64143577 -25.35499657 15.29731585     1    347   351   352   353
H 1474.22819635 -26.85296104 15.47671948     6    350    0    0    0
H 1475.17263011 -24.07256503 13.86715547     6    350    0    0    0
H 1476.02864417 -24.36882623 17.01996832     6    350    0    0    0
H 1479.18418254 -40.39204371 -9.84321123     6     355    0    0    0 
C 1480.44525894 -40.05619023 -8.23460119     1     354    356    357    358
H 1480.21030674 -38.19904917 -7.40036638     6     355    0    0    0
H 1479.78762183 -41.30672926 -6.69682563     6     355    0    0    0
C 1483.13648289 -40.46403746 -8.86230206     2     355    359    360    361
H 1483.46304829 -42.28644036 -9.65222594     6     358    0    0    0
H 1483.88010848 -39.42037294 -10.36726708     6     358    0    0    0
C 1484.76597009 -40.19157049 -6.39237284     2     358    362   363   364
H 1484.43893885 -38.38473646 -5.52368652     6     361    0    0    0
H 1484.12511073 -41.42473146 -4.81797652     6     361    0    0    0
C 1487.57212835 -40.80643362 -6.70496647     2     361   365   366   367
H 1487.96580064 -42.78794616 -7.15668495     6    364    0    0    0
H 1488.41917242 -39.82060915 -8.25490824     6    364    0    0    0
C 1488.87708432 -40.09951532 -4.10569855     2    364   368   369   370
H 1488.69193464 -38.03069152 -3.56501060     6    367    0    0    0
H 1487.97335531 -41.24277076 -2.60451230     6    367    0    0    0
C 1491.73064461 -40.61542262 -4.29405760     2    367   371   372   373
H 1491.98875938 -42.47983405 -4.74641465     6    370    0    0    0
H 1492.51485369 -39.35092414 -5.76820580     6    370    0    0    0
C 1493.15552884 -40.15726804 -1.81612135     2    370   374   375   376
H 1493.30012845 -38.06276544 -1.51383306     6    373    0    0    0
H 1492.03626943 -41.29545316 -0.35918471     6    373    0    0    0
C 1495.96423629 -41.05802373 -1.88465786     2    373   377   378   379
H 1495.92626495 -42.93256748 -2.54610230     6    376    0    0    0
H 1497.29787127 -40.15241883 -3.28615024     6    376    0    0    0
C 1497.07805563 -41.14317824 0.75573775     2    376   380   381   382
H 1496.17847074 -42.81848802 1.74506511     6    379    0    0    0
H 1498.96434850 -41.81373819 0.42788069     6    379    0    0    0
C 1497.41728153 -38.62820317 2.02336605     2    379   383   384   385
H 1498.78613575 -37.54630529 0.83596909     6    382    0    0    0
H 1495.77736244 -37.36966389 2.02746001     6    382    0    0    0
C 1498.49839448 -38.53213857 4.61384709     2    382   386   387   388
H 1497.89398431 -36.80105785 5.42062058     6    385    0    0    0
H 1497.25855512 -39.87608378 5.58569285     6    385    0    0    0
C 1501.24538138 -39.03248133 4.89378442     1    385   389   390   391
H 1502.36117051 -37.96541845 3.73769677     6    388    0    0    0
H 1501.49896219 -40.86273559 4.03348836     6    388    0    0    0
H 1501.85801863 -38.97145101 6.90883081     6    388    0    0    0
H 1468.36389944 -3.25105633 15.09654756     6     393    0    0    0 
C 1466.80762487 -2.86687807 13.68131856     1     392    394    395    396
H 1465.15295212 -2.38565896 14.84447863     6     393    0    0    0
H 1467.52953037 -1.17505393 12.64415489     6     393    0    0    0
C 1466.17686558 -5.32495648 12.19525270     2     393    397    398    399
H 1467.93832019 -5.79899542 11.02506358     6     396    0    0    0
H 1465.88037842 -6.99251828 13.50869480     6     396    0    0    0
C 1463.78205790 -5.07304966 10.69288894     2     396    400   401   402
H 1462.27504350 -4.38275336 11.89914470     6     399    0    0    0
H 1464.21355871 -3.66760052 9.22291060     6     399    0    0    0
C 1463.06741505 -7.42507891 9.23086946     2     399   403   404   405
H 1464.81583331 -8.00787388 8.33790908     6    402    0    0    0
H 1462.93073318 -8.91880848 10.51876562     6    402    0    0    0
C 1460.81572893 -7.27597151 7.39246921     2    402   406   407   408
H 1459.12987882 -6.80301942 8.34813561     6    405    0    0    0
H 1461.15389518 -5.47330223 6.30744178     6    405    0    0    0
C 1460.57745998 -9.71837270 5.76066635     2    405   409   410   411
H 1462.29596606 -10.26397948 4.75159234     6    408    0    0    0
H 1459.91895692 -11.43287144 6.79298865     6    408    0    0    0
C 1458.67271005 -9.46480281 3.67621144     2    408   412   413   414
H 1457.14210085 -8.47864205 4.41964587     6    411    0    0    0
H 1459.25016964 -8.12320165 2.22028397     6    411    0    0    0
C 1457.75486987 -11.95833618 2.54947392     2    411   415   416   417
H 1459.51048276 -12.95440975 2.36699095     6    414    0    0    0
H 1456.46993588 -12.94068372 3.82139419     6    414    0    0    0
C 1456.30332019 -11.32979677 0.04957429     2    414   418   419   420
H 1455.01628341 -9.65522713 0.45134282     6    417    0    0    0
H 1457.72810562 -10.72336318 -1.14206821     6    417    0    0    0
C 1454.91187044 -13.54785096 -1.13921486     2    417   421   422   423
H 1456.34690811 -14.88148209 -1.74807225     6    420    0    0    0
H 1453.79895029 -14.74649068 0.12691996     6    420    0    0    0
C 1453.02018582 -12.99233416 -3.21119420     2    420   424   425   426
H 1452.59248465 -14.85614945 -3.92720438     6    423    0    0    0
H 1451.26860572 -12.27946542 -2.53354074     6    423    0    0    0
C 1454.08643914 -11.21626481 -5.39363632     1    423   427   428   429
H 1452.66325111 -11.26733746 -6.91678970     6    426    0    0    0
H 1455.97696094 -11.68430515 -6.15760271     6    426    0    0    0
H 1454.21976884 -9.26774859 -4.54234642     6    426    0    0    0
H 1455.68579499 -31.91345788 -0.69808045     6     431    0    0    0 
C 1456.16324786 -32.32116360 1.32056582     1     430    432    433    434
H 1454.45845402 -33.26627473 1.93627440     6     431    0    0    0
H 1457.69982573 -33.62679035 1.31086022     6     431    0    0    0
C 1456.56883406 -29.93350350 2.89010519     2     431    435    436    437
H 1457.93869467 -28.70943624 1.94708492     6     434    0    0    0
H 1454.78689706 -28.92959065 2.97009533     6     434    0    0    0
C 1457.34096454 -30.27753251 5.61611238     2     434    438   439   440
H 1455.80983297 -31.26980305 6.70959825     6     437    0    0    0
H 1459.21073118 -31.19240364 5.71531777     6     437    0    0    0
C 1458.01355377 -27.79769477 6.99518580     2     437   441   442   443
H 1458.95190064 -28.31765303 8.67606388     6    440    0    0    0
H 1459.33286256 -26.64621441 5.95154686     6    440    0    0    0
C 1455.61051289 -26.23375893 7.51940673     2    440   444   445   446
H 1454.80651015 -25.52047555 5.68001646     6    443    0    0    0
H 1454.27358175 -27.44878424 8.42259710     6    443    0    0    0
C 1456.30111043 -23.90099300 9.10648917     2    443   447   448   449
H 1456.90487065 -24.53661407 10.98410549     6    446    0    0    0
H 1457.67740736 -22.75392319 8.17567666     6    446    0    0    0
C 1453.90916639 -22.38107172 9.61300752     2    446   450   451   452
H 1452.66176012 -22.26450323 8.06822950     6    449    0    0    0
H 1453.03189953 -23.17256740 11.26971722     6    449    0    0    0
C 1454.67785995 -19.63473036 10.12503698     2    449   453   454   455
H 1456.13976281 -19.81698825 11.53492718     6    452    0    0    0
H 1455.57520909 -18.87209573 8.43136920     6    452    0    0    0
C 1452.55137394 -17.83515079 10.94422305     2    452   456   457   458
H 1450.93467568 -17.99205482 9.68511116     6    455    0    0    0
H 1451.85628863 -18.54212157 12.66373038     6    455    0    0    0
C 1453.42409923 -15.08309184 11.22777826     2    455   459   460   461
H 1451.99928778 -14.15267959 12.39235614     6    458    0    0    0
H 1455.12333675 -15.19574649 12.52990183     6    458    0    0    0
C 1454.15546198 -13.56989664 8.81543244     2    458   462   463   464
H 1455.81089315 -14.48863562 7.95524796     6    461    0    0    0
H 1452.75676611 -13.78960733 7.32140053     6    461    0    0    0
C 1454.37402984 -10.66509930 9.37610897     1    461   465   466   467
H 1455.82898839 -10.18885643 10.89037693     6    464    0    0    0
H 1452.72348339 -9.90577569 10.34832545     6    464    0    0    0
H 1454.76769750 -9.53350199 7.66492678     6    464    0    0    0
H 1496.49214883 -47.86179326 6.07800323     6     469    0    0    0 
C 1497.24974010 -48.34725232 4.29892585     1     468    470    471    472
H 1498.22620745 -46.90753656 3.42487524     6     469    0    0    0
H 1498.53066298 -49.88007978 4.71197708     6     469    0    0    0
C 1495.28342575 -49.51744437 2.38883381     2     469    473    474    475
H 1496.22158616 -49.59656327 0.56462933     6     472    0    0    0
H 1494.87870270 -51.50388496 2.87246947     6     472    0    0    0
C 1493.00713533 -47.87415098 2.06876932     2     472    476   477   478
H 1492.26716356 -47.04005781 3.85989210     6     475    0    0    0
H 1493.72039689 -46.43235390 0.86042243     6     475    0    0    0
C 1491.11124927 -49.29541341 0.29232193     2     475   479   480   481
H 1492.07164977 -50.03642550 -1.38036841     6    478    0    0    0
H 1490.50917084 -50.99983445 1.14422640     6    478    0    0    0
C 1488.62417103 -47.82689956 -0.09057855     2    478   482   483   484
H 1487.20900391 -47.79888452 1.39644082     6    481    0    0    0
H 1488.99915122 -45.88334625 -0.25514804     6    481    0    0    0
C 1487.42989559 -48.93993459 -2.46987095     2    481   485   486   487
H 1488.62690616 -48.46581621 -4.09341336     6    484    0    0    0
H 1487.35024285 -51.12634132 -2.45216085     6    484    0    0    0
C 1484.74269826 -48.01221014 -3.07317851     2    484   488   489   490
H 1483.46724692 -49.13424364 -2.07154054     6    487    0    0    0
H 1484.54504464 -46.06979862 -2.56655450     6    487    0    0    0
C 1484.30267976 -48.18043082 -5.93644755     2    487   491   492   493
H 1485.70108230 -47.12370596 -6.93901014     6    490    0    0    0
H 1484.74244485 -50.20358180 -6.42825598     6    490    0    0    0
C 1481.61295122 -47.62267754 -6.82576284     2    490   494   495   496
H 1480.26436199 -49.02755448 -5.93300573     6    493    0    0    0
H 1481.10796703 -45.59399215 -6.36949365     6    493    0    0    0
C 1481.27972993 -48.20624471 -9.63191942     2    493   497   498   499
H 1482.38307164 -46.83173993 -10.56428466     6    496    0    0    0
H 1482.16891092 -50.13748537 -10.08197348     6    496    0    0    0
C 1478.65376453 -47.87815537 -10.73925548     2    496   500   501   502
H 1477.68172810 -49.71536829 -10.36095918     6    499    0    0    0
H 1477.68823829 -46.31988424 -9.96687678     6    499    0    0    0
C 1478.75001403 -47.19952155 -13.48446897     1    499   503   504   505
H 1476.83279172 -46.96527260 -14.27145980     6    502    0    0    0
H 1479.97145600 -48.53998807 -14.42905588     6    502    0    0    0
H 1479.72400763 -45.34714515 -13.73352033     6    502    0    0    0
H 1459.82267931 -40.01427688 -15.84743326     6     507    0    0    0 
C 1458.37846591 -38.62869896 -15.41995546     1     506    508    509    510
H 1457.37856341 -38.06037458 -17.21203792     6     507    0    0    0
H 1456.84895193 -39.42250486 -14.35688116     6     507    0    0    0
C 1459.89493480 -36.48485116 -14.08394128     2     507    511    512    513
H 1460.82496137 -37.50392582 -12.73089119     6     510    0    0    0
H 1461.14507088 -35.60168775 -15.45229176     6     510    0    0    0
C 1458.22948832 -34.41631829 -12.99610041     2     510    514   515   516
H 1457.33155343 -33.25447526 -14.32746263     6     513    0    0    0
H 1456.71588504 -35.41531251 -11.98094789     6     513    0    0    0
C 1459.41662086 -32.74869033 -10.91700460     2     513   517   518   519
H 1460.46119129 -33.91968848 -9.59533565     6    516    0    0    0
H 1460.79385418 -31.42073365 -11.87911926     6    516    0    0    0
C 1457.55162467 -31.04223413 -9.52681700     2    516   520   521   522
H 1456.35418855 -29.97875978 -10.91752398     6    519    0    0    0
H 1456.33729552 -32.22658170 -8.30473371     6    519    0    0    0
C 1458.69508882 -29.10952800 -7.79126920     2    519   523   524   525
H 1459.84814733 -30.04003398 -6.41959413     6    522    0    0    0
H 1459.53840287 -27.49890032 -8.63813603     6    522    0    0    0
C 1456.66612552 -27.95508677 -6.01311913     2    522   526   527   528
H 1455.32789831 -27.13936046 -7.09072540     6    525    0    0    0
H 1455.83298359 -29.59736003 -5.04775401     6    525    0    0    0
C 1457.70820644 -26.15325974 -3.93247139     2    525   529   530   531
H 1458.96223818 -27.27409015 -2.70832682     6    528    0    0    0
H 1458.62239788 -24.53218735 -4.79198679     6    528    0    0    0
C 1455.56971756 -25.25384947 -2.12028007     2    528   532   533   534
H 1454.17755161 -24.20425736 -3.29844270     6    531    0    0    0
H 1454.45660632 -26.70912381 -1.15000893     6    531    0    0    0
C 1456.71702372 -23.31177126 -0.22690559     2    531   535   536   537
H 1458.12694556 -24.17941782 0.86780583     6    534    0    0    0
H 1457.78606963 -21.92788898 -1.31436120     6    534    0    0    0
C 1454.58236210 -22.06177158 1.24381219     2    534   538   539   540
H 1453.35923205 -21.19058553 -0.15317106     6    537    0    0    0
H 1453.27606233 -23.31229316 2.29711834     6    537    0    0    0
C 1455.37915183 -20.14651994 3.27756303     1    537   541   542   543
H 1453.73753515 -19.21829198 4.15420304     6    540    0    0    0
H 1456.43386673 -18.45046766 2.63034605     6    540    0    0    0
H 1456.14799153 -21.10098566 4.81988739     6    540    0    0    0
H 1470.43975102 -20.97220066 13.01865634     6     545    0    0    0 
C 1471.07828311 -19.18738764 12.53529086     1     544    546    547    548
H 1470.94180219 -18.70975490 10.58617185     6     545    0    0    0
H 1469.95584543 -17.80359636 13.55732289     6     545    0    0    0
C 1473.84075008 -18.73364336 12.82727240     2     545    549    550    551
H 1474.22603396 -19.01023145 14.84632430     6     548    0    0    0
H 1474.78290120 -20.29840397 11.87618372     6     548    0    0    0
C 1474.88134266 -16.21516886 12.00120224     2     548    552   553   554
H 1474.63295768 -16.18904524 9.87757583     6     551    0    0    0
H 1473.71595913 -14.52306760 12.71787234     6     551    0    0    0
C 1477.70323567 -16.05037295 12.61865834     2     551   555   556   557
H 1477.88655353 -15.74106798 14.62010522     6    554    0    0    0
H 1478.68237672 -17.75210534 12.22014673     6    554    0    0    0
C 1479.00760852 -13.97244190 11.36728677     2    554   558   559   560
H 1479.02635490 -14.53284404 9.35889623     6    557    0    0    0
H 1477.98885633 -12.18978671 11.73871940     6    557    0    0    0
C 1481.68568539 -13.88943339 12.49360308     2    557   561   562   563
H 1481.63604916 -13.40310432 14.44870699     6    560    0    0    0
H 1482.69198114 -15.66321983 12.28914466     6    560    0    0    0
C 1483.19656239 -11.92616395 10.89457913     2    560   564   565   566
H 1483.20866796 -12.42165706 8.99252868     6    563    0    0    0
H 1482.51890443 -10.00918411 11.00030968     6    563    0    0    0
C 1485.84273572 -11.96319323 12.03789880     2    563   567   568   569
H 1485.90770326 -12.29615330 14.08631595     6    566    0    0    0
H 1486.89388067 -13.55455929 11.15619398     6    566    0    0    0
C 1487.64687488 -9.81321931 11.14382789     2    566   570   571   572
H 1487.23317207 -9.67331882 9.08928615     6    569    0    0    0
H 1486.92233400 -8.12864089 11.98584612     6    569    0    0    0
C 1490.37390660 -10.06396503 11.82503964     2    569   573   574   575
H 1490.43475993 -10.22649281 13.92395982     6    572    0    0    0
H 1490.91723328 -11.94194287 11.05595193     6    572    0    0    0
C 1491.82158292 -7.77770034 10.72769316     2    572   576   577   578
H 1490.27210950 -6.32191697 10.40277565     6    575    0    0    0
H 1493.23693974 -7.23701264 12.13729634     6    575    0    0    0
C 1493.03479926 -8.20068782 8.18131235     1    575   579   580   581
H 1491.71266600 -9.23896359 7.03631317     6    578    0    0    0
H 1494.69313717 -9.48597242 8.25784876     6    578    0    0    0
H 1493.72548283 -6.45824449 7.42574222     6    578    0    0    0
H 1504.07050600 -38.46391386 -8.73928160     6     583    0    0    0 
C 1502.97521903 -37.11386476 -7.65498991     1     582    584    585    586
H 1502.87439752 -35.45746567 -8.88409597     6     583    0    0    0
H 1501.16972434 -38.03324056 -7.39703988     6     583    0    0    0
C 1504.40230627 -36.55192513 -5.14693593     2     583    587    588    589
H 1504.81982744 -38.30519933 -4.04859602     6     586    0    0    0
H 1506.38003042 -36.00853477 -5.47218394     6     586    0    0    0
C 1503.33332801 -34.27311587 -3.70105827     2     586    590   591   592
H 1503.35623638 -32.66216040 -4.93084528     6     589    0    0    0
H 1501.33975569 -34.79078908 -3.27468917     6     589    0    0    0
C 1504.66422398 -33.90380547 -1.02988636     2     589   593   594   595
H 1504.76123605 -35.65261484 -0.04553788     6    592    0    0    0
H 1506.50031096 -33.23278838 -1.17862340     6    592    0    0    0
C 1502.92859174 -32.18366445 0.46657655     2    592   596   597   598
H 1502.58391554 -30.50655524 -0.69374826     6    595    0    0    0
H 1501.02972530 -33.08274825 0.92603091     6    595    0    0    0
C 1504.15077168 -31.46936707 2.89574997     2    595   599   600   601
H 1504.44221154 -33.14046408 4.11607565     6    598    0    0    0
H 1506.11030442 -30.70741358 2.56953242     6    598    0    0    0
C 1502.35913993 -29.81640509 4.49871789     2    598   602   603   604
H 1502.56933015 -27.91821028 3.73654875     6    601    0    0    0
H 1500.52312155 -30.40069784 4.27278637     6    601    0    0    0
C 1503.36776966 -29.39945266 7.17531932     2    601   605   606   607
H 1502.98374632 -31.03145021 8.28563736     6    604    0    0    0
H 1505.39441083 -29.37504943 6.95180081     6    604    0    0    0
C 1502.36536073 -26.87888026 8.24011550     2    604   608   609   610
H 1503.35967122 -25.26455838 7.47691731     6    607    0    0    0
H 1500.29461452 -26.43487648 7.81510697     6    607    0    0    0
C 1502.54791622 -26.74712214 11.23246658     2    607   611   612   613
H 1502.04135855 -28.52608675 12.34449953     6    610    0    0    0
H 1504.53357195 -26.52054247 11.66304349     6    610    0    0    0
C 1501.26657568 -24.39960220 12.19492919     2    610   614   615   616
H 1502.04393216 -22.79440965 11.21065336     6    613    0    0    0
H 1499.33934624 -24.67231446 11.64358133     6    613    0    0    0
C 1501.61219028 -23.55527569 14.97594351     1    613   617   618   619
H 1500.16216894 -22.05314658 15.16527761     6    616    0    0    0
H 1503.55423383 -22.96890469 15.50052611     6    616    0    0    0
H 1501.17228204 -25.13649755 16.20278648     6    616    0    0    0
H 1475.02125527 -8.19661719 -12.79497668     6     621    0    0    0 
C 1475.15935105 -7.78722008 -10.79165117     1     620    622    623    624
H 1473.41753183 -6.86676890 -10.30106929     6     621    0    0    0
H 1475.26431866 -9.53922038 -9.66029202     6     621    0    0    0
C 1477.26473721 -5.85695861 -10.60825359     2     621    625    626    627
H 1477.74313479 -5.39756048 -8.51788002     6     624    0    0    0
H 1479.00073806 -6.64549860 -11.24237318     6     624    0    0    0
C 1476.89365049 -3.50979537 -12.18483788     2     624    628   629   630
H 1477.03073775 -3.97596241 -14.21497117     6     627    0    0    0
H 1474.94981628 -2.89303610 -11.89739309     6     627    0    0    0
C 1478.77480443 -1.45485290 -11.69748783     2     627   631   632   633
H 1477.64904181 0.21379121 -12.02928092     6    630    0    0    0
H 1479.55854884 -1.53810609 -9.88084505     6    630    0    0    0
C 1481.10363252 -1.33633426 -13.53536986     2    630   634   635   636
H 1480.42859574 -0.56965093 -15.18593700     6    633    0    0    0
H 1482.29482091 0.04813652 -12.64553312     6    633    0    0    0
C 1482.30293604 -3.92627609 -14.09995484     2    633   637   638   639
H 1482.68290060 -4.84541582 -12.27902662     6    636    0    0    0
H 1480.75657819 -5.16576524 -14.73699650     6    636    0    0    0
C 1484.53306440 -3.78009333 -15.98185483     2    636   640   641   642
H 1483.87657756 -2.88461378 -17.69939551     6    639    0    0    0
H 1486.10205748 -2.64452771 -15.32334801     6    639    0    0    0
C 1485.22459347 -6.48116993 -16.50859885     2    639   643   644   645
H 1485.90864339 -7.42961591 -14.79413552     6    642    0    0    0
H 1483.49343627 -7.53882926 -17.18705499     6    642    0    0    0
C 1487.23445331 -6.76605554 -18.52357041     2    642   646   647   648
H 1487.14217008 -8.62744176 -19.09127975     6    645    0    0    0
H 1486.70563568 -5.80259911 -20.23708512     6    645    0    0    0
C 1489.89920140 -6.15854245 -17.74434505     2    645   649   650   651
H 1490.14408647 -4.37458704 -16.98165326     6    648    0    0    0
H 1490.17059641 -7.52309242 -16.15020648     6    648    0    0    0
C 1491.75672125 -6.75549857 -19.89840247     2    648   652   653   654
H 1491.03084384 -8.02975492 -21.11454750     6    651    0    0    0
H 1492.06852611 -4.97010386 -20.84172647     6    651    0    0    0
C 1494.21033411 -7.63542739 -18.83149396     1    651   655   656   657
H 1494.85015150 -6.26990142 -17.41921223     6    654    0    0    0
H 1495.21868447 -7.66288672 -20.57302866     6    654    0    0    0
H 1493.71297816 -9.40032209 -18.03326071     6    654    0    0    0
H 1492.76374022 -25.86250497 -7.40299783     6     659    0    0    0 
C 1493.47940324 -24.57062561 -6.00760159     1     658    660    661    662
H 1493.47578126 -22.79445371 -6.61503295     6     659    0    0    0
H 1492.29312922 -24.64688360 -4.43779959     6     659    0    0    0
C 1496.08455195 -25.29542156 -5.04552606     2     659    663    664    665
H 1496.05242081 -27.17373271 -4.12961109     6     662    0    0    0
H 1497.28825597 -25.41683350 -6.62659239     6     662    0    0    0
C 1497.28746251 -23.46260570 -3.03034204     2     662    666   667   668
H 1499.34537694 -23.96043630 -2.71929264     6     665    0    0    0
H 1497.19628950 -21.57250526 -3.50132742     6     665    0    0    0
C 1496.09238962 -23.49806540 -0.24797534     2     665   669   670   671
H 1494.08727566 -23.09842886 -0.52721300     6    668    0    0    0
H 1495.98422045 -25.35185765 0.82462291     6    668    0    0    0
C 1497.20838379 -21.49844465 1.69487016     2    668   672   673   674
H 1499.00564027 -22.53491689 2.10706235     6    671    0    0    0
H 1497.88251479 -19.65797777 0.85071433     6    671    0    0    0
C 1495.50172496 -20.83557109 3.97712238     2    671   675   676   677
H 1493.96140151 -19.86022534 3.18805132     6    674    0    0    0
H 1494.70192126 -22.55602118 4.69220809     6    674    0    0    0
C 1496.91426701 -19.52416855 6.17829499     2    674   678   679   680
H 1496.30104448 -20.32487698 7.98159935     6    677    0    0    0
H 1498.88512026 -20.12340807 6.02149190     6    677    0    0    0
C 1496.52429627 -16.58455386 6.18634564     2    677   681   682   683
H 1497.32324896 -15.87234222 4.52202268     6    680    0    0    0
H 1494.53212801 -16.27191651 5.78378624     6    680    0    0    0
C 1497.71122798 -15.24538880 8.39502507     2    680   684   685   686
H 1499.40705150 -16.11326401 8.62596367     6    683    0    0    0
H 1498.02618892 -13.27377734 7.83535300     6    683    0    0    0
C 1496.17610279 -15.34754468 10.72727376     2    683   687   688   689
H 1494.44865975 -14.43666344 10.11463208     6    686    0    0    0
H 1495.90625313 -17.20904407 11.39566522     6    686    0    0    0
C 1497.56086386 -13.79160213 12.91638485     2    686   690   691   692
H 1499.26116430 -15.01791255 13.35745588     6    689    0    0    0
H 1498.40004607 -12.05859696 12.22576427     6    689    0    0    0
C 1495.87144784 -13.38147495 15.20645954     1    689   693   694   695
H 1496.75900381 -12.56712906 16.97347896     6    692    0    0    0
H 1495.02931070 -15.08569214 15.84006443     6    692    0    0    0
H 1494.35631005 -12.07726899 14.77176016     6    692    0    0    0
H 1478.72324542 7.21817062 23.38858809     6     697    0    0    0 
C 1479.73926503 5.82600152 24.56844338     1     696    698    699    700
H 1481.20645351 5.20808754 23.34012938     6     697    0    0    0
H 1480.44330639 6.99629925 26.23548142     6     697    0    0    0
C 1477.89300440 3.78978043 25.16257327     2     697    701    702    703
H 1478.76615229 2.35346609 26.28909335     6     700    0    0    0
H 1476.58517794 4.60768135 26.51104318     6     700    0    0    0
C 1476.74751352 2.31530979 22.85655302     2     700    704   705   706
H 1475.86925257 3.63736877 21.54695922     6     703    0    0    0
H 1478.42197134 1.63530845 21.79205101     6     703    0    0    0
C 1475.13710651 0.09687844 23.64769390     2     703   707   708   709
H 1476.27244578 -1.28131876 24.56645329     6    706    0    0    0
H 1473.82626633 0.87453950 24.92821814     6    706    0    0    0
C 1473.58659354 -1.04917408 21.59478400     2    706   710   711   712
H 1472.44231053 0.57772915 20.63996289     6    709    0    0    0
H 1474.78529883 -1.66592686 20.08813008     6    709    0    0    0
C 1471.97159308 -3.26774556 22.48188040     2    709   713   714   715
H 1473.05446565 -4.65433975 23.51406088     6    712    0    0    0
H 1470.68461589 -2.48303824 23.84649947     6    712    0    0    0
C 1470.62152962 -4.55806277 20.18103546     2    712   716   717   718
H 1469.44314321 -3.04543320 19.41477807     6    715    0    0    0
H 1471.88298841 -5.13483482 18.67330173     6    715    0    0    0
C 1468.96903895 -6.74665864 20.98552251     2    715   719   720   721
H 1469.90634779 -8.38590459 21.82101562     6    718    0    0    0
H 1467.81464305 -5.70031079 22.37654532     6    718    0    0    0
C 1467.15755589 -7.85408574 19.08123101     2    718   722   723   724
H 1465.89646603 -6.41976339 18.28036326     6    721    0    0    0
H 1468.03210738 -8.74059207 17.36453703     6    721    0    0    0
C 1465.20440675 -9.62118012 20.34402069     2    721   725   726   727
H 1466.06988927 -11.19814140 21.44752003     6    724    0    0    0
H 1464.01611210 -8.55273242 21.68282228     6    724    0    0    0
C 1463.42647950 -10.71838344 18.37484123     2    724   728   729   730
H 1464.40363499 -11.58868909 16.80616077     6    727    0    0    0
H 1462.33351485 -12.18568404 19.24692429     6    727    0    0    0
C 1461.47706801 -8.86326444 17.19222205     1    727   731   732   733
H 1460.31255824 -9.67694752 15.83370577     6    730    0    0    0
H 1462.35274635 -7.38720073 16.32711828     6    730    0    0    0
H 1460.17445030 -8.22817822 18.72707222     6    730    0    0    0
H 1480.75404446 -41.25397346 18.01736257     6     735    0    0    0 
C 1482.59960868 -40.36262267 17.93320035     1     734    736    737    738
H 1482.77895512 -38.94723130 19.42699662     6     735    0    0    0
H 1483.70976007 -42.08563733 18.24801238     6     735    0    0    0
C 1483.24764212 -38.73271350 15.63490773     2     735    739    740    741
H 1482.52628149 -36.90729394 15.61472362     6     738    0    0    0
H 1485.27365105 -38.32181361 15.64826141     6     738    0    0    0
C 1482.37275484 -39.86777342 13.05129115     2     738    742   743   744
H 1480.30737283 -40.17546492 13.29710044     6     741    0    0    0
H 1482.51981138 -38.50396174 11.52149493     6     741    0    0    0
C 1483.90958998 -42.21657499 12.35301512     2     741   745   746   747
H 1485.80706520 -42.24957795 13.13720839     6    744    0    0    0
H 1482.90397024 -43.69037851 13.18465134     6    744    0    0    0
C 1483.99862861 -42.87780287 9.60009971     2    744   748   749   750
H 1484.63178488 -41.20332052 8.73472655     6    747    0    0    0
H 1485.52390467 -44.31018431 9.40512339     6    747    0    0    0
C 1481.56273063 -44.06800457 8.64410648     2    747   751   752   753
H 1481.37570350 -45.93253602 9.52557219     6    750    0    0    0
H 1480.05316818 -42.93978330 9.24823613     6    750    0    0    0
C 1481.57260819 -44.52233230 5.78805912     2    750   754   755   756
H 1482.69525902 -43.14382873 4.72342421     6    753    0    0    0
H 1482.46608438 -46.36423850 5.37669841     6    753    0    0    0
C 1479.00002442 -44.70662661 4.60327671     2    753   757   758   759
H 1477.85262626 -46.18763303 5.30412387     6    756    0    0    0
H 1477.85660996 -43.07842300 5.10112514     6    756    0    0    0
C 1479.10254817 -45.09215780 1.65693287     2    756   760   761   762
H 1480.42687723 -43.79875681 0.81925100     6    759    0    0    0
H 1479.46659029 -47.06265805 1.36065025     6    759    0    0    0
C 1476.54619287 -44.66845751 0.35825698     2    759   763   764   765
H 1474.81686286 -45.40565121 1.35550743     6    762    0    0    0
H 1476.05519152 -42.67003500 0.20608536     6    762    0    0    0
C 1476.56013555 -45.51712947 -2.28027814     2    762   766   767   768
H 1476.91140790 -43.83094766 -3.35937253     6    765    0    0    0
H 1478.11333393 -46.91562449 -2.63194159     6    765    0    0    0
C 1474.05010754 -46.89598577 -3.16188674     1    765   769   770   771
H 1473.60490725 -48.64202718 -2.20189365     6    768    0    0    0
H 1474.06493149 -47.19613412 -5.20202792     6    768    0    0    0
H 1472.39281846 -45.67857366 -2.97479351     6    768    0    0    0
H 1480.51272106 -9.33183231 -21.09145311     6     773    0    0    0 
C 1480.01351038 -7.82185294 -22.32035636     1     772    774    775    776
H 1481.13304603 -6.16034423 -21.67324712     6     773    0    0    0
H 1480.97221311 -8.38852713 -24.02793515     6     773    0    0    0
C 1477.18732176 -7.40169206 -22.35160395     2     773    777    778    779
H 1476.81537309 -5.86013467 -23.65681488     6     776    0    0    0
H 1476.34541488 -9.03565814 -23.19075688     6     776    0    0    0
C 1475.93811584 -7.00372024 -19.77303731     2     776    780   781   782
H 1476.26221141 -8.62989361 -18.66126787     6     779    0    0    0
H 1476.87121664 -5.50807319 -18.84717303     6     779    0    0    0
C 1473.16025046 -6.37193332 -20.15069060     2     779   783   784   785
H 1472.87740029 -4.74341058 -21.26496200     6    782    0    0    0
H 1471.91657060 -7.81671244 -21.04809288     6    782    0    0    0
C 1471.92993336 -5.75653919 -17.58182481     2    782   786   787   788
H 1472.52511649 -7.14180991 -16.23933886     6    785    0    0    0
H 1472.53716774 -3.91026347 -16.73047124     6    785    0    0    0
C 1469.02123233 -5.87628466 -17.65491673     2    785   789   790   791
H 1468.35126134 -4.58599553 -19.03928081     6    788    0    0    0
H 1468.27288571 -7.61870381 -18.41283178     6    788    0    0    0
C 1467.97907625 -5.45259681 -15.06109126     2    788   792   793   794
H 1468.39399694 -7.05974404 -13.81294705     6    791    0    0    0
H 1468.67282423 -3.83810500 -14.15121122     6    791    0    0    0
C 1465.08801277 -5.14310471 -15.29985425     2    791   795   796   797
H 1464.66977429 -3.34817857 -16.35936523     6    794    0    0    0
H 1464.25989444 -6.37078909 -16.71810007     6    794    0    0    0
C 1464.06988147 -4.96821018 -12.68168737     2    794   798   799   800
H 1464.36805742 -6.65075583 -11.66388177     6    797    0    0    0
H 1465.05120287 -3.41225661 -11.66951445     6    797    0    0    0
C 1461.17086588 -4.68296989 -12.23713235     2    797   801   802   803
H 1460.67593586 -2.77232936 -13.09457508     6    800    0    0    0
H 1460.08395856 -6.04604101 -13.37008136     6    800    0    0    0
C 1460.50548862 -4.78955376 -9.47170302     2    800   804   805   806
H 1460.87080844 -6.63150543 -8.58960729     6    803    0    0    0
H 1461.61249011 -3.45748594 -8.29161237     6    803    0    0    0
C 1457.67614824 -4.67248447 -8.98728263     1    803   807   808   809
H 1456.61971285 -5.82449985 -10.28999146     6    806    0    0    0
H 1457.00619807 -2.68423506 -9.18047221     6    806    0    0    0
H 1457.03562268 -5.28384377 -7.09452793     6    806    0    0    0
H 1496.65398475 -32.39657193 -5.93360474     6     811    0    0    0 
C 1495.88133726 -33.66001058 -4.53779792     1     810    812    813    814
H 1496.46896607 -35.45985066 -5.17859962     6     811    0    0    0
H 1496.78586217 -32.97725135 -2.78567964     6     811    0    0    0
C 1492.93686709 -33.14697703 -4.58079619     2     811    815    816    817
H 1492.03899083 -34.76283615 -3.60275819     6     814    0    0    0
H 1492.52270835 -31.46773399 -3.47173123     6     814    0    0    0
C 1491.95273348 -32.75857407 -7.25081833     2     814    818   819   820
H 1492.54977477 -30.91573168 -7.90418862     6     817    0    0    0
H 1492.71359854 -34.24919478 -8.52183500     6     817    0    0    0
C 1489.02992901 -32.98170230 -7.47460443     2     817   821   822   823
H 1488.23029958 -34.65035131 -6.58866125     6    820    0    0    0
H 1488.43353531 -31.32927372 -6.48634273     6    820    0    0    0
C 1488.30888162 -32.82587007 -10.37647328     2    820   824   825   826
H 1488.45425734 -30.79079682 -11.14774511     6    823    0    0    0
H 1489.61734363 -34.01563674 -11.31608034     6    823    0    0    0
C 1485.66735006 -33.75975424 -10.79714205     2    823   827   828   829
H 1485.43910734 -35.52327215 -9.80411646     6    826    0    0    0
H 1484.40845807 -32.56789205 -9.69053487     6    826    0    0    0
C 1484.63948992 -33.88527410 -13.50089968     2    826   830   831   832
H 1484.65877041 -31.90494250 -14.10314098     6    829    0    0    0
H 1486.06261668 -34.91018519 -14.71891932     6    829    0    0    0
C 1482.10783505 -35.12222215 -13.57249901     2    829   833   834   835
H 1481.83725021 -36.79061480 -12.40599029     6    832    0    0    0
H 1480.69368393 -33.78089291 -12.93891288     6    832    0    0    0
C 1481.35021204 -35.76415793 -16.27813774     2    832   836   837   838
H 1482.27882641 -37.48430975 -17.06183296     6    835    0    0    0
H 1479.42308883 -36.67979295 -16.11185498     6    835    0    0    0
C 1481.20151825 -33.30851688 -18.09353439     2    835   839   840   841
H 1480.31490458 -31.60267491 -17.27512822     6    838    0    0    0
H 1482.97808891 -32.59558513 -18.56091776     6    838    0    0    0
C 1480.10877692 -33.86425210 -20.68821384     2    838   842   843   844
H 1481.30609008 -35.58429418 -21.32014216     6    841    0    0    0
H 1478.11436520 -34.26295788 -20.30840332     6    841    0    0    0
C 1480.40019499 -31.46140920 -22.34338638     1    841   845   846   847
H 1480.35302900 -32.10003101 -24.25779166     6    844    0    0    0
H 1482.29907901 -30.65685326 -22.31013583     6    844    0    0    0
H 1478.86361542 -30.04810915 -22.32411563     6    844    0    0    0
H 1509.47946225 -11.23807482 15.24271361     6     849    0    0    0 
C 1507.52470826 -10.63998260 15.30608615     1     848    850    851    852
H 1507.06936455 -10.65266583 17.45121841     6     849    0    0    0
H 1507.54112972 -8.73578255 14.55260594     6     849    0    0    0
C 1505.71937091 -12.33488190 13.77376344     2     849    853    854    855
H 1505.75141393 -14.29492800 14.42907304     6     852    0    0    0
H 1503.66755059 -11.94290912 14.11253861     6     852    0    0    0
C 1506.40570109 -12.31915169 11.01053173     2     852    856   857   858
H 1505.93075613 -10.49406659 10.12684382     6     855    0    0    0
H 1508.37841057 -12.80816572 10.80607921     6     855    0    0    0
C 1504.84281472 -14.30756277 9.61396062     2     855   859   860   861
H 1504.54850019 -16.05339944 10.82484602     6    858    0    0    0
H 1502.98019841 -13.40468045 9.45353816     6    858    0    0    0
C 1505.97811000 -15.03441301 7.02618370     2    858   862   863   864
H 1506.06561775 -13.29938564 5.84084484     6    861    0    0    0
H 1507.98377727 -15.62824062 7.16017482     6    861    0    0    0
C 1504.32077267 -17.18429788 5.85151454     2    861   865   866   867
H 1503.78314943 -18.48669377 7.27238355     6    864    0    0    0
H 1502.67922211 -16.32257297 5.07663890     6    864    0    0    0
C 1505.61739438 -18.67027803 3.81060532     2    864   868   869   870
H 1506.17389945 -17.35824934 2.17897066     6    867    0    0    0
H 1507.53512591 -19.26724725 4.45169565     6    867    0    0    0
C 1504.10235637 -20.76172834 2.57011431     2    867   871   872   873
H 1503.51066334 -21.89855441 4.12966074     6    870    0    0    0
H 1502.43256578 -20.00210538 1.61997603     6    870    0    0    0
C 1505.76691558 -22.52439793 0.87598989     2    870   874   875   876
H 1504.67066422 -23.28768323 -0.64859476     6    873    0    0    0
H 1506.99319152 -21.34606739 -0.18585427     6    873    0    0    0
C 1507.13961293 -24.51780492 2.47597814     2    873   877   878   879
H 1508.32521092 -23.53385638 3.78344071     6    876    0    0    0
H 1506.05622473 -25.72025627 3.78936166     6    876    0    0    0
C 1508.88392497 -25.98031355 0.62904599     2    876   880   881   882
H 1507.77427740 -27.14183408 -0.66879867     6    879    0    0    0
H 1509.87768725 -24.84189135 -0.68726015     6    879    0    0    0
C 1510.81284995 -27.65240255 2.00007952     1    879   883   884   885
H 1510.18316582 -29.21208928 3.19585283     6    882    0    0    0
H 1511.86029031 -26.59932010 3.19531323     6    882    0    0    0
H 1511.90708164 -28.51850903 0.60080003     6    882    0    0    0
H 1476.01909472 -26.05106795 -7.51212066     6     887    0    0    0 
C 1476.75271192 -24.25234634 -8.13994103     1     886    888    889    890
H 1477.74616414 -24.18108591 -9.97066243     6     887    0    0    0
H 1475.27650483 -22.81386289 -8.09883255     6     887    0    0    0
C 1478.62445983 -23.82789723 -5.99277767     2     887    891    892    893
H 1479.26629867 -21.87902884 -6.40269904     6     890    0    0    0
H 1477.61551883 -23.46581106 -4.19386986     6     890    0    0    0
C 1480.63880801 -25.81233817 -5.94594586     2     890    894   895   896
H 1479.91281557 -27.68066202 -5.94786457     6     893    0    0    0
H 1481.71321717 -25.60749678 -7.63654128     6     893    0    0    0
C 1482.44582920 -25.34491784 -3.82947796     2     893   897   898   899
H 1482.95882879 -23.34744076 -4.02306682     6    896    0    0    0
H 1481.49403277 -25.29453654 -2.06985558     6    896    0    0    0
C 1484.88048486 -27.02779924 -3.82304530     2    896   900   901   902
H 1484.36645661 -28.62290508 -4.85250149     6    899    0    0    0
H 1486.34980539 -26.02957309 -4.61888110     6    899    0    0    0
C 1485.60024422 -27.78906177 -1.19788846     2    899   903   904   905
H 1485.68373021 -26.24633867 0.22232173     6    902    0    0    0
H 1484.12361242 -29.16777420 -0.57482834     6    902    0    0    0
C 1488.22836654 -28.98373404 -1.08122676     2    902   906   907   908
H 1488.18091316 -30.86191713 -2.00247909     6    905    0    0    0
H 1489.57571587 -27.77700887 -2.10292323     6    905    0    0    0
C 1488.98385256 -29.09947456 1.70256710     2    905   909   910   911
H 1489.44104249 -27.03840395 2.26901591     6    908    0    0    0
H 1487.67018565 -29.60397183 3.04196984     6    908    0    0    0
C 1491.35787855 -30.53203298 2.04349152     2    908   912   913   914
H 1491.25759367 -32.35963965 1.22900662     6    911    0    0    0
H 1492.48636298 -29.60193782 0.72761263     6    911    0    0    0
C 1492.19402460 -30.36140777 4.78320376     2    911   915   916   917
H 1492.52522366 -28.43624575 5.44777679     6    914    0    0    0
H 1490.78031563 -31.01784851 6.15822380     6    914    0    0    0
C 1494.69870799 -31.73133707 5.20634364     2    914   918   919   920
H 1494.39898332 -33.86714894 5.30977009     6    917    0    0    0
H 1496.00788338 -31.26065288 3.74753889     6    917    0    0    0
C 1495.99908750 -31.03376649 7.64925356     1    917   921   922   923
H 1498.04250610 -31.64226981 7.69105293     6    920    0    0    0
H 1495.11889377 -32.17729955 8.99154730     6    920    0    0    0
H 1495.98334106 -29.14695588 8.28316358     6    920    0    0    0
H 1502.29572704 -20.19509647 -4.09067088     6     925    0    0    0 
C 1503.40346921 -18.89758382 -5.20141152     1     924    926    927    928
H 1502.11776810 -17.24420165 -5.59194880     6     925    0    0    0
H 1504.91520038 -18.26225466 -3.96373238     6     925    0    0    0
C 1504.24962039 -20.10410292 -7.71218477     2     925    929    930    931
H 1502.47898865 -20.82827643 -8.70168774     6     928    0    0    0
H 1505.28675866 -18.65589152 -8.68246186     6     928    0    0    0
C 1505.96888837 -22.35693764 -7.06985672     2     928    932   933   934
H 1507.45612763 -21.79435379 -5.80676485     6     931    0    0    0
H 1504.72169569 -23.52209680 -5.80912108     6     931    0    0    0
C 1506.85187508 -24.07118364 -9.23980756     2     931   935   936   937
H 1505.23807323 -24.63468671 -10.24243885     6    934    0    0    0
H 1507.96646850 -22.78652476 -10.54978231     6    934    0    0    0
C 1508.64205251 -26.27355234 -8.52292185     2    934   938   939   940
H 1509.06586787 -27.27316213 -10.34593393     6    937    0    0    0
H 1510.39529187 -25.44070937 -7.83064334     6    937    0    0    0
C 1507.64569328 -28.18228566 -6.61324712     2    937   941   942   943
H 1506.49210360 -27.08819905 -5.33054421     6    940    0    0    0
H 1506.43537841 -29.47907425 -7.54432704     6    940    0    0    0
C 1509.79293078 -29.46404227 -5.12603968     2    940   944   945   946
H 1510.80252918 -28.07100043 -4.02472325     6    943    0    0    0
H 1509.05149607 -30.82942962 -3.81835383     6    943    0    0    0
C 1511.92328158 -30.68171674 -6.76099957     2    943   947   948   949
H 1511.05324141 -31.73379773 -8.28656271     6    946    0    0    0
H 1512.80725808 -29.15822667 -7.74098704     6    946    0    0    0
C 1513.48311690 -32.33499577 -5.15794057     2    946   950   951   952
H 1514.44877674 -30.98761869 -4.04788258     6    949    0    0    0
H 1512.18989065 -33.56267769 -4.09457500     6    949    0    0    0
C 1515.46405585 -33.86401916 -6.58701885     2    949   953   954   955
H 1514.71044460 -35.44279408 -7.58170050     6    952    0    0    0
H 1516.44621079 -32.56128836 -7.77456394     6    952    0    0    0
C 1517.46530888 -34.92820019 -4.77283422     2    952   956   957   958
H 1518.85421122 -35.78182139 -5.97659067     6    955    0    0    0
H 1518.18685381 -33.38365210 -3.80569052     6    955    0    0    0
C 1516.49908303 -36.83789748 -2.72805011     1    955   959   960   961
H 1518.20273168 -37.23514628 -1.56760776     6    958    0    0    0
H 1515.67444337 -38.56926591 -3.56521793     6    958    0    0    0
H 1515.09092820 -36.14802415 -1.38755752     6    958    0    0    0
H 1466.31166271 -34.47069472 3.74497815     6     963    0    0    0 
C 1466.31430317 -33.87676674 1.80210590     1     962    964    965    966
H 1468.29297468 -33.46904420 1.32704372     6     963    0    0    0
H 1465.58186579 -35.52609167 0.86940608     6     963    0    0    0
C 1464.49093941 -31.62581224 1.38052204     2     963    967    968    969
H 1464.41190382 -31.30286497 -0.72699208     6     966    0    0    0
H 1462.59829899 -31.80919052 1.96346438     6     966    0    0    0
C 1465.57126378 -29.44109458 2.97585372     2     966    970   971   972
H 1465.59410659 -29.80483220 4.95641161     6     969    0    0    0
H 1467.52732826 -29.28680084 2.48383249     6     969    0    0    0
C 1463.90783696 -27.04281378 2.60604694     2     969   973   974   975
H 1463.37124982 -26.85087767 0.70376150     6    972    0    0    0
H 1462.11119746 -27.46545330 3.58085750     6    972    0    0    0
C 1464.89009893 -24.63103230 3.90565161     2    972   976   977   978
H 1465.58883504 -25.12837864 5.81934024     6    975    0    0    0
H 1466.38520897 -23.76834830 2.95008128     6    975    0    0    0
C 1462.92441806 -22.50840096 4.15177960     2    975   979   980   981
H 1462.75166663 -21.53049101 2.26718158     6    978    0    0    0
H 1461.08580361 -23.10511919 4.41484636     6    978    0    0    0
C 1463.59136700 -20.64377972 6.14014062     2    978   982   983   984
H 1463.97876855 -21.63250916 7.89111765     6    981    0    0    0
H 1465.37378169 -19.97584867 5.56232075     6    981    0    0    0
C 1461.73934917 -18.51262102 6.62271762     2    981   985   986   987
H 1462.27681317 -17.11936581 5.18970452     6    984    0    0    0
H 1459.88203524 -19.24134807 6.17291787     6    984    0    0    0
C 1461.74526092 -17.32650894 9.33195667     2    984   988   989   990
H 1460.29768644 -15.91054808 9.49106646     6    987    0    0    0
H 1461.21985955 -18.90838419 10.52084821     6    987    0    0    0
C 1464.31482538 -15.92996139 9.84566552     2    987   991   992   993
H 1465.94565440 -17.17796461 9.61026411     6    990    0    0    0
H 1464.32100372 -14.39356600 8.35837918     6    990    0    0    0
C 1464.58486347 -14.68368432 12.36352581     2    990   994   995   996
H 1462.91406666 -13.57156356 12.72245155     6    993    0    0    0
H 1464.60676294 -16.13362291 13.96331581     6    993    0    0    0
C 1467.11815708 -13.17253925 12.30991236     1    993   997   998   999
H 1467.93862860 -13.06216168 14.23187045     6    996    0    0    0
H 1466.64453919 -11.33645478 11.89539970     6    996    0    0    0
H 1468.55801698 -13.78399278 10.87496577     6    996    0    0    0
H 1468.98417383 -50.14027385 -11.11665910     6     1001    0    0    0 
C 1467.22371555 -49.16144746 -11.11889727     1     1000    1002    1003    1004
H 1466.72514197 -48.32248941 -13.01486898     6     1001    0    0    0
H 1465.83743732 -50.79352071 -10.75955928     6     1001    0    0    0
C 1467.28448049 -47.22577131 -8.77365995     2     1001    1005    1006    1007
H 1467.96462497 -48.11271475 -6.95505509     6     1004    0    0    0
H 1468.74122096 -45.90743618 -9.13348499     6     1004    0    0    0
C 1464.63604455 -46.05973629 -8.31973791     2     1004    1008   1009   1010
H 1464.12994789 -45.26858137 -10.07229562     6     1007    0    0    0
H 1463.31150970 -47.66326171 -7.89279313     6     1007    0    0    0
C 1464.70757065 -44.17041499 -6.15166813     2     1007   1011   1012   1013
H 1465.27690184 -45.21299258 -4.56958073     6    1010    0    0    0
H 1466.08001607 -42.76596045 -6.63847942     6    1010    0    0    0
C 1462.22526998 -42.87587947 -5.78278112     2    1010   1014   1015   1016
H 1461.78802337 -41.41258352 -7.07578006     6    1013    0    0    0
H 1460.51655320 -43.94880482 -6.02969654     6    1013    0    0    0
C 1462.08052809 -41.64097990 -3.24971705     2    1013   1017   1018   1019
H 1462.64216567 -43.21164342 -1.96954995     6    1016    0    0    0
H 1463.41289250 -40.12216860 -3.10246694     6    1016    0    0    0
C 1459.47175128 -40.82593407 -2.65501979     2    1016   1020   1021   1022
H 1458.68231782 -39.57446611 -4.10350239     6    1019    0    0    0
H 1458.33482783 -42.53005831 -2.30072141     6    1019    0    0    0
C 1459.24182773 -39.01192295 -0.41733903     2    1019   1023   1024   1025
H 1459.82427878 -37.10841442 -0.96837406     6    1022    0    0    0
H 1457.19884987 -38.78208009 -0.10357329     6    1022    0    0    0
C 1460.63772886 -39.59191030 2.05880388     2    1022   1026   1027   1028
H 1459.95096040 -41.31188353 2.83265835     6    1025    0    0    0
H 1462.70461956 -39.91029242 1.70332764     6    1025    0    0    0
C 1460.12116672 -37.45092413 4.19380180     2    1025   1029   1030   1031
H 1460.84901794 -35.62358834 3.63865900     6    1028    0    0    0
H 1458.00520994 -37.33456428 4.31826943     6    1028    0    0    0
C 1461.31532020 -38.21294536 6.74885544     2    1028   1032   1033   1034
H 1460.83801474 -40.06410902 7.36188969     6    1031    0    0    0
H 1463.35602178 -38.59023071 6.48937275     6    1031    0    0    0
C 1460.75127554 -36.23303465 8.71268132     1    1031   1035   1036   1037
H 1460.38426273 -37.08503666 10.58035961     6    1034    0    0    0
H 1459.18806871 -35.00398236 8.27798275     6    1034    0    0    0
H 1462.37133133 -35.00575046 8.93646543     6    1034    0    0    0
H 1471.42154610 -13.58367479 -14.47727580     6     1039    0    0    0 
C 1471.93906252 -13.02695436 -16.42567221     1     1038    1040    1041    1042
H 1470.45578540 -11.96384561 -17.34981712     6     1039    0    0    0
H 1473.65850272 -11.80354778 -16.34275293     6     1039    0    0    0
C 1472.98840451 -15.43418498 -17.71832691     2     1039    1043    1044    1045
H 1474.57943095 -16.03796659 -16.55424138     6     1042    0    0    0
H 1471.54541545 -16.91685961 -17.86952236     6     1042    0    0    0
C 1474.17393998 -14.56821952 -20.33525380     2     1042    1046   1047   1048
H 1472.53246281 -14.13878080 -21.64114111     6     1045    0    0    0
H 1475.21330776 -12.81850852 -20.09044093     6     1045    0    0    0
C 1475.92711504 -16.51342490 -21.48350217     2     1045   1049   1050   1051
H 1477.09958719 -17.47503915 -20.08393751     6    1048    0    0    0
H 1474.72289541 -18.10707258 -21.94395620     6    1048    0    0    0
C 1477.47626388 -15.85278311 -23.80233128     2    1048   1052   1053   1054
H 1476.09720186 -15.39500026 -25.14001186     6    1051    0    0    0
H 1478.56057409 -14.17321236 -23.23955164     6    1051    0    0    0
C 1479.11802299 -18.19580176 -24.61745346     2    1051   1055   1056   1057
H 1480.13905316 -18.80785967 -22.96275965     6    1054    0    0    0
H 1478.13885058 -19.74913057 -25.60187318     6    1054    0    0    0
C 1480.84131954 -17.29208022 -26.79336097     2    1054   1058   1059   1060
H 1479.54770655 -16.90673731 -28.40432912     6    1057    0    0    0
[...]
 1762      H    1485.7106509000   -22.8949641900    25.4636215200
 1763      H    1485.7910866500   -20.3043711300    23.4244185300
 1764      C    1482.7853592200   -23.0199979100    22.4495299900
 1765      H    1482.5982797400   -22.0606890800    20.6265601100
 1766      H    1482.8701066600   -25.0701345300    21.9506063100
 1767      C    1480.4848408400   -22.1180344500    23.8857838000
 1768      H    1480.7613215900   -22.9855854900    25.7113098500
 1769      H    1480.7048404100   -20.0038104700    24.0039785100
 1770      C    1477.8310398600   -22.8072330500    22.8848772600
 1771      H    1477.4025527100   -21.8525531900    21.1375892300
 1772      H    1477.6766906300   -24.7655909500    22.1965463800
 1773      C    1475.9463591400   -22.1472972500    24.9426102200
 1774      H    1476.1414032600   -23.5105125100    26.4771382600
 1775      H    1476.6321034500   -20.5319465800    26.0130636800
 1776      C    1473.3043945300   -21.8490600700    23.8741054800
 1777      H    1473.2890298900   -20.1355983600    22.6675644600
 1778      H    1472.6555717900   -23.5218612300    22.7648648100
 1779      C    1471.2462914600   -21.5053900100    25.8781102700
 1780      H    1469.5454652200   -22.2625333600    24.9968174500
 1781      H    1471.7344193700   -22.8114884700    27.4355479100
 1782      C    1470.8853535100   -18.7931526700    27.0153009700
 1783      H    1470.8193169500   -17.6309701200    25.3756331000
 1784      H    1469.0992189200   -18.7032977500    28.0647456900
 1785      C    1472.8757372400   -18.1456680600    28.8510522500
 1786      H    1472.1151113400   -17.3736995900    30.5400051400
 1787      H    1473.9778074500   -19.7108457100    29.4870201700
 1788      C    1474.6377498100   -16.1007975900    27.6489918000
 1789      H    1475.0632704500   -16.4513199100    25.6868610500
 1790      H    1474.0649873800   -14.0728089800    27.7643352800
 1791      C    1477.0711608800   -15.8895706100    29.1912443000
 1792      H    1476.4922139900   -15.6371014200    31.1339983200
 1793      H    1477.9054129300   -17.8177623300    29.3261683600
 1794      C    1478.9691272400   -13.8377281100    28.5224609600
 1795      H    1478.0310531000   -12.0043866300    28.4763938500
 1796      H    1479.6040996300   -14.1627685000    26.5871236100
 1797      H    1480.6549045500   -13.8229690700    29.8030867000
 1798      H    1489.4079351800     1.0912405100   -11.8921310000
 1799      C    1490.9760646300    -0.2037253600   -11.3061959800
 1800      H    1492.4201389700    -0.4476568800   -12.7531411000
 1801      H    1491.6006489300     0.8510553000    -9.5341609200
 1802      C    1490.1067522800    -2.8929993600   -10.5200863900
 1803      H    1488.5583766500    -2.8210655500    -9.2394610300
 1804      H    1489.5405935600    -3.7336368200   -12.1983035900
 1805      C    1492.4117585400    -4.4166048800    -9.4586514200
 1806      H    1493.7845712800    -4.4218142600   -10.8031716900
 1807      H    1493.3557490100    -3.1518161500    -8.0434808800
 1808      C    1491.7866201700    -7.0107563700    -8.3338640900
 1809      H    1493.4518488000    -7.7892220400    -7.5057042800
 1810      H    1490.7403017000    -6.8154761900    -6.4979761700
 1811      C    1490.9778283300    -8.9534929200   -10.2266548600
 1812      H    1489.0434282500    -8.3280384500   -10.7717418400
 1813      H    1492.3699238000    -9.3264955000   -11.7355041200
 1814      C    1490.3526844900   -11.4758936200    -8.8376916600
 1815      H    1492.1724964800   -12.0555710700    -8.0464543600
 1816      H    1488.9791039600   -11.2619021700    -7.2053239700
 1817      C    1489.4462500600   -13.4447195300   -10.7851283700
 1818      H    1487.4885082300   -12.9821142500   -11.4239862200
 1819      H    1490.4867225200   -13.4011758800   -12.5876146900
 1820      C    1489.5554252400   -16.0636924700    -9.5612968700
 1821      H    1491.5212068200   -16.7164157900    -9.2552564500
 1822      H    1488.6607954500   -15.8296515500    -7.6154290700
 1823      C    1488.1314050900   -18.1154113700   -11.1357481200
 1824      H    1486.0581267900   -17.7476972800   -10.9360854000
 1825      H    1488.7972548000   -17.9266542100   -12.9845764100
 1826      C    1488.3366428700   -20.8467624100   -10.2565690700
 1827      H    1490.2441662400   -21.5239991200   -10.5902236100
 1828      H    1487.8727963000   -21.1272667000    -8.2130444300
 1829      C    1486.8490290600   -22.7742596300   -11.7256119500
 1830      H    1484.7437515800   -22.7931869200   -11.5182371100
 1831      H    1487.1761953900   -22.1736799600   -13.7927898700
 1832      C    1487.9077498700   -25.5738120300   -11.4034177500
 1833      H    1486.7699196900   -27.0198157900   -12.4133984700
 1834      H    1487.9861638200   -25.9398811400    -9.3694648000
 1835      H    1489.7889774400   -25.8737158100   -12.0537848000
 1836      H    1486.1206690900   -20.4639427500    -3.4536038600
 1837      C    1486.8232942000   -19.9248462700    -1.6728548000
 1838      H    1485.9743795100   -18.1005797500    -1.1161342800
 1839      H    1486.4827384900   -21.4342873600    -0.2657929600
 1840      C    1489.6979832600   -19.6957531900    -1.4672740800
 1841      H    1490.2598917200   -19.8666649800     0.4223215700
 1842      H    1490.4039320900   -21.2079856900    -2.5333325900
 1843      C    1490.7473122200   -17.1900164700    -2.5019443600
 1844      H    1490.6269032200   -17.3810193300    -4.4883103200
 1845      H    1489.5266363700   -15.6380333300    -1.9320710200
 1846      C    1493.3931611900   -16.9071392400    -1.3707823700
 1847      H    1493.2491750900   -16.7750645600     0.6919110600
 1848      H    1494.6378619700   -18.5758673200    -1.5601696600
 1849      C    1494.8634072500   -14.7860712500    -2.7558021300
 1850      H    1494.8954619200   -14.9929932200    -4.7798092300
 1851      H    1493.6329616100   -13.0804494400    -2.6970427400
 1852      C    1497.5054030100   -14.1276837600    -1.6488080700
 1853      H    1498.2732090400   -15.4823103400    -0.3794725600
 1854      H    1498.9482409000   -14.0303566200    -3.0933830100
 1855      C    1497.5586787200   -11.7309218500    -0.0538112900
 1856      H    1496.8487884400   -10.2014674600    -1.0476539500
 1857      H    1496.1100146700   -12.1320326600     1.5560835100
 1858      C    1500.2216687300   -10.9505550400     0.9516237100
 1859      H    1501.3470351300   -12.5295387800     1.6345347300
 1860      H    1501.1811972800   -10.2703552300    -0.6806333300
 1861      C    1499.8317504300    -8.8102314400     2.9992786500
 1862      H    1498.5592403700    -7.4231370900     2.0426503400
 1863      H    1498.6761368700    -9.5259242200     4.6106105300
 1864      C    1502.2697010100    -7.5588773800     3.6975847900
 1865      H    1503.3603234600    -9.0196661000     4.7470960300
 1866      H    1503.4603042500    -6.8946732300     2.2377166900
 1867      C    1501.4480585300    -5.3261361300     5.4688426400
 1868      H    1500.4899108700    -4.0134848600     4.3278235800
 1869      H    1500.3199491500    -6.1058886900     6.9965646200
 1870      C    1503.6618484900    -3.8975697900     6.6995883700
 1871      H    1502.7561171300    -2.3461139200     7.6913791800
 1872      H    1504.9143983500    -3.0756419700     5.2640752600
 1873      H    1504.7204896200    -5.1729833300     7.9220045100
 1874      H    1477.4676623300    -5.4229656800    15.1923845600
 1875      C    1477.3939968100    -6.1326159800    13.2198803600
 1876      H    1477.7945617600    -4.5248047600    11.8811760600
 1877      H    1478.7915927600    -7.5725179500    13.0532775500
 1878      C    1475.0529486700    -7.7451485000    12.5124074100
 1879      H    1475.2128402500    -9.6240982300    13.4412575800
 1880      H    1473.2737229400    -6.8553102800    13.1370397400
 1881      C    1474.5654378100    -8.2624715100     9.6398155500
 1882      H    1474.1873253000    -6.5190278300     8.8296142600
 1883      H    1476.3280562200    -8.9833489800     9.0649641500
 1884      C    1472.5850533500   -10.3637627100     8.7640641100
 1885      H    1473.6300962100   -12.1303148200     9.0506800700
 1886      H    1471.0254510800   -10.1808414300    10.1217275700
 1887      C    1471.5961334400   -10.0520044500     5.9250299500
 1888      H    1470.5718141900    -8.3655100500     5.4032801200
 1889      H    1473.3717212800    -9.9647698600     4.7952733800
 1890      C    1470.0280187000   -12.3517358300     5.1929993100
 1891      H    1471.3718347300   -13.9902664700     4.9081150600
 1892      H    1468.8881468200   -12.9600795300     6.8835292800
 1893      C    1468.4984569800   -11.8613839600     2.7248413100
 1894      H    1467.3255849000   -10.2802611600     3.0954161700
 1895      H    1469.9694416300   -11.5733072400     1.2560291500
 1896      C    1466.8914310000   -14.1437744700     1.9708394300
 1897      H    1467.9870276000   -15.9107907500     2.3459245800
 1898      H    1465.2835665100   -14.0520030900     3.2898860200
 1899      C    1465.7939267700   -13.9403138100    -0.7257024400
 1900      H    1464.9985956300   -12.1701980600    -1.1794900600
 1901      H    1467.5537227800   -14.1021850300    -1.7527454600
 1902      C    1464.1048942200   -16.2194033900    -1.3719693100
 1903      H    1465.3788213100   -17.9901259900    -1.2736438900
 1904      H    1462.5617669500   -16.5872675600    -0.0617848800
 1905      C    1462.9351525300   -16.0828731100    -4.0164399600
 1906      H    1462.2609164500   -14.1378996300    -4.5119281500
 1907      H    1464.4962309300   -16.3345013400    -5.2281378400
 1908      C    1460.9057533800   -18.1412716900    -4.5776871700
 1909      H    1459.2707955800   -17.5258088900    -3.5135421000
 1910      H    1461.4137848000   -20.0289319300    -3.6856939300
 1911      H    1460.3052959700   -18.3804346900    -6.5488884200
 ----------------------------------------------------------------
 Nuclear Repulsion Energy =           0.00000000 hartrees
 There are     2498 alpha and     2498 beta electrons

 Total QAlloc Memory Limit   2000 MB
 Mega-Array Size       204 MB
 MEM_STATIC part       192 MB
   **** Step 1: MM calculation on the entire system **** 
 OPLSAA force field loaded.
Reading user-defined FF parameters...
 Reading user defined atom types.
 Found 3 user defined AtomTypes
finished.
Determining angles, torsions, etc. from user defined input
Determining VDW/Coulomb pairs... (useList = 0)

 Time req'd to get MM system information: 0.2 s (CPU) 0.3 s (wall)

 ------ MM Energies ------
   Ebond:           564.181917484730
   Eangle:          887.084350405917
   EUreyBrad:         0.000000000000
   Eimptors:          0.000000000000
   Etorsion:        218.981918156076
   Evdw:         952353.171317754313
   Ecoulomb:        184.604695233175
   Etot:         954208.024199034204 Kcal/mol (   1520.627286594427 hartree)
 -------------------------
 Time req'd to calc MM energy: 0.1 s (CPU) 0.1 s (wall)
 OPLSAA force field loaded.
Reading user-defined FF parameters...
 Reading user defined atom types.
 Found 3 user defined AtomTypes
finished.
 Time req'd to get MM system information: 0.0 s (CPU) 0.0 s (wall)
 Time req'd to calc MM gradient: 0.2 s (CPU) 0.2 s (wall)
   **** Step 2: MM calculation on the model system **** 
 Reading user defined atom types.
 Found 3 user defined AtomTypes
 ----------------------------------------------------------------
             Standard Nuclear Orientation (Bohr)
    I     Atom           X                Y                Z
 ----------------------------------------------------------------
    1      Fe   1476.1430159400   -17.4474399000     3.4825472100
    2      C    1472.9600337800   -18.5320433200     3.7175911700
    3      C    1475.4117017500   -15.5078392200     0.6770839300
    4      C    1477.4189381200   -19.3605295400     5.9670143700
    5      C    1478.5294935300   -19.1040422100     1.6421897600
    6      C    1477.2278442100   -14.4806512900     4.8132926400
    7      O    1470.9201794700   -19.4800375300     3.8888204600
    8      O    1475.6416925200   -14.2537652500    -1.1616048400
    9      O    1478.5083618000   -20.9227363100     7.0771335600
   10      O    1479.8545363500   -20.6315570000     0.7463714900
   11      O    1477.6565031600   -12.3081799800     5.1992704900
 ----------------------------------------------------------------
 Nuclear Repulsion Energy =         800.21395135 hartrees
 There are       48 alpha and       48 beta electrons
 OPLSAA force field loaded.
Reading user-defined FF parameters...
 Reading user defined atom types.
 Found 3 user defined AtomTypes
finished.
Determining VDW/Coulomb pairs... (useList = 0)

 No MM bonds in system. Return all possible pairs.
 Time req'd to get MM system information: 0.0 s (CPU) 0.0 s (wall)

 ------ MM Energies ------
   Ebond:             0.000000000000
   Eangle:            0.000000000000
   EUreyBrad:         0.000000000000
   Eimptors:          0.000000000000
   Etorsion:          0.000000000000
   Evdw:         952815.375738777104
   Ecoulomb:         -6.383544709013
   Etot:         952808.992194068036 Kcal/mol (   1518.397787169125 hartree)
 -------------------------
 Eold: 1520.6272866 mm_energy: 1518.3977872 Enew:    2.2294994
 Time req'd to calc MM energy: 0.0 s (CPU) 0.0 s (wall)
 OPLSAA force field loaded.
Reading user-defined FF parameters...
 Reading user defined atom types.
 Found 3 user defined AtomTypes
finished.
Determining VDW/Coulomb pairs... (useList = 0)

 No MM bonds in system. Return all possible pairs.
 Time req'd to get MM system information: 0.0 s (CPU) 0.0 s (wall)
 Number of fixed atoms: 0
 Time req'd to calc MM gradient: 0.0 s (CPU) 0.0 s (wall)
   **** Step 3: QM calculation on the model system **** 
 Requested basis set is def2-mSVP
 There are 80 shells and 174 basis functions

                       Distance Matrix (Bohrs)
             Fe(  1)   C (  2)   C (  3)   C (  4)   C (  5)   C (  6)
   C (  2)  3.370903
   C (  3)  3.488194  4.939754
   C (  4)  3.385331  5.062423  6.845114
   C (  5)  3.438971  5.971043  4.856411  4.472497
   C (  6)  3.427765  5.985695  4.632679  5.018048  5.755513
   O (  7)  5.619122  2.255885  6.802013  6.824004  7.942945  8.101552
   O (  8)  5.658536  7.021503  2.237493  8.947338  6.302844  6.186013
   O (  9)  5.531148  6.912733  8.937060  2.204472  5.731205  6.947313
   O ( 10)  5.603628  7.795529  6.782040  5.899387  2.211680  7.827707
   O ( 11)  5.625813  7.936540  5.977217  7.097993  7.720018  2.247745
             O (  7)   O (  8)   O (  9)   O ( 10)
   O (  8)  8.666799
   O (  9)  8.356269 10.980427
   O ( 10)  9.540635  7.878112  6.478852
   O ( 11)  9.926272  6.950216  8.857912  9.692175

 A cutoff of  1.0D-11 yielded   2510 shell pairs
 There are     12964 function pairs (     14842 Cartesian)
 Smallest overlap matrix eigenvalue = 2.58E-03
 Guess MOs from SCF MO coefficient file
 Reading MOs from coefficient file
 Reading MOs from coefficient file
 A restricted Kohn-Sham SCF calculation will be
 performed using Pulay DIIS extrapolation
 Exchange:  B88      Correlation:  P86
 Using SG-1 standard quadrature grid
 SCF converges when DIIS error is below 1.0E-08
 Using Q-Chem read-in guess as SCF_GUESS READ specified.

 using 2 threads for integral computing
 -------------------------------------------------------
 OpenMP Integral computing Module                
 Release: version 1.0, May 2013, Q-Chem Inc. Pittsburgh 
 -------------------------------------------------------
 ---------------------------------------
  Cycle       Energy         DIIS Error
 ---------------------------------------
    1   -1830.5073721258      1.79E-09
    2   -1830.5073721257      5.17E-09 Convergence criterion met
 ---------------------------------------
 SCF time:  CPU 2.82 s  wall 1.47 s
 E(QM + QM/MM):    -1830.5073721257 E(MM):    2.2294994 E(Tot): -1828.277872700370 
 SCF   energy in the final basis set = -1828.27787270
 Total energy in the final basis set = -1828.27787270

 --------------------------------------------------------------

                    Orbital Energies (a.u.)
 --------------------------------------------------------------

 Alpha MOs
 -- Occupied --
******** -29.6386 -25.5986 -25.5856 -25.5820 -18.8947 -18.8869 -18.8820
-18.8781 -18.8667 -10.0674 -10.0562 -10.0496 -10.0487 -10.0377  -3.3235
 -2.1594  -2.1349  -2.1265  -1.0592  -1.0556  -1.0506  -1.0367  -1.0234
 -0.5785  -0.5341  -0.5217  -0.5171  -0.5135  -0.4595  -0.4493  -0.4405
 -0.4336  -0.4316  -0.4235  -0.4207  -0.4180  -0.4092  -0.4043  -0.4022
 -0.3992  -0.3944  -0.3921  -0.3778  -0.2794  -0.2756  -0.2383  -0.2220
 -- Virtual --
 -0.1222  -0.1076  -0.0986  -0.0857  -0.0799  -0.0737  -0.0677  -0.0616
 -0.0547  -0.0340  -0.0211   0.0160   0.1873   0.2135   0.2304   0.2420
  0.2904   0.3291   0.3444   0.3875   0.4058   0.4068   0.4307   0.4326
  0.4537   0.4646   0.4900   0.5071   0.5239   0.5383   0.5667   0.5795
  0.5902   0.6037   0.6147   0.6323   0.7340   0.7541   0.7659   0.7822
  0.7894   0.8058   0.8421   0.8466   0.8857   0.9162   0.9349   0.9376
  0.9643   0.9778   0.9858   1.0014   1.0152   1.0227   1.0284   1.0429
  1.1490   1.2309   1.2631   1.2980   1.3928   1.4004   1.4126   1.4151
  1.4202   1.4217   1.4250   1.4316   1.4352   1.4456   1.4592   1.4802
  1.5244   1.5418   1.5596   1.5940   1.6177   1.6368   1.6449   1.6691
  1.6986   1.8040   1.8218   1.8296   1.8365   1.8410   1.8446   1.8494
  1.8559   1.8659   1.8868   1.8913   1.9075   1.9282   1.9518   1.9596
  2.3222   2.3740   2.4022   2.4096   2.4345   2.4414   2.4595   2.4628
  2.4896   2.5070   2.5974   2.6153   2.6382   2.6526   2.6596   2.7807
  2.8185   2.8624   2.8765   2.9285  13.2510  13.2773  13.3077  13.3435
 13.4517  24.8853  24.9180  24.9416  24.9762  24.9967
 --------------------------------------------------------------

          Ground-State Mulliken Net Atomic Charges

     Atom                 Charge (a.u.)
  ----------------------------------------
      1 Fe                   -0.476078
      2 C                     0.212475
      3 C                     0.224361
      4 C                     0.194667
      5 C                     0.230706
      6 C                     0.233655
      7 O                    -0.149369
      8 O                    -0.114772
      9 O                    -0.111316
     10 O                    -0.111227
     11 O                    -0.133101
  ----------------------------------------
  Sum of atomic charges =     0.000000

 -----------------------------------------------------------------
                    Cartesian Multipole Moments
 -----------------------------------------------------------------
    Charge (ESU x 10^10)
                -0.0000
    Dipole Moment (Debye)
         X       0.3505389605      Y       0.3278218302      Z      -0.0506737731
       Tot       0.4826101392
    Quadrupole Moments (Debye-Ang)
        XX     477.3940     XY     252.2317     YY     -77.8568
        XZ     -38.1660     YZ       0.8663     ZZ     -67.7682
    Octopole Moments (Debye-Ang^2)
       XXX  477046.3915    XXY  194683.9439    XYY  -60788.9206
       YYY    2066.7471    XXZ  -28830.1585    XYZ     661.5318
       YYZ    -139.3335    XZZ  -52942.5584    YZZ     625.4375
       ZZZ    -351.6930
    Hexadecapole Moments (Debye-Ang^3)
      XXXX ************   XXXY ************   XXYY ************
      XYYY 1614360.6157   YYYY  -38350.7133   XXXZ ************
      XXYZ  506094.5532   XYYZ -108710.8411   YYYZ    3720.8824
      XXZZ ************   XYZZ  488620.2445   YYZZ   -6249.3510
      XZZZ -274781.4607   YZZZ    3318.3095   ZZZZ   -1839.1111
 -----------------------------------------------------------------
 Calculating MO derivatives via CPSCF
 Full subspace dimension requested for CIS/TDDFT
 MAX_CIS_SUBSPACE fits in available memory
    1     0    36    0.0422363  
    2     0    36    0.0065179  
    3     0    36    0.0006475  
