                  Welcome to Q-Chem
     A Quantum Leap Into The Future Of Chemistry


 Q-Chem 5.4 (devel), Q-Chem, Inc., Pleasanton, CA (2021)

 E. Epifanovsky,  A. T. B. Gilbert,  Xintian Feng,  Joonho Lee,  Yuezhi Mao,  
 N. Mardirossian,  P. Pokhilko,  A. White,  M. Wormit,  M. P. Coons,  
 A. L. Dempwolff,  Zhengting Gan,  D. Hait,  P. R. Horn,  L. D. Jacobson,  
 I. Kaliman,  J. Kussmann,  A. W. Lange,  Ka Un Lao,  D. S. Levine,  Jie Liu,  
 S. C. McKenzie,  A. F. Morrison,  K. Nanda,  F. Plasser,  D. R. Rehn,  
 M. L. Vidal,  Zhi-Qiang You,  Ying Zhu,  B. Alam,  B. Albrecht,  
 A. Aldossary,  E. Alguire,  J. H. Andersen,  D. Barton,  K. Begam,  A. Behn,  
 Y. A. Bernard,  E. J. Berquist,  H. Burton,  A. Carreras,  K. Carter-Fenk,  
 R. Chakraborty,  A. D. Chien,  K. D. Closser,  V. Cofer-Shabica,  
 S. Dasgupta,  Jia Deng,  M. de Wergifosse,  M. Diedenhofen,  Hainam Do,  
 S. Ehlert,  Po-Tung Fang,  S. Fatehi,  Qingguo Feng,  T. Friedhoff,  
 J. Gayvert,  Qinghui Ge,  G. Gidofalvi,  M. Goldey,  J. Gomes,  
 C. Gonzalez-Espinoza,  S. Gulania,  A. Gunina,  M. W. D. Hanson-Heine,  
 P. H. P. Harbach,  A. W. Hauser,  M. F. Herbst,  M. Hernandez Vera,  
 M. Hodecker,  Z. C. Holden,  S. Houck,  Xunkun Huang,  Kerwin Hui,  
 B. C. Huynh,  M. Ivanov,  Hyunjun Ji,  Hanjie Jiang,  B. Kaduk,  S. Kaehler,  
 K. Khistyaev,  Jaehoon Kim,  P. Klunzinger,  Z. Koczor-Benda,  
 Joong Hoon Koh,  D. Kosenkov,  L. Koulias,  T. Kowalczyk,  C. M. Krauter,  
 K. Kue,  A. Kunitsa,  T. Kus,  A. Landau,  K. V. Lawler,  D. Lefrancois,  
 S. Lehtola,  Rain Li,  Yi-Pei Li,  Jiashu Liang,  M. Liebenthal,  
 Hung-Hsuan Lin,  You-Sheng Lin,  Fenglai Liu,  Kuan-Yu Liu,  
 M. Loipersberger,  A. Luenser,  A. Manjanath,  P. Manohar,  E. Mansoor,  
 S. F. Manzer,  Shan-Ping Mao,  A. V. Marenich,  T. Markovich,  S. Mason,  
 S. A. Maurer,  P. F. McLaughlin,  M. F. S. J. Menger,  J.-M. Mewes,  
 S. A. Mewes,  P. Morgante,  J. W. Mullinax,  K. J. Oosterbaan,  G. Paran,  
 Alexander C. Paul,  Suranjan K. Paul,  F. Pavosevic,  Zheng Pei,  S. Prager,  
 E. I. Proynov,  E. Ramos,  B. Rana,  A. E. Rask,  A. Rettig,  R. M. Richard,  
 F. Rob,  E. Rossomme,  T. Scheele,  M. Scheurer,  M. Schneider,  
 N. Sergueev,  S. M. Sharada,  W. Skomorowski,  D. W. Small,  C. J. Stein,  
 Yu-Chuan Su,  E. J. Sundstrom,  Zhen Tao,  J. Thirman,  T. Tsuchimochi,  
 N. M. Tubman,  S. P. Veccham,  O. Vydrov,  J. Wenzel,  J. Witte,  A. Yamada,  
 Kun Yao,  S. Yeganeh,  S. R. Yost,  A. Zech,  Igor Ying Zhang,  Xing Zhang,  
 Yu Zhang,  D. Zuev,  A. Aspuru-Guzik,  A. T. Bell,  N. A. Besley,  
 K. B. Bravaya,  B. R. Brooks,  D. Casanova,  Jeng-Da Chai,  S. Coriani,  
 C. J. Cramer,  A. E. DePrince, III,  R. A. DiStasio Jr.,  A. Dreuw,  
 B. D. Dunietz,  T. R. Furlani,  W. A. Goddard III,  S. Grimme,  
 S. Hammes-Schiffer,  T. Head-Gordon,  W. J. Hehre,  Chao-Ping Hsu,  
 T.-C. Jagau,  Yousung Jung,  A. Klamt,  Jing Kong,  D. S. Lambrecht,  
 WanZhen Liang,  N. J. Mayhall,  C. W. McCurdy,  J. B. Neaton,  
 C. Ochsenfeld,  J. A. Parkhill,  R. Peverati,  V. A. Rassolov,  Yihan Shao,  
 L. V. Slipchenko,  T. Stauch,  R. P. Steele,  J. E. Subotnik,  
 A. J. W. Thom,  A. Tkatchenko,  D. G. Truhlar,  T. Van Voorhis,  
 T. A. Wesolowski,  K. B. Whaley,  H. L. Woodcock III,  P. M. Zimmerman,  
 S. Faraji,  P. M. W. Gill,  M. Head-Gordon,  J. M. Herbert,  A. I. Krylov

 Additional authors for Version 5.4.1: 
 S. Kotaru,  Shaozhi Li,  Xiangyuan Li,  F. Matz,  A. Molle,  Haisheng Ren,  
 Yingli Su,  Hung-Yi Tsai,  C. Utku,  Fang Wang

 Contributors to earlier versions of Q-Chem not listed above: 
 R. D. Adamson,  B. Austin,  R. Baer,  J. Baker,  G. J. O. Beran,  
 K. Brandhorst,  S. T. Brown,  E. F. C. Byrd,  A. K. Chakraborty,  
 G. K. L. Chan,  Chun-Min Chang,  Yunqing Chen,  C.-L. Cheng,  
 Siu Hung Chien,  D. M. Chipman,  D. L. Crittenden,  H. Dachsel,  
 R. J. Doerksen,  A. D. Dutoi,  R. G. Edgar,  J. Fosso-Tande,  
 L. Fusti-Molnar,  D. Ghosh,  A. Ghysels,  A. Golubeva-Zadorozhnaya,  
 J. Gonthier,  M. S. Gordon,  S. R. Gwaltney,  G. Hawkins,  J. E. Herr,  
 A. Heyden,  S. Hirata,  E. G. Hohenstein,  G. Kedziora,  F. J. Keil,  
 C. Kelley,  Jihan Kim,  R. A. King,  R. Z. Khaliullin,  P. P. Korambath,  
 W. Kurlancheek,  A. Laurent,  A. M. Lee,  M. S. Lee,  S. V. Levchenko,  
 Ching Yeh Lin,  D. Liotard,  E. Livshits,  R. C. Lochan,  I. Lotan,  
 L. A. Martinez-Martinez,  P. E. Maslen,  N. Nair,  D. P. O'Neill,  
 D. Neuhauser,  E. Neuscamman,  C. M. Oana,  R. Olivares-Amaya,  R. Olson,  
 T. M. Perrine,  B. Peters,  P. A. Pieniazek,  A. Prociuk,  Y. M. Rhee,  
 J. Ritchie,  M. A. Rohrdanz,  E. Rosta,  N. J. Russ,  H. F. Schaefer III,  
 M. W. Schmidt,  N. E. Schultz,  S. Sharma,  N. Shenvi,  C. D. Sherrill,  
 A. C. Simmonett,  A. Sodt,  T. Stein,  D. Stuck,  K. S. Thanthiriwatte,  
 V. Vanovschi,  L. Vogt,  Tao Wang,  A. Warshel,  M. A. Watson,  
 C. F. Williams,  Q. Wu,  X. Xu,  Jun Yang,  W. Zhang,  Yan Zhao

 Please cite Q-Chem as follows:
 Y. Shao et al., Mol. Phys. 113, 184-215 (2015)
 DOI: 10.1080/00268976.2014.952696

 Q-Chem 5.4.1 for Intel X86 EM64T Linux

 Parts of Q-Chem use Armadillo 9.900.5 (Nocturnal Misbehaviour).
 http://arma.sourceforge.net/

 Q-Chem begins on Wed Jun  1 23:30:23 2022  

 Host: p09r14n13.grace.hpc.yale.internal
0

     Scratch files written to /home/tl686/scratch60/qchem_dev/scratch/qchem244445//
 Processing $rem in /home/tl686/qchem_dev/qchem/config/preferences:
 Processing $rem in /home/tl686/.qchemrc:
Applying user defined connections for MM calculations

 Checking the input file for inconsistencies... 	...done.

--------------------------------------------------------------
User input:
--------------------------------------------------------------
$molecule
0   1
 Fe 840.86003776 -62.80585544 50.06226701    -1  0   0   0   0
C 841.39923911 -65.58839934 51.84655224    -2  0   0   0   0 
C 840.35498243 -59.81131638 48.32185697    -2  0   0   0   0
C 837.46443467 -63.70029998 50.01760656    -2  0   0   0   0
C 841.95640383 -61.30539406 52.85033345    -2  0   0   0   0
C 843.21677823 -63.63258834 47.81031073    -2  0   0   0   0
O 841.82054889 -67.21065997 53.24302402    -3  0   0   0   0
O 840.30829109 -57.88503040 47.29900258    -3  0   0   0   0 
O 835.31325127 -64.18728635 50.16341392    -3  0   0   0   0
O 842.64175939 -60.70918674 54.90328281    -3  0   0   0   0 
O 844.80918144 -64.00802314 46.31597703    -3  0   0   0   0
H 820.40541261 -83.54176321 61.42847696      6     13    0    0    0 
C 819.37015271 -81.94959941 62.24870636     1     12    14    15    16
H 818.55262251 -80.99038162 60.62201455     6     13    0    0    0
H 817.97293140 -82.78837270 63.53695404     6     13    0    0    0
C 821.45819343 -80.38415720 63.54289454     2     13    17    18    19
H 822.56121285 -79.57412045 62.03688265     6     16    0    0    0
H 820.71175019 -78.69308877 64.47961115     6     16    0    0    0
C 823.13506658 -81.77425543 65.28211460     2     16    20   21   22
H 822.08891562 -82.31663851 67.01474576     6     19    0    0    0
H 823.61336230 -83.65467617 64.53158875     6     19    0    0    0
C 825.55036442 -80.36442077 65.68148787     2     19   23   24   25
H 826.58156912 -80.29073938 63.94292163     6    22    0    0    0
H 825.01415053 -78.39722459 66.36280574     6    22    0    0    0
C 827.24093643 -81.50962804 67.70481118     2    22   26   27   28
H 826.55814423 -80.99917342 69.45491865     6    25    0    0    0
H 826.99679846 -83.55114861 67.54442834     6    25    0    0    0
C 829.91622349 -80.75103189 67.53831699     2    25   29   30   31
H 830.75894391 -81.49974496 65.80958962     6    28    0    0    0
H 829.87385848 -78.75861965 67.47744523     6    28    0    0    0
C 831.59070672 -81.48913503 69.86572207     2    28   32   33   34
H 831.11072649 -80.42732730 71.44165943     6    31    0    0    0
H 831.67025545 -83.44154494 70.61510786     6    31    0    0    0
C 834.54541963 -81.09493469 69.30334360     2    31   35   36   37
H 835.30822921 -81.84446844 67.51704444     6    34    0    0    0
H 834.57139198 -79.23056038 68.81255682     6    34    0    0    0
C 836.22737460 -81.77756619 71.61264534     2    34   38   39   40
H 835.03150052 -81.81432047 73.23696863     6    37    0    0    0
H 836.61103731 -83.69275891 71.39103490     6    37    0    0    0
C 838.68919321 -80.23501423 71.82366376     2    37   41   42   43
H 839.43473454 -79.95271495 70.01788070     6    40    0    0    0
H 838.31239078 -78.36497276 72.65696822     6    40    0    0    0
C 840.76535164 -81.56274091 73.38546748     2    40   44   45   46
H 840.21580034 -81.40316705 75.42589736     6    43    0    0    0
H 840.56370262 -83.64922833 73.03617430     6    43    0    0    0
C 843.39363693 -80.40247733 72.87750065     1    43   47   48   49
H 843.51765650 -80.25280199 70.84595099     6    46    0    0    0
H 845.01303763 -81.46529893 73.41997650     6    46    0    0    0
H 843.39099418 -78.39678545 73.36273466     6    46    0    0    0
H 847.56307779 -70.83675559 56.91725571     6     51    0    0    0 
C 845.88438273 -69.56625789 56.79146445     1     50    52    53    54
H 846.41754616 -67.93316513 57.93593213     6     51    0    0    0
H 845.67548263 -68.90601187 54.91176403     6     51    0    0    0
C 843.64734602 -71.05061859 57.75122898     2     51    55    56    57
H 841.93687141 -70.50714212 56.86004391     6     54    0    0    0
H 843.83499897 -73.09277035 57.28604481     6     54    0    0    0
C 843.30108127 -70.70918661 60.59983405     2     54    58   59   60
H 843.68120077 -68.66157853 60.99814902     6     57    0    0    0
H 841.29373525 -70.87361903 61.01570766     6     57    0    0    0
C 845.16707838 -72.63793245 61.90315565     2     57   61   62   63
H 844.72312107 -74.55339721 61.26939084     6    60    0    0    0
H 847.11292886 -72.25138130 61.38476240     6    60    0    0    0
C 845.24284746 -72.52245083 64.97581009     2    60   64   65   66
H 845.19289937 -70.59047167 65.54871734     6    63    0    0    0
H 843.50858224 -73.34979205 65.93355850     6    63    0    0    0
C 847.45266662 -74.13537603 65.90956996     2    63   67   68   69
H 847.25880798 -74.92690453 67.80851635     6    66    0    0    0
H 847.63707810 -75.75845520 64.52124311     6    66    0    0    0
C 850.07082984 -72.80546161 65.98517120     2    66   70   71   72
H 850.66948047 -72.20286211 64.10741534     6    69    0    0    0
H 850.04265446 -71.29965938 67.29376667     6    69    0    0    0
C 852.10576000 -74.36058320 67.22134902     2    69   73   74   75
H 851.80837344 -74.97393859 69.20419315     6    72    0    0    0
H 852.25959900 -76.13095284 66.03746682     6    72    0    0    0
C 854.62696932 -73.14746345 67.23725183     2    72   76   77   78
H 855.01327981 -72.36946155 65.43646533     6    75    0    0    0
H 854.70644149 -71.51944131 68.55875267     6    75    0    0    0
C 856.81962541 -74.92333141 67.84809016     2    75   79   80   81
H 856.83046501 -75.45884808 69.75052523     6    78    0    0    0
H 856.67001291 -76.64523930 66.76415183     6    78    0    0    0
C 859.49747236 -73.62541390 67.61126727     2    78   82   83   84
H 859.85473601 -73.49038321 65.66336284     6    81    0    0    0
H 859.22450610 -71.58838522 68.09557029     6    81    0    0    0
C 861.65457244 -75.13267395 68.85117319     1    81   85   86   87
H 863.40298173 -74.16877763 68.76533165     6    84    0    0    0
H 861.90873597 -76.99953219 68.04984306     6    84    0    0    0
H 861.36714595 -75.28004100 70.95578598     6    84    0    0    0
H 832.03499888 -60.25517383 81.97149609     6     89    0    0    0 
C 833.89680536 -60.51509007 81.06603176     1     88    90    91    92
H 833.51932957 -60.52920134 79.03113036     6     89    0    0    0
H 835.17802834 -59.01892418 81.47758368     6     89    0    0    0
C 834.86469493 -63.18838623 81.74942778     2     89    93    94    95
H 835.19490776 -63.11257605 83.83602931     6     92    0    0    0
H 833.74371390 -64.81727950 81.48608944     6     92    0    0    0
C 837.39550426 -63.84998801 80.67644704     2     92    96   97   98
H 837.31464522 -64.06083702 78.67606056     6     95    0    0    0
H 838.67618043 -62.21955835 80.62619363     6     95    0    0    0
C 838.56449724 -66.32692380 81.56359744     2     95   99   100   101
H 838.77944568 -66.34698395 83.69715609     6    98    0    0    0
H 837.15426038 -67.75897775 81.12846960     6    98    0    0    0
C 841.20998204 -66.68426833 80.41748701     2    98   102   103   104
H 841.16583950 -67.07210857 78.34303352     6    101    0    0    0
H 842.42129396 -65.07926417 80.74768072     6    101    0    0    0
C 842.51142826 -69.02192093 81.71758418     2    101   105   106   107
H 841.14984235 -70.46446763 81.42295446     6    104    0    0    0
H 844.16871956 -69.41165168 80.64970048     6    104    0    0    0
C 843.38760042 -68.68871730 84.42777966     2    104   108   109   110
H 844.72616488 -67.22983154 84.47087863     6    107    0    0    0
H 841.75490219 -68.49327472 85.77798496     6    107    0    0    0
C 844.60911438 -71.10394862 85.17758792     2    107   111   112   113
H 843.59318417 -72.88640632 84.85790307     6    110    0    0    0
H 846.44714768 -71.36005530 84.18343631     6    110    0    0    0
C 845.44775905 -70.87937798 87.93850283     2    110   114   115   116
H 846.59460633 -69.23301910 88.02641008     6    113    0    0    0
H 843.92767936 -70.83100895 89.15468635     6    113    0    0    0
C 846.98812417 -73.12433744 88.98156149     2    113   117   118   119
H 846.29335498 -74.96072390 88.13984681     6    116    0    0    0
H 848.91007868 -72.80298526 88.25366981     6    116    0    0    0
C 846.97773534 -73.28559709 91.78614317     2    116   120   121   122
H 848.73882572 -74.33880815 92.30643450     6    119    0    0    0
H 847.27108533 -71.43982830 92.54833223     6    119    0    0    0
C 844.67924918 -74.58657854 93.00275425     1    119   123   124   125
H 845.14038069 -75.04512443 95.00493740     6    122    0    0    0
H 844.51896495 -76.51497202 92.16988996     6    122    0    0    0
H 842.97275089 -73.51874596 93.20395196     6    122    0    0    0
H 830.43032073 -47.12734181 75.51736199     6     127    0    0    0 
C 829.93376608 -46.62423386 73.45860588     1     126    128    129    130
H 828.47077795 -45.27047593 73.67191090     6     127    0    0    0
H 831.45162481 -45.68073427 72.46262338     6     127    0    0    0
C 829.04798063 -48.96679675 71.76697935     2     127    131    132    133
H 830.43155666 -50.48516246 71.99185285     6     130    0    0    0
H 827.36489460 -49.70436924 72.73418227     6     130    0    0    0
C 828.64443071 -48.26171450 68.89589485     2     130    134   135   136
H 827.40597375 -46.67149625 68.82840254     6     133    0    0    0
H 830.49529951 -47.58807944 68.12054245     6     133    0    0    0
C 828.18593798 -50.58033083 67.30965160     2     133   137   138   139
H 829.36543034 -52.08423013 67.85043954     6    136    0    0    0
H 826.23962765 -51.25910815 67.69904272     6    136    0    0    0
C 828.67510713 -50.16337061 64.50413125     2    136   140   141   142
H 827.68356647 -48.46360233 63.98873300     6    139    0    0    0
H 830.69480504 -49.74031377 64.21979207     6    139    0    0    0
C 828.06295389 -52.42819014 62.77159199     2    139   143   144   145
H 829.13011682 -54.24701177 63.01824864     6    142    0    0    0
H 826.00922847 -52.90023298 62.80827255     6    142    0    0    0
C 828.57661093 -51.56418238 59.98056054     2    142   146   147   148
H 828.30290078 -49.56859841 59.50906709     6    145    0    0    0
H 830.62254734 -51.61270880 59.80647647     6    145    0    0    0
C 827.33453585 -53.26316605 58.02517750     2    145   149   150   151
H 828.54618512 -54.90250199 57.94523768     6    148    0    0    0
H 825.52645257 -54.12741838 58.52926367     6    148    0    0    0
C 826.73836718 -52.22726957 55.42112492     2    148   152   153   154
H 825.20994324 -50.84390568 55.52924763     6    151    0    0    0
H 828.35619632 -51.40341945 54.75545482     6    151    0    0    0
C 826.17409174 -54.38572793 53.40344620     2    151   155   156   157
H 826.13196650 -53.37217708 51.60299706     6    154    0    0    0
H 827.90848364 -55.53826299 53.11010089     6    154    0    0    0
C 823.63330191 -55.82670865 53.70189333     2    154   158   159   160
H 824.13815424 -57.50147079 54.75804585     6    157    0    0    0
H 822.53758066 -54.53944920 54.74816299     6    157    0    0    0
C 822.32394914 -56.53294106 51.20976509     1    157   161   162   163
H 820.78431978 -57.61775114 51.87483145     6    160    0    0    0
H 823.54445021 -57.72141125 50.11145677     6    160    0    0    0
H 821.83146725 -54.74805067 50.36266018     6    160    0    0    0
H 840.18852295 -47.09097268 85.32680703     6     165    0    0    0 
C 839.36351329 -47.16364971 83.40712407     1     164    166    167    168
H 840.38162188 -48.38738185 82.21600661     6     165    0    0    0
H 837.40438381 -47.98382309 83.41477853     6     165    0    0    0
C 839.08745792 -44.57752747 82.08129470     2     165    169    170    171
H 838.10550164 -43.42678486 83.39432125     6     168    0    0    0
H 841.06244711 -43.82239782 82.03821373     6     168    0    0    0
C 837.62217675 -44.52789553 79.44976016     2     168    172   173   174
H 838.68779057 -45.50849111 77.96999612     6     171    0    0    0
H 835.88640188 -45.60173552 79.71820852     6     171    0    0    0
C 836.82153407 -41.85628599 78.64048052     2     171   175   176   177
H 835.28665973 -41.28821864 79.87554867     6    174    0    0    0
H 838.42838472 -40.60910418 79.09876065     6    174    0    0    0
C 836.50154981 -41.40428591 75.82902732     2    174   178   179   180
H 838.04799874 -41.92422219 74.62395098     6    177    0    0    0
H 835.02310267 -42.69760224 74.92969110     6    177    0    0    0
C 835.61293540 -38.62723842 75.28000239     2    177   181   182   183
H 833.90495976 -38.30285703 76.28204292     6    180    0    0    0
H 836.85348833 -37.24499638 76.21084915     6    180    0    0    0
C 835.86170816 -38.08288044 72.42011496     2    180   184   185   186
H 837.82443173 -38.29165137 71.79705532     6    183    0    0    0
H 834.96303419 -39.57809914 71.32890691     6    183    0    0    0
C 834.82625550 -35.40610416 71.82975737     2    183   187   188   189
H 833.00693449 -35.02995609 72.67506705     6    186    0    0    0
H 835.93354836 -33.85702242 72.73026906     6    186    0    0    0
C 834.75744115 -34.89527730 68.86918989     2    186   190   191   192
H 836.81040429 -34.70778059 68.33449585     6    189    0    0    0
H 833.89328247 -36.67008979 68.19898945     6    189    0    0    0
C 833.37191583 -32.53136577 67.92308042     2    189   193   194   195
H 831.43741027 -32.67770597 68.51245462     6    192    0    0    0
H 834.11476408 -31.14609174 69.10348692     6    192    0    0    0
C 833.63629605 -32.11630076 65.05144491     2    192   196   197   198
H 835.64464395 -32.17802486 64.63496102     6    195    0    0    0
H 832.81837096 -33.78924155 63.99691359     6    195    0    0    0
C 832.43533959 -29.57800276 64.19518575     1    195   199   200   201
H 833.16988320 -29.57229014 62.30609604     6    198    0    0    0
H 832.91325378 -27.99309912 65.36020902     6    198    0    0    0
H 830.38588953 -29.69503946 64.30388993     6    198    0    0    0
H 851.33237838 -49.52491182 67.66527236     6     203    0    0    0 
C 850.63211271 -48.48596498 69.26627720     1     202    204    205    206
H 851.61147025 -46.81075056 68.96198499     6     203    0    0    0
H 848.55066365 -48.30269923 69.30863771     6     203    0    0    0
C 851.65629243 -49.83675998 71.64656465     2     203    207    208    209
H 850.90458984 -49.00375446 73.37474574     6     206    0    0    0
H 850.76716673 -51.59422501 71.63239376     6     206    0    0    0
C 854.60941599 -50.31574965 71.53555725     2     206    210   211   212
H 855.28412623 -51.72970065 72.94984067     6     209    0    0    0
H 855.12193073 -51.10080905 69.63826085     6     209    0    0    0
C 856.16953806 -47.91820173 71.55829172     2     209   213   214   215
H 856.16851272 -47.05242675 69.64085201     6    212    0    0    0
H 855.18196177 -46.69486099 72.80566117     6    212    0    0    0
C 858.90935892 -48.23720050 72.49390317     2    212   216   217   218
H 858.65140995 -48.97059202 74.37812110     6    215    0    0    0
H 859.68260160 -49.84476949 71.50202717     6    215    0    0    0
C 860.75354567 -45.97190794 72.47879721     2    215   219   220   221
H 860.93462664 -45.42758557 70.51560344     6    218    0    0    0
H 860.05673951 -44.25293671 73.43687359     6    218    0    0    0
C 863.42674333 -46.67093508 73.29063093     2    218   222   223   224
H 863.27472596 -47.28356056 75.22461948     6    221    0    0    0
H 864.36359941 -48.28857979 72.51988034     6    221    0    0    0
C 865.36880216 -44.47693138 73.05809467     2    221   225   226   227
H 865.31768614 -43.57150249 71.13325128     6    224    0    0    0
H 865.01561269 -43.16528459 74.51223246     6    224    0    0    0
C 867.95314693 -45.30243868 73.46232826     2    224   228   229   230
H 867.80743058 -46.33248283 75.23136507     6    227    0    0    0
H 868.44904984 -46.51178527 71.90147559     6    227    0    0    0
C 869.93443568 -43.12595614 73.54560744     2    227   231   232   233
H 869.03002387 -41.60927438 72.57643828     6    230    0    0    0
H 870.22695329 -42.54038574 75.39751024     6    230    0    0    0
C 872.39883306 -43.93379560 72.29090353     2    230   234   235   236
H 873.32239460 -44.88465795 73.91699243     6    233    0    0    0
H 872.13931040 -45.27188237 70.80611953     6    233    0    0    0
C 873.83839196 -41.60048214 71.37475899     1    233   237   238   239
H 875.67890734 -42.13999788 70.80822760     6    236    0    0    0
H 874.05080463 -40.40959785 73.02322986     6    236    0    0    0
H 873.08960168 -40.54962371 69.79603107     6    236    0    0    0
H 856.56410073 -78.03744355 73.93068803     6     241    0    0    0 
C 854.93729016 -77.38624926 75.09341369     1     240    242    243    244
H 855.69284512 -76.17502921 76.46350356     6     241    0    0    0
H 853.70692886 -76.29432623 73.82230246     6     241    0    0    0
C 853.26660348 -79.48926080 76.36344353     2     241    245    246    247
H 854.33173587 -80.82430173 77.42350425     6     244    0    0    0
H 852.39272747 -78.61736906 77.83859816     6     244    0    0    0
C 851.45710319 -80.94710162 74.58001662     2     244    248   249   250
H 850.18932702 -82.17888785 75.69236754     6     247    0    0    0
H 850.32797966 -79.58263881 73.49181269     6     247    0    0    0
C 852.71214749 -82.79902789 72.68088451     2     247   251   252   253
H 851.14701820 -84.01785040 71.85386218     6    250    0    0    0
H 853.68495075 -81.89620290 71.15121831     6    250    0    0    0
C 854.57715466 -84.41791104 73.98158688     2    250   254   255   256
H 856.05239967 -83.06809831 74.39592978     6    253    0    0    0
H 853.66781632 -85.15137459 75.71035103     6    253    0    0    0
C 855.64460834 -86.66786922 72.35410711     2    253   257   258   259
H 856.62869632 -87.81522018 73.71160597     6    256    0    0    0
H 854.15827491 -87.84606950 71.63278448     6    256    0    0    0
C 857.48996952 -85.95725518 70.35418136     2    256   260   261   262
H 856.55585462 -84.92945498 69.06397416     6    259    0    0    0
H 859.04805456 -84.73372390 70.94672963     6    259    0    0    0
C 858.98868438 -88.11911307 69.03667393     2    259   263   264   265
H 860.15206048 -89.34114840 70.32701104     6    262    0    0    0
H 857.56637001 -89.36232817 68.08385798     6    262    0    0    0
C 860.86184504 -86.95884153 67.13656705     2    262   266   267   268
H 860.01254454 -85.48850642 66.04743098     6    265    0    0    0
H 862.48553602 -86.00611321 68.18042052     6    265    0    0    0
C 861.88562188 -89.01511766 65.42620979     2    265   269   270   271
H 863.27238656 -90.07693697 66.58916357     6    268    0    0    0
H 860.30506068 -90.18195147 64.83233482     6    268    0    0    0
C 863.22701530 -88.12763304 62.99446265     2    268   272   273   274
H 862.15939833 -86.42052806 62.24576082     6    271    0    0    0
H 865.09932770 -87.38758180 63.36072106     6    271    0    0    0
C 863.65659048 -90.19946771 61.06445588     1    271   275   276   277
H 864.67468136 -91.73461493 62.00304919     6    274    0    0    0
H 864.85761681 -89.51988557 59.49948879     6    274    0    0    0
H 861.95306290 -91.09974320 60.37017585     6    274    0    0    0
H 847.56497595 -54.75144203 80.18356888     6     279    0    0    0 
C 848.96950081 -56.19606405 80.37730189     1     278    280    281    282
H 849.81503386 -55.72963789 82.17535948     6     279    0    0    0
H 847.93149057 -58.02081919 80.39920527     6     279    0    0    0
C 850.92661994 -56.01326742 78.11545573     2     279    283    284    285
H 849.97275622 -56.05119844 76.25616410     6     282    0    0    0
H 851.98781769 -54.33404912 78.40895621     6     282    0    0    0
C 852.96808209 -57.98599108 78.22682508     2     282    286   287   288
H 853.81943747 -57.72546200 80.02840734     6     285    0    0    0
H 851.99070298 -59.77449189 78.24348134     6     285    0    0    0
C 854.97465201 -58.14510503 76.32933710     2     285   289   290   291
H 854.30206022 -58.75012110 74.41329151     6    288    0    0    0
H 855.78974183 -56.25102488 75.89463829     6    288    0    0    0
C 857.42734932 -59.45351221 77.28623880     2    288   292   293   294
H 858.00712753 -58.60980186 79.17494170     6    291    0    0    0
H 857.04570415 -61.35348418 77.81105210     6    291    0    0    0
C 859.60107881 -59.44116217 75.25945542     2    291   295   296   297
H 859.37336358 -60.37860161 73.49012693     6    294    0    0    0
H 860.16356482 -57.41850533 74.99375450     6    294    0    0    0
C 862.17880903 -60.44511870 76.26997530     2    294   298   299   300
H 863.01178240 -59.56098857 77.91035892     6    297    0    0    0
H 861.77468558 -62.41550525 76.99557564     6    297    0    0    0
C 864.17719356 -60.73950740 74.26200215     2    297   301   302   303
H 863.68049684 -62.21532331 72.83734979     6    300    0    0    0
H 864.30605465 -58.93000197 73.24324355     6    300    0    0    0
C 866.79834086 -61.41457536 75.22783974     2    300   304   305   306
H 867.74532441 -60.20283431 76.48846675     6    303    0    0    0
H 866.86560616 -63.21161372 76.34873187     6    303    0    0    0
C 868.50918207 -61.56032874 72.90798253     2    303   307   308   309
H 867.70156696 -62.97861488 71.54491632     6    306    0    0    0
H 868.56967539 -59.86963469 71.92042615     6    306    0    0    0
C 871.05819469 -62.60561281 73.31697364     2    306   310   311   312
H 871.86776304 -61.15500953 74.63149298     6    309    0    0    0
H 870.86007343 -64.47865475 74.20632414     6    309    0    0    0
C 872.47130786 -62.80488294 70.83829634     1    309   313   314   315
H 872.55830147 -60.91413609 70.06756766     6    312    0    0    0
H 871.38999995 -63.78931970 69.35994598     6    312    0    0    0
H 874.21734481 -63.88717478 70.94268062     6    312    0    0    0
H 831.60702590 -60.02762475 74.02717913     6     317    0    0    0 
C 833.49545627 -59.56551323 73.41400999     1     316    318    319    320
H 833.83586201 -57.65996632 74.06004946     6     317    0    0    0
H 834.50135816 -61.01866385 74.46108263     6     317    0    0    0
C 834.03958903 -59.87450638 70.63027744     2     317    321    322    323
H 835.57627768 -58.67755005 70.00240142     6     320    0    0    0
H 835.04760253 -61.75226546 70.50526658     6     320    0    0    0
C 831.67669844 -59.61240445 68.94783377     2     320    324   325   326
H 830.07585699 -60.47946743 69.89143211     6     323    0    0    0
H 831.39990618 -57.55200565 68.74732029     6     323    0    0    0
C 832.15500497 -60.62578349 66.39950004     2     323   327   328   329
H 833.79745649 -59.97444037 65.36267581     6    326    0    0    0
H 832.51278114 -62.62843094 66.59385066     6    326    0    0    0
C 829.74499472 -60.70172196 64.87971645     2    326   330   331   332
H 828.27067371 -61.27161427 66.01042842     6    329    0    0    0
H 829.27943458 -58.77774694 64.33561902     6    329    0    0    0
C 829.79962337 -62.42978820 62.55448941     2    329   333   334   335
H 829.92791358 -64.36595924 63.14812347     6    332    0    0    0
H 827.96748931 -62.21991742 61.69161558     6    332    0    0    0
C 831.41039203 -61.63095127 60.41860611     2    332   336   337   338
H 831.48703126 -59.51447075 60.15058768     6    335    0    0    0
H 833.33168562 -61.97126523 60.87678416     6    335    0    0    0
C 830.57077737 -62.99813098 57.95746333     2    335   339   340   341
H 832.16954250 -62.81586384 56.85870486     6    338    0    0    0
H 830.34302392 -65.06813826 58.34453150     6    338    0    0    0
C 828.22809620 -61.75049944 56.67673717     2    338   342   343   344
H 826.56656722 -61.78714706 57.84607028     6    341    0    0    0
H 828.50167594 -59.72185403 56.53528440     6    341    0    0    0
C 827.62766543 -62.68942212 53.99688530     2    341   345   346   347
H 826.10294880 -61.47645896 53.35852392     6    344    0    0    0
H 829.18627061 -62.45193999 52.67890153     6    344    0    0    0
C 826.80999060 -65.54730989 53.94652213     2    344   348   349   350
H 828.51564718 -66.79282160 53.64896167     6    347    0    0    0
H 825.74674800 -66.07695035 55.65497638     6    347    0    0    0
C 825.04307940 -66.28856780 51.67250028     1    347   351   352   353
H 824.64326689 -68.27970501 51.55543319     6    350    0    0    0
H 826.01920000 -65.97258992 49.85826689     6    350    0    0    0
H 823.32171012 -65.14825518 51.43035872     6    350    0    0    0
H 849.59302644 -72.84723805 77.61785088     6     355    0    0    0 
C 848.36986994 -71.37343011 76.98074037     1     354    356    357    358
H 846.41445662 -72.15036163 77.05967689     6     355    0    0    0
H 848.49978392 -69.74311779 78.40213319     6     355    0    0    0
C 848.87491958 -70.58231331 74.30396169     2     355    359    360    361
H 850.65315285 -69.48188806 74.14372374     6     358    0    0    0
H 848.92757418 -72.14745903 72.90728840     6     358    0    0    0
C 846.71373102 -68.79890149 73.53408647     2     358    362   363   364
H 846.70732597 -68.42212731 71.49589168     6     361    0    0    0
H 844.78472378 -69.55189559 73.97123545     6     361    0    0    0
C 847.05682566 -66.21805387 74.90004775     2     361   365   366   367
H 846.90922960 -66.68405087 76.95164869     6    364    0    0    0
H 848.93395695 -65.28235824 74.64239981     6    364    0    0    0
C 844.86801857 -64.35529174 74.23052526     2    364   368   369   370
H 844.66904456 -64.11548335 72.21882119     6    367    0    0    0
H 843.00496788 -65.15421296 74.38527364     6    367    0    0    0
C 844.86011904 -61.98844592 75.93531583     2    367   371   372   373
H 845.35808729 -62.26418722 77.91441969     6    370    0    0    0
H 846.60328763 -61.13847933 75.36258202     6    370    0    0    0
C 842.48945857 -60.38535289 75.48992077     2    370   374   375   376
H 842.51017488 -59.21834921 73.70704035     6    373    0    0    0
H 840.91417134 -61.72907177 75.16898710     6    373    0    0    0
C 841.98628249 -58.73031414 77.91190646     2    373   377   378   379
H 841.83553019 -60.11924214 79.40176632     6    376    0    0    0
H 843.50018249 -57.38018190 78.05624979     6    376    0    0    0
C 839.59890167 -57.27429996 77.72693880     2    376   380   381   382
H 838.12916268 -58.58738837 77.36914478     6    379    0    0    0
H 839.08912438 -56.16522638 79.46052474     6    379    0    0    0
C 839.96263596 -55.22691635 75.90613120     2    379   383   384   385
H 841.65588869 -54.22069407 76.38451614     6    382    0    0    0
H 840.24341626 -55.95991645 73.99349740     6    382    0    0    0
C 837.64529572 -53.46914487 75.43950622     2    382   386   387   388
H 837.89599222 -52.58428757 73.64729064     6    385    0    0    0
H 836.03777535 -54.75362974 75.04414273     6    385    0    0    0
C 837.01520767 -51.85579059 77.66743876     1    385   389   390   391
H 838.57488656 -50.93521444 78.66272241     6    388    0    0    0
H 836.19524442 -52.98734801 79.13109099     6    388    0    0    0
H 835.66523216 -50.38559500 77.04325456     6    388    0    0    0
H 828.29273481 -80.15157429 28.88239631     6     393    0    0    0 
C 830.38478084 -79.76332530 29.23677639     1     392    394    395    396
H 831.57654779 -81.33455281 28.45049353     6     393    0    0    0
H 830.64119135 -78.01538217 28.30122373     6     393    0    0    0
C 831.01360678 -79.49972136 31.97138036     2     393    397    398    399
H 829.87828338 -77.97168870 32.75325118     6     396    0    0    0
H 830.34158974 -81.29582217 32.78757849     6     396    0    0    0
C 833.85182424 -79.04502494 32.56195478     2     396    400   401   402
H 834.76405081 -80.81402684 31.90970510     6     399    0    0    0
H 834.54490469 -77.44936724 31.54284484     6     399    0    0    0
C 834.30911256 -78.77486548 35.49507811     2     399   403   404   405
H 832.97495636 -77.42253311 36.29957044     6    402    0    0    0
H 833.79508697 -80.47234458 36.44625438     6    402    0    0    0
C 837.11841929 -77.97289456 36.11331992     2    402   406   407   408
H 838.48736962 -78.79867647 34.72632044     6    405    0    0    0
H 837.20724201 -75.94976041 35.78794767     6    405    0    0    0
C 838.15662705 -78.47365451 38.73618164     2    405   409   410   411
H 837.19547130 -77.14940890 39.91087753     6    408    0    0    0
H 837.98845133 -80.35871468 39.49117214     6    408    0    0    0
C 840.96200538 -77.70940097 38.95220011     2    408   412   413   414
H 842.08685108 -78.61191877 37.42695663     6    411    0    0    0
H 841.33617955 -75.63969312 38.64389209     6    411    0    0    0
C 842.00437211 -78.49687313 41.45280024     2    411   415   416   417
H 841.10245606 -77.61950231 43.00793452     6    414    0    0    0
H 841.92229509 -80.47275097 41.71768435     6    414    0    0    0
C 844.76523959 -77.95565111 41.46737044     2    414   418   419   420
H 845.79141966 -78.91030119 39.82819151     6    417    0    0    0
H 844.85021310 -75.85062566 41.11055336     6    417    0    0    0
C 846.07197030 -78.50484053 43.97890672     2    417   421   422   423
H 845.16832908 -77.40505474 45.46166565     6    420    0    0    0
H 845.67749453 -80.47796273 44.29914998     6    420    0    0    0
C 848.95081273 -77.68811649 43.98849316     2    420   424   425   426
H 849.80332473 -78.37458697 45.74751547     6    423    0    0    0
H 849.97525290 -78.92765254 42.67495675     6    423    0    0    0
C 849.71690876 -74.89145699 43.62851889     1    423   427   428   429
H 851.78338348 -74.51151854 43.27509962     6    426    0    0    0
H 849.50772752 -73.57985027 45.20658766     6    426    0    0    0
H 848.75003973 -74.15193137 41.88240963     6    426    0    0    0
H 839.24653978 -85.89851662 58.97448150     6     431    0    0    0 
C 839.53513679 -87.14548204 57.37150122     1     430    432    433    434
H 840.93994976 -86.15037281 56.33720543     6     431    0    0    0
H 840.36534245 -88.90942054 58.11275325     6     431    0    0    0
C 836.96120645 -87.42721930 56.14032112     2     431    435    436    437
H 835.58256901 -88.08826418 57.43187576     6     434    0    0    0
H 836.40671012 -85.53469935 55.66327250     6     434    0    0    0
C 836.78461783 -88.95291425 53.75415287     2     434    438   439   440
H 838.36736974 -88.66605016 52.57982829     6     437    0    0    0
H 836.73567514 -90.93552432 54.44879641     6     437    0    0    0
C 834.33421176 -88.49152877 52.16803183     2     437   441   442   443
H 834.23100631 -90.24260119 50.96910540     6    440    0    0    0
H 832.82452740 -88.60973572 53.53794705     6    440    0    0    0
C 834.02719867 -85.98141324 50.58884040     2    440   444   445   446
H 833.54858894 -84.70385845 52.05815558     6    443    0    0    0
H 835.76655594 -85.44480378 49.66104933     6    443    0    0    0
C 831.91794735 -85.76258154 48.78792622     2    443   447   448   449
H 830.17842217 -86.54631523 49.47593702     6    446    0    0    0
H 831.54124169 -83.65491445 48.21910454     6    446    0    0    0
C 832.54328736 -87.10463871 46.33769671     2    446   450   451   452
H 834.42688278 -86.65707527 45.65505251     6    449    0    0    0
H 832.50823580 -88.92165006 47.12641470     6    449    0    0    0
C 830.63353616 -87.04860481 43.99567789     2    449   453   454   455
H 831.44331990 -88.27305154 42.70333662     6    452    0    0    0
H 828.83049404 -87.83201491 44.38430995     6    452    0    0    0
C 830.15832553 -84.44986282 42.74602344     2    452   456   457   458
H 829.43979944 -83.04429254 44.01864068     6    455    0    0    0
H 831.97456667 -83.75330396 42.00613083     6    455    0    0    0
C 828.01273787 -84.77958967 40.72473544     2    455   459   460   461
H 828.51271272 -86.40226164 39.48968793     6    458    0    0    0
H 826.35330079 -85.04004143 41.79775247     6    458    0    0    0
C 827.70719932 -82.47679427 38.94324769     2    458   462   463   464
H 827.48493193 -80.66442428 39.92012991     6    461    0    0    0
H 829.23956243 -82.16984376 37.75050227     6    461    0    0    0
C 825.57309578 -82.75878723 36.99662374     1    461   465   466   467
H 823.69143015 -82.96140862 37.46894446     6    464    0    0    0
H 825.95059585 -84.35352261 35.83393154     6    464    0    0    0
H 825.60115862 -81.11591299 35.80509071     6    464    0    0    0
H 835.88502496 -54.99555242 85.97426104     6     469    0    0    0 
C 837.37677646 -53.67417932 86.65376662     1     468    470    471    472
H 838.03663865 -52.46594001 85.10455131     6     469    0    0    0
H 836.58712454 -52.50632189 88.18877150     6     469    0    0    0
C 839.47209780 -55.40944967 87.65454938     2     469    473    474    475
H 840.78572450 -54.37650709 88.74379347     6     472    0    0    0
H 838.62780989 -56.82926402 89.01148465     6     472    0    0    0
C 841.00825512 -56.76953539 85.55067339     2     472    476   477   478
H 839.79632492 -57.30627230 84.03068919     6     475    0    0    0
H 842.31716534 -55.47806455 84.52528625     6     475    0    0    0
C 842.64284105 -58.99420557 86.58923090     2     475   479   480   481
H 843.83979840 -58.35109133 88.15718397     6    478    0    0    0
H 841.29469870 -60.51024677 87.22795850     6    478    0    0    0
C 844.31258175 -60.23960817 84.56899227     2    478   482   483   484
H 843.03693313 -61.41907180 83.50141423     6    481    0    0    0
H 844.85516384 -58.95526759 83.20459339     6    481    0    0    0
C 846.61726444 -61.76802244 85.67467943     2    481   485   486   487
H 847.77148555 -60.53903710 86.95948040     6    484    0    0    0
H 845.67239950 -63.20820576 86.82667509     6    484    0    0    0
C 848.25364440 -62.99963656 83.61663572     2    484   488   489   490
H 847.02570682 -64.05849569 82.28712548     6    487    0    0    0
H 849.28813484 -61.63059068 82.59575310     6    487    0    0    0
C 850.26650531 -64.85695375 84.42904767     2    487   491   492   493
H 851.63965283 -63.67199874 85.57230930     6    490    0    0    0
H 849.49354071 -66.39410736 85.53874165     6    490    0    0    0
C 851.66196625 -66.22216207 82.29993655     2    490   494   495   496
H 850.06292911 -66.74262349 81.02503073     6    493    0    0    0
H 852.84773079 -64.81699761 81.27688816     6    493    0    0    0
C 853.11313005 -68.53989007 83.40370077     2    493   497   498   499
H 854.01458791 -67.71607286 85.06743463     6    496    0    0    0
H 851.76368210 -70.02647528 84.01621751     6    496    0    0    0
C 855.12306457 -69.90843725 81.91919808     2    496   500   501   502
H 854.39431433 -70.95088709 80.25329499     6    499    0    0    0
H 856.50273838 -68.57529537 81.19919434     6    499    0    0    0
C 856.29902548 -72.12405673 83.23025312     1    499   503   504   505
H 857.56566681 -73.48198805 82.21001133     6    502    0    0    0
H 854.67198048 -73.32072678 83.68204675     6    502    0    0    0
H 857.22077684 -71.51953522 84.85884861     6    502    0    0    0
H 863.57906527 -96.63185207 53.93154230     6     507    0    0    0 
C 863.07190640 -94.79907531 53.24574213     1     506    508    509    510
H 864.72020434 -93.66170216 53.83949919     6     507    0    0    0
H 862.98118963 -94.75607275 51.19936742     6     507    0    0    0
C 860.79729373 -93.87580724 54.74818969     2     507    511    512    513
H 859.15411155 -95.17037247 54.67102448     6     510    0    0    0
H 861.13388404 -93.80147658 56.84451428     6     510    0    0    0
C 859.86451192 -91.10907904 53.92073062     2     510    514   515   516
H 860.67222470 -89.58319731 55.08087464     6     513    0    0    0
H 860.30054793 -90.71164354 51.92424326     6     513    0    0    0
C 856.93135296 -90.86565397 54.18894688     2     513   517   518   519
H 856.06407094 -92.34063615 53.06703812     6    516    0    0    0
H 856.43873795 -91.56210620 56.02139510     6    516    0    0    0
C 855.62968596 -88.33152395 53.43089602     2    516   520   521   522
H 855.97877430 -86.86735939 54.88096644     6    519    0    0    0
H 856.62317417 -87.52035618 51.80923519     6    519    0    0    0
C 852.80786390 -88.40820309 53.15329243     2    519   523   524   525
H 851.73967538 -89.47022514 54.59413186     6    522    0    0    0
H 852.17797370 -86.53515118 53.47681001     6    522    0    0    0
C 851.71497140 -89.00099699 50.41352460     2    522   526   527   528
H 852.76366221 -87.88597791 49.12152199     6    525    0    0    0
H 852.16975611 -90.90985778 49.85689344     6    525    0    0    0
C 848.75120975 -88.54832454 50.31330611     2    525   529   530   531
H 847.65062119 -89.62118622 51.79451431     6    528    0    0    0
H 848.38883332 -86.61469925 50.64545696     6    528    0    0    0
C 847.61407838 -89.33520117 47.57733315     2    528   532   533   534
H 848.97697812 -89.28229965 46.04148232     6    531    0    0    0
H 847.11966865 -91.32818332 47.55548839     6    531    0    0    0
C 845.08152060 -88.03348743 47.07191701     2    531   535   536   537
H 843.69422367 -88.53011880 48.51466348     6    534    0    0    0
H 845.44213220 -86.00877560 47.31447773     6    534    0    0    0
C 843.98698569 -88.42127784 44.45053555     2    534   538   539   540
H 845.37988741 -87.78026845 43.09254366     6    537    0    0    0
H 843.56947270 -90.35888777 44.02833219     6    537    0    0    0
C 841.57906796 -86.74505077 43.92313645     1    537   541   542   543
H 841.22212783 -86.96631657 42.04613220     6    540    0    0    0
H 842.34890054 -84.84104476 44.36639328     6    540    0    0    0
H 840.00983473 -87.17458993 45.12141089     6    540    0    0    0
H 832.96546886 -70.53062955 46.53547350     6     545    0    0    0 
C 832.71155894 -68.94478660 45.24442367     1     544    546    547    548
H 834.59372129 -68.27534826 45.16131270     6     545    0    0    0
H 831.88987155 -69.71880330 43.38736738     6     545    0    0    0
C 831.05919566 -66.84627893 46.53457113     2     545    549    550    551
H 829.17635794 -67.65797607 46.33699609     6     548    0    0    0
H 831.49482247 -66.87837043 48.43281125     6     548    0    0    0
C 831.38626531 -64.29875479 45.06549734     2     548    552   553   554
H 833.40259029 -63.82473770 44.56150366     6     551    0    0    0
H 830.60551168 -64.55837061 43.14762417     6     551    0    0    0
C 830.01800660 -62.07230047 46.37000902     2     551   555   556   557
H 827.94982906 -62.65703656 46.81744018     6    554    0    0    0
H 830.63184476 -61.69925624 48.31043785     6    554    0    0    0
C 830.30173399 -59.49726856 45.08014920     2    554   558   559   560
H 832.26969019 -58.95610049 45.11347027     6    557    0    0    0
H 829.87964024 -59.96146898 43.18538224     6    557    0    0    0
C 828.43358603 -57.50667028 46.08539882     2    557   561   562   563
H 826.52920068 -58.28697382 46.20066714     6    560    0    0    0
H 828.96308664 -57.11773645 47.93648400     6    560    0    0    0
C 828.15431653 -55.06009060 44.44511971     2    560   564   565   566
H 830.04225637 -54.28956069 43.99451009     6    563    0    0    0
H 827.20738183 -55.59138600 42.64056786     6    563    0    0    0
C 826.78322135 -52.92225202 45.66247065     2    563   567   568   569
H 825.30290078 -53.39468494 47.03765748     6    566    0    0    0
H 828.38813563 -52.27744850 46.96004841     6    566    0    0    0
C 825.89094998 -50.69555657 43.94474690     2    566   570   571   572
H 824.38060245 -51.48374489 42.79401320     6    569    0    0    0
H 825.27548445 -49.21940186 45.14835378     6    569    0    0    0
C 828.01633098 -49.41595901 42.40847373     2    569   573   574   575
H 828.94369085 -48.13223534 43.74853166     6    572    0    0    0
H 829.48296824 -50.65248288 41.81862639     6    572    0    0    0
C 827.04415539 -47.59442356 40.42481697     2    572   576   577   578
H 825.73432189 -46.13784831 41.13999779     6    575    0    0    0
H 828.56324477 -46.42072207 39.95141244     6    575    0    0    0
C 826.04431655 -48.83529186 38.04906451     1    575   579   580   581
H 824.22616810 -49.87698364 38.23044443     6    578    0    0    0
H 827.45371565 -49.98136493 37.18620426     6    578    0    0    0
H 825.72101079 -47.31726730 36.73974053     6    578    0    0    0
H 845.39233460 -50.62541838 77.38952450     6     583    0    0    0 
C 845.09746378 -48.99768441 76.10641366     1     582    584    585    586
H 844.96423480 -47.46635563 77.42283199     6     583    0    0    0
H 846.83907589 -49.00697670 74.99447160     6     583    0    0    0
C 842.62975072 -49.38188110 74.64886875     2     583    587    588    589
H 842.64195209 -51.14345603 73.55185343     6     586    0    0    0
H 841.15961466 -49.63245344 76.02631986     6     586    0    0    0
C 841.97147256 -47.16538849 73.00457338     2     586    590   591   592
H 842.08905656 -45.62352739 74.26619970     6     589    0    0    0
H 843.52933014 -46.86832398 71.88879092     6     589    0    0    0
C 839.56646287 -47.27616042 71.50335989     2     589   593   594   595
H 839.29498606 -49.02073807 70.47154168     6    592    0    0    0
H 837.95944001 -47.34755050 72.75804269     6    592    0    0    0
C 839.04233067 -44.92892905 69.86194353     2    592   596   597   598
H 838.40664380 -43.19257904 70.85305518     6    595    0    0    0
H 840.92784358 -44.34925029 69.23245926     6    595    0    0    0
C 837.10233064 -45.44234374 67.86034026     2    595   599   600   601
H 837.74453667 -47.29707826 66.81910027     6    598    0    0    0
H 835.31092082 -45.92683498 68.74670718     6    598    0    0    0
C 836.85412431 -43.12553564 66.00017170     2    598   602   603   604
H 836.86443919 -41.33476498 67.04379229     6    601    0    0    0
H 838.51737732 -43.03259057 64.84297060     6    601    0    0    0
C 834.35734760 -43.35013071 64.38693837     2    601   605   606   607
H 834.26114590 -45.09047664 63.26641172     6    604    0    0    0
H 832.63607335 -43.60187113 65.56598274     6    604    0    0    0
C 833.88160896 -40.99617098 62.82153628     2    604   608   609   610
H 833.63745679 -39.28979073 63.99590282     6    607    0    0    0
H 835.53825674 -40.70087711 61.69718799     6    607    0    0    0
C 831.71215899 -41.25662342 60.87828392     2    607   611   612   613
H 832.01937739 -43.09233130 60.01704105     6    610    0    0    0
H 829.78477032 -41.34903403 61.76110948     6    610    0    0    0
C 831.80738200 -39.31537916 58.71071934     2    610   614   615   616
H 831.67161777 -37.34895342 59.47302365     6    613    0    0    0
H 833.29791912 -39.59127510 57.34074233     6    613    0    0    0
C 829.33217367 -39.70658096 57.21239881     1    613   617   618   619
H 829.01164822 -38.15076193 55.87377197     6    616    0    0    0
H 827.62787271 -39.81990769 58.38393764     6    616    0    0    0
H 829.49500421 -41.53630960 56.12392578     6    616    0    0    0
H 854.53703178 -61.69423740 45.88555369     6     621    0    0    0 
C 855.84372997 -63.50278041 45.73210125     1     620    622    623    624
H 855.74139399 -64.20407262 47.65907775     6     621    0    0    0
H 854.92977272 -64.90323473 44.52342266     6     621    0    0    0
C 858.70627276 -62.89365347 45.10667136     2     621    625    626    627
H 859.93079804 -64.47036426 45.21492062     6     624    0    0    0
H 858.91687756 -62.30657412 43.22613462     6     624    0    0    0
C 859.66311853 -60.79406199 47.05981295     2     624    628   629   630
H 858.20304626 -59.70103837 47.73732770     6     627    0    0    0
H 860.44019154 -61.65545036 48.59258281     6     627    0    0    0
C 861.67693698 -59.11177135 45.82371726     2     627   631   632   633
H 863.40315356 -60.12957414 45.40318470     6    630    0    0    0
H 860.86068709 -58.63319037 43.98920659     6    630    0    0    0
C 862.25110223 -56.92961531 47.72663867     2    630   634   635   636
H 860.64705548 -55.64985693 47.72034909     6    633    0    0    0
H 862.42712526 -57.38585201 49.79321001     6    633    0    0    0
C 864.68067702 -55.22788539 46.99130232     2    633   637   638   639
H 866.50266411 -56.19124570 47.41050971     6    636    0    0    0
H 864.49518141 -54.84660907 44.89433305     6    636    0    0    0
C 864.61524259 -52.63264387 48.34236752     2    636   640   641   642
H 862.92865099 -51.72891365 47.73270423     6    639    0    0    0
H 864.26549062 -52.99297503 50.35363170     6    639    0    0    0
C 867.02390989 -51.00739243 47.99035593     2    639   643   644   645
H 868.56627999 -51.91704172 48.88060161     6    642    0    0    0
H 867.61056389 -50.70766298 46.09062805     6    642    0    0    0
C 866.73463273 -48.49581028 49.40659732     2    642   646   647   648
H 865.14748298 -47.58660048 48.35916585     6    645    0    0    0
H 866.17394404 -48.92767736 51.38763834     6    645    0    0    0
C 869.08120366 -46.79181987 49.54856889     2    645   649   650   651
H 870.77538275 -47.79700522 49.98176932     6    648    0    0    0
H 869.49653362 -46.08133490 47.56815657     6    648    0    0    0
C 868.79969871 -44.83979899 51.76716426     2    648   652   653   654
H 866.82101292 -44.27604401 52.06992946     6    651    0    0    0
H 869.19774415 -45.66700339 53.62375415     6    651    0    0    0
C 870.42152043 -42.41009709 51.94227377     1    651   655   656   657
H 872.22009781 -43.14638108 52.56043218     6    654    0    0    0
H 869.80974823 -41.12711181 53.35919555     6    654    0    0    0
H 870.57428271 -41.37136648 50.21974970     6    654    0    0    0
H 848.41326333 -51.76927439 65.09853557     6     659    0    0    0 
C 846.51452886 -51.05519072 64.10524758     1     658    660    661    662
H 846.74579368 -50.77550197 62.10352642     6     659    0    0    0
H 845.41359544 -52.66349165 64.38732261     6     659    0    0    0
C 845.14373255 -48.69215053 65.11052505     2     659    663    664    665
H 844.01263350 -49.15404682 66.74141284     6     662    0    0    0
H 846.43342492 -47.26278624 65.81078475     6     662    0    0    0
C 843.35124168 -47.36586169 63.32071300     2     662    666   667   668
H 842.67047312 -45.71182305 64.29675125     6     665    0    0    0
H 844.44731811 -46.64725474 61.60762331     6     665    0    0    0
C 841.26638232 -49.15819449 62.51584045     2     665   669   670   671
H 841.92321191 -51.00524635 61.83500675     6    668    0    0    0
H 840.17319465 -49.61958356 64.09511605     6    668    0    0    0
C 839.79928466 -48.11562137 60.27276779     2    668   672   673   674
H 838.98864987 -46.58097278 61.16879871     6    671    0    0    0
H 841.15572270 -47.23751113 58.74587755     6    671    0    0    0
C 837.75761277 -49.87987505 59.32503517     2    671   675   676   677
H 838.64809627 -51.30094690 58.18185264     6    674    0    0    0
H 837.07657623 -50.63871056 61.11389602     6    674    0    0    0
C 835.71919027 -48.41533481 57.78380537     2    674   678   679   680
H 833.94459676 -49.33864069 57.74942534     6    677    0    0    0
H 835.22280399 -46.65993071 58.80779302     6    677    0    0    0
C 836.55654673 -47.68259123 55.17187206     2    677   681   682   683
H 838.44844081 -46.99537729 55.08494899     6    680    0    0    0
H 836.88323045 -49.36441673 53.95392855     6    680    0    0    0
C 834.64039984 -45.81852197 53.92019503     2    680   684   685   686
H 833.75751104 -44.73486910 55.45935525     6    683    0    0    0
H 835.43451351 -44.28307668 52.61354146     6    683    0    0    0
C 832.66461187 -47.28858336 52.37861263     2    683   687   688   689
H 833.57357633 -48.94805232 51.55121053     6    686    0    0    0
H 831.28281448 -47.96089075 53.68314101     6    686    0    0    0
C 831.20435129 -45.71027495 50.45375539     2    686   690   691   692
H 830.59866715 -43.92863073 51.37666961     6    689    0    0    0
H 832.55287712 -45.08739924 49.07327605     6    689    0    0    0
C 829.31027330 -47.24657658 48.93734282     1    689   693   694   695
H 828.52365439 -46.38738626 47.31431723     6    692    0    0    0
H 827.67981157 -47.74363817 50.04830660     6    692    0    0    0
H 830.28440562 -49.02794256 48.54253709     6    692    0    0    0
H 835.00396763 -61.06818630 35.02852333     6     697    0    0    0 
C 834.57663441 -62.92263630 34.37834949     1     696    698    699    700
H 834.76679070 -62.89691896 32.37545135     6     697    0    0    0
H 836.14236770 -64.28199595 35.04998232     6     697    0    0    0
C 831.87914411 -63.73746938 35.31760525     2     697    701    702    703
H 831.59906996 -63.00695254 37.19786966     6     700    0    0    0
H 830.40935527 -62.74926709 34.24776649     6     700    0    0    0
C 831.63677150 -66.65732903 35.28237383     2     700    704   705   706
H 832.11697161 -67.49993285 33.39886696     6     703    0    0    0
H 833.05196638 -67.52360937 36.45275565     6     703    0    0    0
C 829.07090594 -67.50560320 36.41868140     2     703   707   708   709
H 829.09536764 -66.97708687 38.38209996     6    706    0    0    0
H 827.47083534 -66.44110243 35.26691696     6    706    0    0    0
C 828.33989755 -70.31335844 36.16824092     2    706   710   711   712
H 828.85128709 -70.91683675 34.27805645     6    709    0    0    0
H 829.59494217 -71.40229286 37.43330638     6    709    0    0    0
C 825.54472518 -70.69542433 36.75801665     2    709   713   714   715
H 825.64468159 -70.11499719 38.71846068     6    712    0    0    0
H 824.30193297 -69.30492490 35.69708923     6    712    0    0    0
C 824.34393326 -73.37670428 37.10617299     2    712   716   717   718
H 824.41633861 -74.57032413 35.27583251     6    715    0    0    0
H 825.49735584 -74.63374360 38.24280944     6    715    0    0    0
C 821.66260699 -73.29750814 38.27518488     2    715   719   720   721
H 821.95965572 -72.75425984 40.24275991     6    718    0    0    0
H 820.27228611 -72.04795052 37.23347904     6    718    0    0    0
C 820.28757014 -75.84657049 38.48774815     2    718   722   723   724
H 819.72105542 -76.57026129 36.63539563     6    721    0    0    0
H 821.57257497 -77.15620547 39.27465932     6    721    0    0    0
C 818.03763368 -75.63355169 40.20547807     2    721   725   726   727
H 818.68395832 -75.09800913 42.04885381     6    724    0    0    0
H 816.72881608 -74.21074460 39.43207430     6    724    0    0    0
C 816.54330920 -78.01482722 40.13008941     2    724   728   729   730
H 815.29523343 -78.35698898 38.40281710     6    727    0    0    0
H 818.00941836 -79.50777983 39.76559511     6    727    0    0    0
C 815.02050610 -78.37522768 42.60115119     1    727   731   732   733
H 813.45461790 -79.79778360 42.47619675     6    730    0    0    0
H 813.92776065 -76.61495572 42.74178077     6    730    0    0    0
H 816.02084958 -78.53233142 44.41413373     6    730    0    0    0
H 822.07486945 -64.53640723 65.90824324     6     735    0    0    0 
C 823.76016808 -65.46545437 66.38303729     1     734    736    737    738
H 823.23714310 -67.44573614 66.46739947     6     735    0    0    0
H 825.26546966 -65.10077147 64.78742550     6     735    0    0    0
C 825.01669201 -64.58907857 68.92047150     2     735    739    740    741
H 825.78248639 -62.70562193 68.97510271     6     738    0    0    0
H 823.44966025 -64.80364381 70.39378458     6     738    0    0    0
C 827.33689060 -66.16586257 69.60694865     2     738    742   743   744
H 827.15262924 -68.16774423 68.94666134     6     741    0    0    0
H 829.06720398 -65.56820019 68.51117903     6     741    0    0    0
C 827.92572282 -66.18579602 72.45946104     2     741   745   746   747
H 827.72804504 -64.19745423 72.88041836     6    744    0    0    0
H 826.58954323 -67.30479084 73.51323971     6    744    0    0    0
C 830.63907570 -66.93249685 73.28101795     2    744   748   749   750
H 831.94493799 -66.54532225 71.69604845     6    747    0    0    0
H 831.24732378 -65.65161295 74.80610462     6    747    0    0    0
C 830.75056058 -69.68683664 74.23461869     2    747   751   752   753
H 830.13585802 -69.73021743 76.25531780     6    750    0    0    0
H 829.52190573 -70.98516477 73.24598696     6    750    0    0    0
C 833.67288564 -70.40727979 74.49077552     2    750   754   755   756
H 834.37415302 -70.56576296 72.45876118     6    753    0    0    0
H 834.64860692 -68.85000094 75.41614154     6    753    0    0    0
C 833.98126505 -72.72277249 75.99375651     2    753   757   758   759
H 833.17363622 -72.39639074 77.87076662     6    756    0    0    0
H 833.18594166 -74.26695676 75.06990640     6    756    0    0    0
C 836.73330908 -73.20811508 76.11358574     2    756   760   761   762
H 837.51121457 -73.57498590 74.24768713     6    759    0    0    0
H 837.53301563 -71.35980557 76.53451403     6    759    0    0    0
C 837.45284142 -75.28989821 78.01221541     2    759   763   764   765
H 836.38987726 -74.96805286 79.83657777     6    762    0    0    0
H 836.75285175 -77.16355986 77.31808418     6    762    0    0    0
C 840.27077158 -75.65780977 78.36143366     2    762   766   767   768
H 841.03454071 -75.67827851 76.48193142     6    765    0    0    0
H 841.20141320 -74.06633471 79.19459074     6    765    0    0    0
C 841.11846924 -78.12208292 79.79960301     1    765   769   770   771
H 839.61464835 -78.43863650 81.17245856     6    768    0    0    0
H 842.96329986 -77.57373370 80.68312951     6    768    0    0    0
H 841.39225408 -79.89816982 78.74816128     6    768    0    0    0
H 872.29099806 -64.63074025 45.80474571     6     773    0    0    0 
C 871.34885282 -65.85510715 47.22504578     1     772    774    775    776
H 872.50773218 -67.37358813 47.43434499     6     773    0    0    0
H 871.24515169 -64.86848139 49.09679800     6     773    0    0    0
C 868.73475440 -66.52540612 46.23803905     2     773    777    778    779
H 868.16953376 -68.14500882 47.31937011     6     776    0    0    0
H 867.47810530 -64.91135133 46.63464827     6     776    0    0    0
C 868.67377438 -67.07125391 43.46860394     2     776    780   781   782
H 868.77506607 -65.17614964 42.49997069     6     779    0    0    0
H 870.29754567 -68.11462457 42.93421305     6     779    0    0    0
C 866.06784536 -68.31535871 42.97359286     2     779   783   784   785
H 865.98942594 -70.02907202 43.98950869     6    782    0    0    0
H 864.52941189 -67.11723573 43.67823508     6    782    0    0    0
C 865.52966231 -68.88144529 40.22200484     2    782   786   787   788
H 865.08331770 -67.04663016 39.21273911     6    785    0    0    0
H 867.17342260 -69.52129050 39.22731804     6    785    0    0    0
C 863.07389102 -70.53336713 39.81562661     2    785   789   790   791
H 863.40945514 -72.50081037 40.38434096     6    788    0    0    0
H 861.53858615 -69.71236701 40.84631589     6    788    0    0    0
C 862.65770608 -70.67904567 36.87934523     2    788   792   793   794
H 862.16444264 -68.72497514 36.29411725     6    791    0    0    0
H 864.45773411 -71.36785618 36.10537250     6    791    0    0    0
C 860.37876598 -72.39466209 35.85848811     2    791   795   796   797
H 860.66283989 -74.30162400 36.58554039     6    794    0    0    0
H 858.63267144 -71.58507831 36.65257027     6    794    0    0    0
C 860.30095201 -73.01587403 33.02934968     2    794   798   799   800
H 860.53321427 -71.41170483 31.62373870     6    797    0    0    0
H 862.05385042 -74.17620545 32.77963357     6    797    0    0    0
C 858.05970989 -74.79080107 32.35127748     2    797   801   802   803
H 858.30710985 -76.64118408 33.38315187     6    800    0    0    0
H 856.29114008 -74.04310060 33.20134221     6    800    0    0    0
C 857.83355469 -75.42120585 29.52710488     2    800   804   805   806
H 857.52884926 -73.79413621 28.40850964     6    803    0    0    0
H 859.75547236 -75.77056934 28.99957984     6    803    0    0    0
C 856.03186960 -77.77529262 28.99108617     1    803   807   808   809
H 854.13948282 -77.30065499 29.55275076     6    806    0    0    0
H 856.50781352 -79.44929853 30.01886956     6    806    0    0    0
H 855.96633159 -78.27607928 27.02515490     6    806    0    0    0
H 845.25777799 -56.09190933 69.68878009     6     811    0    0    0 
C 846.88795972 -55.09006394 70.10830540     1     810    812    813    814
H 846.51102426 -53.29066422 69.20190240     6     811    0    0    0
H 846.85847734 -54.60914505 72.12793016     6     811    0    0    0
C 849.25124821 -56.45628554 69.21762864     2     811    815    816    817
H 848.92305083 -57.17104193 67.39589570     6     814    0    0    0
H 850.88753725 -55.25704090 69.06151757     6     814    0    0    0
C 849.87443679 -58.78562676 70.63064400     2     814    818   819   820
H 850.06545490 -58.15407956 72.56753742     6     817    0    0    0
H 848.09445209 -60.01504086 70.57276519     6     817    0    0    0
C 852.25538128 -60.03915661 69.54367418     2     817   821   822   823
H 852.11853245 -60.51618689 67.52467871     6    820    0    0    0
H 853.94612896 -58.72246556 69.63982521     6    820    0    0    0
C 852.90706547 -62.40753194 71.07652325     2    820   824   825   826
H 853.19790380 -62.12927640 73.05110561     6    823    0    0    0
H 851.27450444 -63.67595249 71.05265410     6    823    0    0    0
C 855.38249491 -63.93424051 70.19532014     2    823   827   828   829
H 855.04511567 -64.60763741 68.25753955     6    826    0    0    0
H 856.90885354 -62.52689736 69.70549570     6    826    0    0    0
C 856.36309134 -65.93799696 71.86454797     2    826   830   831   832
H 856.48962016 -65.34146811 73.79701630     6    829    0    0    0
H 855.15798806 -67.61214504 72.09083630     6    829    0    0    0
C 859.12192346 -66.45859234 71.13774921     2    829   833   834   835
H 859.17530918 -67.00653056 69.11714144     6    832    0    0    0
H 859.98195947 -64.64349880 71.36428589     6    832    0    0    0
C 860.47084159 -68.15896700 72.96158099     2    832   836   837   838
H 860.66167659 -67.27191168 74.72424374     6    835    0    0    0
H 859.28056609 -69.70332463 73.16071660     6    835    0    0    0
C 863.02850298 -68.67712034 71.93020741     2    835   839   840   841
H 862.99271688 -69.63922392 69.95364398     6    838    0    0    0
H 863.92756009 -66.86963746 71.72645579     6    838    0    0    0
C 864.47592894 -70.61219160 73.61920592     2    838   842   843   844
H 864.63775292 -69.61488772 75.45518602     6    841    0    0    0
H 863.28423183 -72.29140195 74.31161025     6    841    0    0    0
C 867.08362036 -71.17872061 72.60262125     1    841   845   846   847
H 867.88943772 -69.31680371 72.03305411     6    844    0    0    0
H 866.73740426 -72.16304611 70.86663854     6    844    0    0    0
H 868.28515203 -72.33205575 73.85108834     6    844    0    0    0
H 830.42575324 -31.18344764 48.74437764     6     849    0    0    0 
C 831.15996794 -31.95966970 47.05787732     1     848    850    851    852
H 829.57349101 -32.38954509 45.96887528     6     849    0    0    0
H 832.17903756 -30.54999426 45.98475328     6     849    0    0    0
C 832.36205209 -34.49739582 47.46951129     2     849    853    854    855
H 830.96603821 -35.70624020 48.52503973     6     852    0    0    0
H 832.58849043 -35.47468517 45.63346502     6     852    0    0    0
C 834.78980057 -34.22604100 49.04374712     2     852    856   857   858
H 836.18819832 -33.07168558 48.14090507     6     855    0    0    0
H 834.32365171 -33.45250986 50.95864060     6     855    0    0    0
C 836.23230709 -36.80727303 49.28820782     2     855   859   860   861
H 834.83380329 -38.27413404 49.86494696     6    858    0    0    0
H 836.79676324 -37.49226188 47.49331277     6    858    0    0    0
C 838.49780388 -36.56481881 51.09782937     2    858   862   863   864
H 839.74326708 -35.36640041 50.01259687     6    861    0    0    0
H 837.94207565 -35.35055210 52.58581062     6    861    0    0    0
C 839.43471108 -39.07699875 52.20517454     2    861   865   866   867
H 838.01276991 -40.40019138 52.51480885     6    864    0    0    0
H 840.42267105 -40.05955534 50.70186124     6    864    0    0    0
C 841.37182289 -38.98739973 54.48820682     2    864   868   869   870
H 843.07522784 -37.86542449 53.82530846     6    867    0    0    0
H 840.66656449 -37.54752895 55.87614024     6    867    0    0    0
C 841.81162917 -41.56971811 55.67744710     2    867   871   872   873
H 840.06673255 -42.40661826 56.31336095     6    870    0    0    0
H 842.76154055 -42.72281590 54.25243366     6    870    0    0    0
C 843.50903187 -41.46639473 58.03616786     2    870   874   875   876
H 844.41825520 -43.25669855 58.24093316     6    873    0    0    0
H 844.95494792 -40.04495382 57.71953508     6    873    0    0    0
C 841.97011857 -40.57231833 60.36159105     2    873   877   878   879
H 840.83354903 -38.85199567 59.86925760     6    876    0    0    0
H 840.51602895 -41.83653101 60.99840914     6    876    0    0    0
C 843.76336382 -40.03856823 62.60755701     2    876   880   881   882
H 844.59656708 -41.90742481 63.26614762     6    879    0    0    0
H 845.27162244 -38.74095092 62.16148181     6    879    0    0    0
C 842.67792323 -38.83786777 64.91309885     1    879   883   884   885
H 841.80775047 -40.28114555 66.12378310     6    882    0    0    0
H 841.42981332 -37.29801212 64.41949083     6    882    0    0    0
H 843.85748958 -37.60577143 66.20847168     6    882    0    0    0
H 855.85466600 -66.69300942 64.58318132     6     887    0    0    0 
C 855.96774159 -67.43170565 62.62791391     1     886    888    889    890
H 857.65757472 -66.61074527 61.73679662     6     887    0    0    0
H 856.37536660 -69.46326647 62.48315174     6     887    0    0    0
C 853.30729223 -67.14362696 61.42311652     2     887    891    892    893
H 853.34580917 -67.31924713 59.32076474     6     890    0    0    0
H 852.01741376 -68.80446391 62.02425742     6     890    0    0    0
C 852.25754861 -64.58515638 62.43261287     2     890    894   895   896
H 852.51176678 -64.56010027 64.49270387     6     893    0    0    0
H 853.14572084 -62.91883126 61.51339530     6     893    0    0    0
C 849.38114525 -64.19951285 61.83098588     2     893   897   898   899
H 848.93479443 -63.62792158 59.89539772     6    896    0    0    0
H 848.42977682 -66.07708485 61.72032754     6    896    0    0    0
C 848.14163093 -62.33263624 63.65048249     2    896   900   901   902
H 848.33669701 -63.07197662 65.51809772     6    899    0    0    0
H 849.33312768 -60.67565617 63.95119489     6    899    0    0    0
C 845.46903281 -61.46728847 62.96748249     2    899   903   904   905
H 845.18413379 -60.98250369 61.03701750     6    902    0    0    0
H 844.33755313 -63.13988527 63.19205334     6    902    0    0    0
C 844.62040236 -59.29148201 64.60544154     2    902   906   907   908
H 844.48977287 -59.90310127 66.46527948     6    905    0    0    0
H 845.74076276 -57.57093378 64.39628416     6    905    0    0    0
C 841.80319214 -58.50255567 63.96437224     2    905   909   910   911
H 841.59641583 -57.62451516 62.09133901     6    908    0    0    0
H 840.72992702 -60.20483021 64.00806305     6    908    0    0    0
C 840.81237231 -56.57889367 65.94879844     2    908   912   913   914
H 840.44745732 -57.47461600 67.66515216     6    911    0    0    0
H 842.30056750 -55.30475779 66.45522910     6    911    0    0    0
C 838.16209789 -55.18647780 65.59677827     2    911   915   916   917
H 838.17720972 -54.21129982 63.80805620     6    914    0    0    0
H 836.65517113 -56.64232853 65.22046076     6    914    0    0    0
C 837.47049525 -53.22929543 67.78421708     2    914   918   919   920
H 837.40419433 -54.34884884 69.55119263     6    917    0    0    0
H 838.95558826 -51.79738250 68.06392005     6    917    0    0    0
C 835.11278019 -51.84313505 67.12567345     1    917   921   922   923
H 833.65415979 -53.25514607 67.54335304     6    920    0    0    0
H 835.19817055 -51.20669394 65.22706916     6    920    0    0    0
H 834.86020792 -50.35538848 68.46898150     6    920    0    0    0
H 851.24861745 -42.37930085 54.97713680     6     925    0    0    0 
C 852.19954762 -44.13428310 54.50424529     1     924    926    927    928
H 852.25130272 -44.24447522 52.50293055     6     925    0    0    0
H 854.11311572 -43.60086701 55.09104894     6     925    0    0    0
C 850.92436647 -46.45504914 55.73560461     2     925    929    930    931
H 848.92126449 -46.74762050 55.21029893     6     928    0    0    0
H 851.79078167 -48.30509606 55.39891695     6     928    0    0    0
C 850.82616678 -46.25311398 58.75878685     2     928    932   933   934
H 849.03461632 -45.59792956 59.64074926     6     931    0    0    0
H 851.09736949 -48.20243767 59.47967964     6     931    0    0    0
C 852.97913301 -44.70546494 59.95855364     2     931   935   936   937
H 854.78248547 -45.57878557 59.36300935     6    934    0    0    0
H 853.11988834 -42.73246314 59.17700352     6    934    0    0    0
C 852.76434031 -44.40362455 62.89594917     2    934   938   939   940
H 850.89036224 -43.82560496 63.51921020     6    937    0    0    0
H 853.07807306 -46.37727170 63.68853705     6    937    0    0    0
C 854.67025953 -42.57136068 64.07872169     2    937   941   942   943
H 856.62491270 -43.27085706 63.88233125     6    940    0    0    0
H 854.66557930 -40.77490297 63.15478162     6    940    0    0    0
C 854.33960533 -42.22366761 66.98416962     2    940   944   945   946
H 854.62490847 -44.19534718 67.56688641     6    943    0    0    0
H 855.93425940 -41.11183050 67.73990946     6    943    0    0    0
C 851.76839235 -41.00899662 67.72095867     2    943   947   948   949
H 851.72710182 -38.94114639 67.29864120     6    946    0    0    0
H 849.99925868 -41.87439438 67.00293518     6    946    0    0    0
C 851.69313340 -41.21269132 70.57975464     2    946   950   951   952
H 851.93528288 -43.13487442 71.29942327     6    949    0    0    0
H 853.31165514 -40.09980325 71.31852267     6    949    0    0    0
C 849.37559444 -39.86672609 72.01278148     2    949   953   954   955
H 850.25201752 -38.91180584 73.56467057     6    952    0    0    0
H 848.42443553 -38.35374877 70.79000580     6    952    0    0    0
C 847.16721262 -41.50894489 72.85533035     2    952   956   957   958
H 845.48970009 -40.25325150 72.90362715     6    955    0    0    0
H 846.80821879 -43.30627866 71.78902518     6    955    0    0    0
C 847.55574705 -42.25381903 75.70549663     1    955   959   960   961
H 845.91011038 -43.25826915 76.51459694     6    958    0    0    0
H 848.01604043 -40.53350558 76.80545023     6    958    0    0    0
H 849.03835888 -43.48398657 75.81661392     6    958    0    0    0
H 838.20590274 -78.77909282 64.78281612     6     963    0    0    0 
C 837.19456588 -77.05399218 64.31773432     1     962    964    965    966
H 835.18823969 -77.40591290 64.14171348     6     963    0    0    0
H 837.66373025 -75.67823181 65.81851599     6     963    0    0    0
C 838.32297417 -76.37708749 61.77360041     2     963    967    968    969
H 837.73744895 -74.50042171 61.28717660     6     966    0    0    0
H 840.32738237 -76.52577085 61.61724207     6     966    0    0    0
C 837.08532867 -77.80572237 59.54247269     2     966    970   971   972
H 837.44563547 -79.81591394 59.76202099     6     969    0    0    0
H 835.01971411 -77.50735129 59.68014024     6     969    0    0    0
C 838.06083759 -76.97620349 56.82170024     2     969   973   974   975
H 838.21175681 -74.92340265 56.60004390     6    972    0    0    0
H 840.03432145 -77.63860315 56.64032886     6    972    0    0    0
C 836.34789443 -78.07821534 54.70350734     2    972   976   977   978
H 835.82987921 -80.11512738 54.91232883     6    975    0    0    0
H 834.32986397 -77.18391103 54.75235893     6    975    0    0    0
C 837.40188982 -77.63500566 52.00215364     2    975   979   980   981
H 837.59474412 -75.76977109 51.48962839     6    978    0    0    0
H 839.24845512 -78.49656273 51.85913074     6    978    0    0    0
C 835.83817955 -78.86031738 49.99396474     2    978   982   983   984
H 835.42840264 -80.83178538 50.29604118     6    981    0    0    0
H 834.25927071 -77.65816311 49.91108073     6    981    0    0    0
C 837.05590135 -78.76201749 47.29957558     2    981   985   986   987
H 837.92867756 -76.93395314 47.02282118     6    984    0    0    0
H 838.44842377 -80.20014141 47.04193435     6    984    0    0    0
C 835.10626347 -79.60093852 45.09482142     2    984   988   989   990
H 836.10392344 -80.29553337 43.49740617     6    987    0    0    0
H 833.91209747 -81.12903298 45.69269436     6    987    0    0    0
C 833.64196471 -77.29565362 44.28407370     2    987   991   992   993
H 832.47420447 -76.87473031 45.92145037     6    990    0    0    0
H 834.74246669 -75.68850912 43.75635831     6    990    0    0    0
C 831.72732383 -77.80509101 42.05577248     2    990   994   995   996
H 832.66518076 -78.98873064 40.71135425     6    993    0    0    0
H 830.05386647 -78.84602254 42.62846320     6    993    0    0    0
C 830.71351708 -75.52512554 40.75022016     1    993   997   998   999
H 829.28811579 -74.39508345 42.03570229     6    996    0    0    0
H 829.76944889 -76.06619091 39.01907476     6    996    0    0    0
H 832.26056028 -74.40965714 40.25108496     6    996    0    0    0
H 845.29471851 -93.73524009 67.43926832     6     1001    0    0    0 
C 845.88670784 -92.08340794 66.46261001     1     1000    1002    1003    1004
H 846.73597718 -90.68076445 67.81300571     6     1001    0    0    0
H 847.43966757 -92.48770319 65.24361059     6     1001    0    0    0
C 843.92887773 -90.98869220 64.71355909     2     1001    1005    1006    1007
H 844.79210636 -89.75331687 63.38382084     6     1004    0    0    0
H 842.99806546 -92.47094387 63.61110250     6     1004    0    0    0
C 842.01561546 -89.38412729 66.31980342     2     1004    1008   1009   1010
H 842.81174986 -87.95061910 67.49854811     6     1007    0    0    0
H 841.00210275 -88.52928051 64.83520444     6     1007    0    0    0
C 839.99494205 -91.19841091 67.57093503     2     1007   1011   1012   1013
H 839.45818011 -92.81678046 66.62175634     6    1010    0    0    0
H 840.57431292 -91.98368355 69.39561470     6    1010    0    0    0
C 837.56517228 -89.84705216 68.11290121     2    1010   1014   1015   1016
H 836.68861219 -90.94970480 69.54661436     6    1013    0    0    0
H 837.80153070 -88.02325510 69.16877469     6    1013    0    0    0
C 835.83030498 -89.52713619 65.77877661     2    1013   1017   1018   1019
H 836.50540722 -88.17920705 64.26040531     6    1016    0    0    0
H 835.87819397 -91.25938752 64.61553620     6    1016    0    0    0
C 833.25194916 -88.33904481 66.49407764     2    1016   1020   1021   1022
H 832.19749183 -89.70070950 67.88600975     6    1019    0    0    0
H 833.58833586 -86.65821129 67.45126327     6    1019    0    0    0
C 831.38815944 -87.77270877 64.34809309     2    1019   1023   1024   1025
H 831.16725487 -89.76048237 63.61853560     6    1022    0    0    0
H 829.64274111 -86.89133892 65.19257523     6    1022    0    0    0
C 832.59560935 -85.59314189 62.62419954     2    1022   1026   1027   1028
H 833.34220598 -84.26658913 63.97580418     6    1025    0    0    0
H 834.32195855 -86.05807236 61.52623336     6    1025    0    0    0
C 830.71912505 -84.65581641 60.83580480     2    1025   1029   1030   1031
H 830.38067758 -86.17876055 59.42875808     6    1028    0    0    0
H 828.99879699 -84.24763378 61.94364810     6    1028    0    0    0
C 831.57694643 -82.39285278 59.35266281     2    1028   1032   1033   1034
H 831.51245452 -80.60903806 60.31346529     6    1031    0    0    0
H 833.50952010 -82.62317125 58.76942296     6    1031    0    0    0
C 829.55701426 -82.16782506 57.28802042     1    1031   1035   1036   1037
H 829.85102615 -80.49187418 56.16878858     6    1034    0    0    0
H 827.70336871 -82.05142810 58.21732162     6    1034    0    0    0
H 829.57783298 -83.66528448 55.95680226     6    1034    0    0    0
H 860.74562909 -68.59021547 49.26000647     6     1039    0    0    0 
C 861.35292612 -66.83521725 50.09913683     1     1038    1040    1041    1042
H 861.85404187 -65.42415056 48.63815414     6     1039    0    0    0
H 859.70885378 -66.13745737 51.04316710     6     1039    0    0    0
C 863.46756243 -67.37193643 52.02067980     2     1039    1043    1044    1045
H 862.83398854 -68.71554618 53.53994896     6     1042    0    0    0
H 864.91135120 -68.18175417 50.99377141     6     1042    0    0    0
C 864.49450302 -65.11472870 53.52012067     2     1042    1046   1047   1048
H 864.92213238 -63.50254773 52.41861357     6     1045    0    0    0
H 863.06086771 -64.44526475 54.95962799     6     1045    0    0    0
C 866.92850701 -65.76045203 54.92790948     2     1045   1049   1050   1051
H 866.68193035 -67.39836903 56.28082281     6    1048    0    0    0
H 867.99785339 -66.82355842 53.55568207     6    1048    0    0    0
C 868.17130705 -63.67313070 56.49546604     2    1048   1052   1053   1054
H 868.40378000 -62.02314542 55.13405423     6    1051    0    0    0
H 866.92209252 -63.10900185 57.93154650     6    1051    0    0    0
C 870.73519014 -64.27964871 57.57136502     2    1051   1055   1056   1057
H 870.50247806 -65.18841148 59.41347106     6    1054    0    0    0
H 871.59907316 -65.59999963 56.26174659     6    1054    0    0    0
C 872.35482567 -61.87522590 58.00525627     2    1054   1058   1059   1060
H 872.16660136 -60.76470838 56.25906502     6    1057    0    0    0
H 871.36898503 -60.82211834 59.42852175     6    1057    0    0    0
C 875.26230016 -62.12667611 58.69643209     2    1057   1061   1062   1063
H 875.57838886 -63.45096338 60.27923403     6    1060    0    0    0
H 876.16705093 -63.01930372 57.04947451     6    1060    0    0    0
C 876.51298750 -59.44593158 59.22896008     2    1060   1064   1065   1066
H 878.49651062 -59.59867209 59.22019715     6    1063    0    0    0
H 876.05682273 -58.09023391 57.60594733     6    1063    0    0    0
C 875.90359318 -58.35049700 61.95295205     2    1063   1067   1068   1069
H 874.14758301 -57.42115997 61.72365851     6    1066    0    0    0
H 875.77170082 -59.86236772 63.38698819     6    1066    0    0    0
C 877.85737511 -56.35710756 62.89902532     2    1066   1070   1071   1072
H 879.69271820 -57.34032653 63.19260561     6    1069    0    0    0
[...]
 1803      H     858.6032430100   -44.7171352900    41.4003254000
 1804      H     855.8324290400   -45.5976567200    40.0350562600
 1805      C     857.9284784200   -48.5584487700    41.8481319000
 1806      H     856.9666802600   -50.0741371800    40.6761266300
 1807      H     859.8007589400   -49.0474459100    42.2773581500
 1808      C     856.3906275700   -48.2669021100    44.2637954700
 1809      H     857.2558503300   -46.7382002600    45.2685065300
 1810      H     854.3755528500   -47.6672579900    43.6523740800
 1811      C     856.3246218000   -50.7294877900    45.6949936600
 1812      H     855.6528282400   -52.2933015400    44.5903519200
 1813      H     858.1755062200   -51.1458262500    46.2684624300
 1814      C     854.6775507200   -50.5914627500    48.2655050700
 1815      H     855.3409834900   -48.8427405000    49.3411974400
 1816      H     852.6577128300   -50.0971286500    47.7827529100
 1817      C     855.1976413200   -52.8465635900    50.1520600500
 1818      H     854.3906390000   -54.5472623900    49.3409697000
 1819      H     857.2161142800   -53.2163383100    50.4866159500
 1820      C     853.7710986700   -52.2568003600    52.6015610800
 1821      H     854.4879155900   -50.7100865200    53.6453082700
 1822      H     851.7844162200   -51.9274580100    52.0924829400
 1823      C     853.7713338400   -54.4797354200    54.3432556200
 1824      H     852.8069982400   -56.0715547400    53.2954067700
 1825      H     855.7471828000   -54.7520815400    54.6604849400
 1826      C     852.3691863900   -54.1133117500    56.7603535500
 1827      H     853.6302656900   -53.0981056200    57.9494495000
 1828      H     850.9110608800   -52.7935133100    56.4876425000
 1829      C     851.4588384900   -56.3939359300    58.1586359700
 1830      H     850.6523266400   -57.7202052800    56.8617216500
 1831      H     852.9800618500   -57.6045277600    58.8395965500
 1832      C     849.5884610900   -55.9783649300    60.3509401500
 1833      H     850.3302387700   -54.6854413400    61.8440095500
 1834      H     848.9940844000   -57.7515553300    61.0795756900
 1835      H     848.0046243000   -55.1084387400    59.5493328800
 1836      H     844.9556845500   -54.5854683900    54.0061372700
 1837      C     842.8740039800   -54.1909832400    53.4931840800
 1838      H     841.9874554900   -55.1862043900    51.8878094100
 1839      H     841.8357502300   -54.6981967900    55.1506330800
 1840      C     842.7739688700   -51.3474330300    53.3166218700
 1841      H     840.7884398400   -50.6594962300    53.2537025700
 1842      H     843.5129466900   -50.7448459800    55.1516725100
 1843      C     844.5101740100   -50.1111291900    51.1642769500
 1844      H     846.4940967900   -50.8616907500    51.3225655000
 1845      H     843.8432615700   -50.6369486700    49.2851265500
 1846      C     844.3692407700   -47.2053001700    51.0090012500
 1847      H     842.5273556400   -46.6745405100    50.2656805900
 1848      H     844.6794536500   -46.2867312200    52.8118965900
 1849      C     846.5730672100   -46.0973372100    49.4381809500
 1850      H     848.3014659600   -45.7978654100    50.4946204400
 1851      H     847.1212958100   -47.4594997400    47.9531743300
 1852      C     845.8229766000   -43.6019797100    48.2485552500
 1853      H     844.8768557800   -42.3120677200    49.5858241200
 1854      H     847.6339498500   -42.6090851500    47.7362751400
 1855      C     844.3957085400   -43.9335558400    45.7743393800
 1856      H     845.4859367700   -45.0251227000    44.4722229500
 1857      H     842.6153441800   -44.9228162500    46.1275856900
 1858      C     843.5781108300   -41.5132296300    44.3662536700
 1859      H     842.0691590400   -40.7326897700    45.5882503600
 1860      H     844.8773546900   -39.8771038900    44.3120443600
 1861      C     842.6791932900   -42.0397557300    41.7012120300
 1862      H     841.5780115200   -43.7541945700    41.4815352600
 1863      H     841.4763222500   -40.5677277200    41.2146615500
 1864      C     845.0551149700   -41.8612056400    39.7856858100
 1865      H     845.7694258900   -39.9529415600    39.8504935200
 1866      H     846.4832869600   -43.2178675600    40.2837643500
 1867      C     844.2216798700   -42.2021100300    37.0703900900
 1868      H     843.5403708600   -44.0156538600    36.6487096300
 1869      H     842.6533941300   -41.0199329600    36.9087989100
 1870      C     846.0999933200   -41.3854271200    35.1294095900
 1871      H     845.2458798000   -40.3831399800    33.3892328300
 1872      H     847.1900600600   -42.9887739700    34.4196497500
 1873      H     847.3139174000   -39.8148572500    35.9946633600
 1874      H     839.5545495100   -67.6815800400    35.1221508100
 1875      C     838.5491258400   -69.4826985400    35.1898697600
 1876      H     836.6487324100   -69.2500102700    34.1622819300
 1877      H     839.3224047700   -71.1030252500    34.1509553900
 1878      C     837.9431806000   -69.9288982100    37.9153872700
 1879      H     836.6870951600   -68.3717226900    38.2752832700
 1880      H     836.8099271600   -71.7463084100    38.1028842000
 1881      C     840.0617310900   -70.1555338900    39.7673680100
 1882      H     841.4463655300   -71.5306373000    39.1130663900
 1883      H     840.9378081100   -68.3078392400    40.1091403500
 1884      C     839.3307363500   -70.8289671900    42.4573060500
 1885      H     837.7218660900   -69.6565720800    43.0024027100
 1886      H     838.5707750900   -72.7887857300    42.5435604700
 1887      C     841.5930566900   -70.5740058900    44.2491972700
 1888      H     842.9367369700   -71.9851603100    43.5429740700
 1889      H     842.5551185800   -68.7759996800    43.9603943200
 1890      C     840.9736311500   -71.1914964300    47.0358637100
 1891      H     840.4097285000   -69.3876363400    47.9739845400
 1892      H     839.5582377400   -72.6036744300    47.4611611500
 1893      C     843.3308008100   -72.0992714800    48.5241503300
 1894      H     844.8009288800   -72.0342265100    47.3737949500
 1895      H     843.8775863000   -70.7446166600    50.0177596700
 1896      C     843.1774388700   -74.7096461100    49.5069378000
 1897      H     841.5171937500   -75.0132002900    50.6418752500
 1898      H     842.7736169000   -75.9674213900    47.9090268700
 1899      C     845.6079389100   -75.3562981900    50.9105937800
 1900      H     847.2776497100   -75.1645835700    49.7712542000
 1901      H     846.0073045100   -74.0761234400    52.6758410100
 1902      C     845.4280720700   -78.1447311100    51.5827997800
 1903      H     843.9191032300   -78.5574041400    52.9188419500
 1904      H     845.0818773800   -79.3920554200    49.9134657300
 1905      C     847.9829448300   -78.7093643400    52.8021831600
 1906      H     849.5564484400   -78.2293745600    51.4998954800
 1907      H     848.2257325400   -77.3290008100    54.4226472100
 1908      C     848.3168907900   -81.3614311000    53.7147893500
 1909      H     848.9464157400   -82.5914777500    52.1924695700
 1910      H     846.4674082200   -82.1999677800    54.1806982500
 1911      H     849.4965117000   -81.4717717700    55.4558226800
 ----------------------------------------------------------------
 Nuclear Repulsion Energy =           0.00000000 hartrees
 There are     2498 alpha and     2498 beta electrons

 Total QAlloc Memory Limit   2000 MB
 Mega-Array Size       204 MB
 MEM_STATIC part       192 MB
   **** Step 1: MM calculation on the entire system **** 
 OPLSAA force field loaded.
Reading user-defined FF parameters...
 Reading user defined atom types.
 Found 3 user defined AtomTypes
finished.
Determining angles, torsions, etc. from user defined input
Determining VDW/Coulomb pairs... (useList = 0)

 Time req'd to get MM system information: 0.2 s (CPU) 0.3 s (wall)

 ------ MM Energies ------
   Ebond:           567.127135711503
   Eangle:          885.232102033688
   EUreyBrad:         0.000000000000
   Eimptors:          0.000000000000
   Etorsion:        231.518486990492
   Evdw:        1090089.312993058003
   Ecoulomb:        183.601236233053
   Etot:        1091956.791954026790 Kcal/mol (   1740.143921993533 hartree)
 -------------------------
 Time req'd to calc MM energy: 0.1 s (CPU) 0.1 s (wall)
 OPLSAA force field loaded.
Reading user-defined FF parameters...
 Reading user defined atom types.
 Found 3 user defined AtomTypes
finished.
 Time req'd to get MM system information: 0.0 s (CPU) 0.0 s (wall)
 Time req'd to calc MM gradient: 0.2 s (CPU) 0.2 s (wall)
   **** Step 2: MM calculation on the model system **** 
 Reading user defined atom types.
 Found 3 user defined AtomTypes
 ----------------------------------------------------------------
             Standard Nuclear Orientation (Bohr)
    I     Atom           X                Y                Z
 ----------------------------------------------------------------
    1      Fe    840.8600377600   -62.8058554400    50.0622670100
    2      C     841.3992391100   -65.5883993400    51.8465522400
    3      C     840.3549824300   -59.8113163800    48.3218569700
    4      C     837.4644346700   -63.7002999800    50.0176065600
    5      C     841.9564038300   -61.3053940600    52.8503334500
    6      C     843.2167782300   -63.6325883400    47.8103107300
    7      O     841.8205488900   -67.2106599700    53.2430240200
    8      O     840.3082910900   -57.8850304000    47.2990025800
    9      O     835.3132512700   -64.1872863500    50.1634139200
   10      O     842.6417593900   -60.7091867400    54.9032828100
   11      O     844.8091814400   -64.0080231400    46.3159770300
 ----------------------------------------------------------------
 Nuclear Repulsion Energy =         800.99726761 hartrees
 There are       48 alpha and       48 beta electrons
 OPLSAA force field loaded.
Reading user-defined FF parameters...
 Reading user defined atom types.
 Found 3 user defined AtomTypes
finished.
Determining VDW/Coulomb pairs... (useList = 0)

 No MM bonds in system. Return all possible pairs.
 Time req'd to get MM system information: 0.0 s (CPU) 0.0 s (wall)

 ------ MM Energies ------
   Ebond:             0.000000000000
   Eangle:            0.000000000000
   EUreyBrad:         0.000000000000
   Eimptors:          0.000000000000
   Etorsion:          0.000000000000
   Evdw:        1090516.136083950521
   Ecoulomb:         -6.463059067958
   Etot:        1090509.673024882562 Kcal/mol (   1737.837791176354 hartree)
 -------------------------
 Eold: 1740.1439220 mm_energy: 1737.8377912 Enew:    2.3061308
 Time req'd to calc MM energy: 0.0 s (CPU) 0.0 s (wall)
 OPLSAA force field loaded.
Reading user-defined FF parameters...
 Reading user defined atom types.
 Found 3 user defined AtomTypes
finished.
Determining VDW/Coulomb pairs... (useList = 0)

 No MM bonds in system. Return all possible pairs.
 Time req'd to get MM system information: 0.0 s (CPU) 0.0 s (wall)
 Number of fixed atoms: 0
 Time req'd to calc MM gradient: 0.0 s (CPU) 0.0 s (wall)
   **** Step 3: QM calculation on the model system **** 
 Requested basis set is def2-mSVP
 There are 80 shells and 174 basis functions

                       Distance Matrix (Bohrs)
             Fe(  1)   C (  2)   C (  3)   C (  4)   C (  5)   C (  6)
   C (  2)  3.349173
   C (  3)  3.500196  6.847528
   C (  4)  3.511716  4.732087  5.133715
   C (  5)  3.350629  4.434202  5.030300  5.825608
   C (  6)  3.362889  4.839410  4.801424  6.161672  5.692645
   O (  7)  5.517436  2.181597  9.006445  6.457683  5.919867  6.653302
   O (  8)  5.670500  9.011785  2.181511  7.021089  6.725506  6.461823
   O (  9)  5.717117  6.468023  6.925280  2.210431  7.723750  8.265018
   O ( 10)  5.568302  5.890176  7.025004  7.721482  2.244945  7.693320
   O ( 11)  5.574552  6.686745  6.440170  8.230556  7.624982  2.215792
             O (  7)   O (  8)   O (  9)   O ( 10)
   O (  8) 11.161796
   O (  9)  7.808310  8.536610
   O ( 10)  6.760178  8.440735  9.395242
   O ( 11)  8.195901  7.662597 10.247321  9.451024

 A cutoff of  1.0D-11 yielded   2500 shell pairs
 There are     12866 function pairs (     14721 Cartesian)
 Smallest overlap matrix eigenvalue = 2.40E-03
 Guess MOs from SCF MO coefficient file
 Reading MOs from coefficient file
 Reading MOs from coefficient file
 A restricted Kohn-Sham SCF calculation will be
 performed using Pulay DIIS extrapolation
 Exchange:  B88      Correlation:  P86
 Using SG-1 standard quadrature grid
 SCF converges when DIIS error is below 1.0E-08
 Using Q-Chem read-in guess as SCF_GUESS READ specified.

 using 2 threads for integral computing
 -------------------------------------------------------
 OpenMP Integral computing Module                
 Release: version 1.0, May 2013, Q-Chem Inc. Pittsburgh 
 -------------------------------------------------------
 ---------------------------------------
  Cycle       Energy         DIIS Error
 ---------------------------------------
    1   -1830.5215222178      1.94E-09
    2   -1830.5215222176      6.18E-09 Convergence criterion met
 ---------------------------------------
 SCF time:  CPU 2.63 s  wall 1.38 s
 E(QM + QM/MM):    -1830.5215222176 E(MM):    2.3061308 E(Tot): -1828.215391400467 
 SCF   energy in the final basis set = -1828.21539140
 Total energy in the final basis set = -1828.21539140

 --------------------------------------------------------------

                    Orbital Energies (a.u.)
 --------------------------------------------------------------

 Alpha MOs
 -- Occupied --
******** -29.6371 -25.5969 -25.5834 -25.5812 -18.8937 -18.8877 -18.8816
-18.8715 -18.8687 -10.0585 -10.0574 -10.0481 -10.0412 -10.0398  -3.3220
 -2.1578  -2.1312  -2.1273  -1.0701  -1.0671  -1.0498  -1.0400  -1.0298
 -0.5769  -0.5303  -0.5206  -0.5163  -0.5132  -0.4592  -0.4470  -0.4443
 -0.4387  -0.4359  -0.4307  -0.4224  -0.4163  -0.4122  -0.4098  -0.4018
 -0.4010  -0.3983  -0.3957  -0.3780  -0.2790  -0.2754  -0.2353  -0.2224
 -- Virtual --
 -0.1029  -0.0918  -0.0880  -0.0827  -0.0731  -0.0702  -0.0641  -0.0609
 -0.0525  -0.0296  -0.0203   0.0109   0.1851   0.2168   0.2271   0.2428
  0.2987   0.3276   0.3523   0.3988   0.4066   0.4186   0.4283   0.4398
  0.4471   0.4726   0.4913   0.5065   0.5266   0.5567   0.5730   0.5853
  0.6001   0.6126   0.6290   0.6548   0.7355   0.7546   0.7570   0.7721
  0.7913   0.8254   0.8294   0.8560   0.8680   0.9217   0.9425   0.9494
  0.9732   0.9856   0.9874   1.0000   1.0184   1.0245   1.0318   1.0459
  1.2120   1.2506   1.2834   1.3090   1.4002   1.4083   1.4090   1.4126
  1.4178   1.4192   1.4285   1.4320   1.4358   1.4551   1.4633   1.5025
  1.5151   1.5337   1.5559   1.5707   1.6069   1.6409   1.6508   1.6802
  1.6944   1.8125   1.8289   1.8347   1.8399   1.8437   1.8459   1.8513
  1.8560   1.8665   1.8722   1.8811   1.8926   1.9114   1.9480   1.9621
  2.3786   2.4002   2.4165   2.4393   2.4498   2.4721   2.4739   2.4918
  2.4979   2.5078   2.6300   2.6413   2.6538   2.6739   2.6805   2.8151
  2.8227   2.8775   2.9115   2.9725  13.2646  13.2832  13.3299  13.3542
 13.4577  24.9041  24.9270  24.9587  24.9795  25.0272
 --------------------------------------------------------------

          Ground-State Mulliken Net Atomic Charges

     Atom                 Charge (a.u.)
  ----------------------------------------
      1 Fe                   -0.486574
      2 C                     0.181542
      3 C                     0.216247
      4 C                     0.222913
      5 C                     0.230450
      6 C                     0.213713
      7 O                    -0.100888
      8 O                    -0.093102
      9 O                    -0.114067
     10 O                    -0.142292
     11 O                    -0.127942
  ----------------------------------------
  Sum of atomic charges =     0.000000

 -----------------------------------------------------------------
                    Cartesian Multipole Moments
 -----------------------------------------------------------------
    Charge (ESU x 10^10)
                -0.0000
    Dipole Moment (Debye)
         X      -0.3685666000      Y       0.0126186410      Z      -0.3443251393
       Tot       0.5045397608
    Quadrupole Moments (Debye-Ang)
        XX    -398.0876     XY      17.4827     YY     -68.6863
        XZ    -162.4745     YZ      11.2330     ZZ     -89.3624
    Octopole Moments (Debye-Ang^2)
       XXX -312482.9449    XXY   15393.1130    XYY  -30947.4788
       YYY    6804.6591    XXZ  -78276.4779    XYZ    5293.9927
       YYZ   -2170.8283    XZZ  -40005.5679    YZZ    2948.3650
       ZZZ   -6401.5239
    Hexadecapole Moments (Debye-Ang^3)
      XXXX ************   XXXY ************   XXYY ************
      XYYY 3040380.3670   YYYY -451951.7742   XXXZ ************
      XXYZ 2549152.7626   XYYZ -975442.7468   YYYZ  191903.2586
      XXZZ ************   XYZZ 1319605.1515   YYZZ -145511.0146
      XZZZ ************   YZZZ  211778.5154   ZZZZ -328397.1746
 -----------------------------------------------------------------
 Calculating MO derivatives via CPSCF
 Full subspace dimension requested for CIS/TDDFT
 MAX_CIS_SUBSPACE fits in available memory
    1     0    36    0.0419142  
    2     0    36    0.0061736  
    3     0    36    0.0005649  
    4     0    36    0.0000395  
    5    33     3    0.0000011  
    6    36     0    0.0000000  Converged
 Time for AOints: 7.0 s (CPU) 3.6 s (wall)
 ------------------------------------------------------------------------------
                     AOints        : Timing summary (seconds)
 ------------------------------------------------------------------------------
     job step          cpu (% of tot)      sys (% of tot)     wall (% of tot)
 ------------------------------------------------------------------------------
  AOints            0.7013E+01 ( 3.9)   0.2500E-04 (16.1)   0.3601E+01 ( 4.0)
 ------------------------------------------------------------------------------
   Grand Totals     0.1788E+03          0.1550E-03          0.9024E+02
 ------------------------------------------------------------------------------
 Polarizability Matrix (a.u.)
            1           2           3
    1 -90.9857695  -0.1578906   2.0620740
    2  -0.1578906 -89.9954081  10.5374418
    3   2.0620740  10.5374418 -93.5043845
 Derivative of Dipole Moment Matrix (a.u.)
            1           2           3
    1  -1.9050807   0.0612589   0.0053386
    2  -0.0029067  -1.8578559   0.0405609
    3   0.0334040   0.0341168  -1.9069310
    4   0.4877108  -0.2934813   0.1822336
    5  -0.2414078   1.5609333  -0.7277589
    6   0.1841415  -0.8987696   1.0149185
    7   0.4376126  -0.0791643   0.0708314
    8  -0.1882899   1.8026690  -0.8307549
    9   0.1286985  -0.7392011   0.9098365
   10   2.2865660   0.4354585   0.0559019
   11   0.4635538   0.5058500   0.0350090
   12  -0.1493584  -0.0256051   0.3885876
   13   0.6169747   0.2763085   0.5171977
   14   0.1661025   0.5915522   0.4697620
   15   0.5177531   0.7711078   1.8291163
   16   1.4458507  -0.3387475  -1.0355151
   17  -0.2376809   0.4997260   0.2859443
   18  -0.8828685   0.3089388   1.3205418
   19  -0.1975899   0.2298806  -0.1440941
   20   0.1821236  -1.0299676   0.5672807
   21  -0.1524299   0.7597198  -0.6403742
   22  -0.1503240   0.0298694  -0.0236835
   23   0.1598687  -1.2915367   0.6818543
   24  -0.0924001   0.6096701  -0.5158715
   25  -1.6874374  -0.3842576  -0.0322239
   26  -0.3575456  -0.2433840  -0.0199016
   27   0.1345766   0.0235661  -0.1623182
   28  -0.3481590  -0.2027323  -0.3950803
   29  -0.1163657  -0.3105470  -0.3075663
   30  -0.4367370  -0.5915309  -1.3421943
   31  -0.9861240   0.2656071   0.7990937
   32   0.1725480  -0.2274394  -0.1944295
   33   0.7152201  -0.2520126  -0.8953113
 -----------------------------------------
 Net:  -0.00000  -0.00000  -0.00000
 -----------------------------------------

 Calculating analytic Hessian of the SCF energy
