                  Welcome to Q-Chem
     A Quantum Leap Into The Future Of Chemistry


 Q-Chem 5.4 (devel), Q-Chem, Inc., Pleasanton, CA (2021)

 E. Epifanovsky,  A. T. B. Gilbert,  Xintian Feng,  Joonho Lee,  Yuezhi Mao,  
 N. Mardirossian,  P. Pokhilko,  A. White,  M. Wormit,  M. P. Coons,  
 A. L. Dempwolff,  Zhengting Gan,  D. Hait,  P. R. Horn,  L. D. Jacobson,  
 I. Kaliman,  J. Kussmann,  A. W. Lange,  Ka Un Lao,  D. S. Levine,  Jie Liu,  
 S. C. McKenzie,  A. F. Morrison,  K. Nanda,  F. Plasser,  D. R. Rehn,  
 M. L. Vidal,  Zhi-Qiang You,  Ying Zhu,  B. Alam,  B. Albrecht,  
 A. Aldossary,  E. Alguire,  J. H. Andersen,  D. Barton,  K. Begam,  A. Behn,  
 Y. A. Bernard,  E. J. Berquist,  H. Burton,  A. Carreras,  K. Carter-Fenk,  
 R. Chakraborty,  A. D. Chien,  K. D. Closser,  V. Cofer-Shabica,  
 S. Dasgupta,  Jia Deng,  M. de Wergifosse,  M. Diedenhofen,  Hainam Do,  
 S. Ehlert,  Po-Tung Fang,  S. Fatehi,  Qingguo Feng,  T. Friedhoff,  
 J. Gayvert,  Qinghui Ge,  G. Gidofalvi,  M. Goldey,  J. Gomes,  
 C. Gonzalez-Espinoza,  S. Gulania,  A. Gunina,  M. W. D. Hanson-Heine,  
 P. H. P. Harbach,  A. W. Hauser,  M. F. Herbst,  M. Hernandez Vera,  
 M. Hodecker,  Z. C. Holden,  S. Houck,  Xunkun Huang,  Kerwin Hui,  
 B. C. Huynh,  M. Ivanov,  Hyunjun Ji,  Hanjie Jiang,  B. Kaduk,  S. Kaehler,  
 K. Khistyaev,  Jaehoon Kim,  P. Klunzinger,  Z. Koczor-Benda,  
 Joong Hoon Koh,  D. Kosenkov,  L. Koulias,  T. Kowalczyk,  C. M. Krauter,  
 K. Kue,  A. Kunitsa,  T. Kus,  A. Landau,  K. V. Lawler,  D. Lefrancois,  
 S. Lehtola,  Rain Li,  Yi-Pei Li,  Jiashu Liang,  M. Liebenthal,  
 Hung-Hsuan Lin,  You-Sheng Lin,  Fenglai Liu,  Kuan-Yu Liu,  
 M. Loipersberger,  A. Luenser,  A. Manjanath,  P. Manohar,  E. Mansoor,  
 S. F. Manzer,  Shan-Ping Mao,  A. V. Marenich,  T. Markovich,  S. Mason,  
 S. A. Maurer,  P. F. McLaughlin,  M. F. S. J. Menger,  J.-M. Mewes,  
 S. A. Mewes,  P. Morgante,  J. W. Mullinax,  K. J. Oosterbaan,  G. Paran,  
 Alexander C. Paul,  Suranjan K. Paul,  F. Pavosevic,  Zheng Pei,  S. Prager,  
 E. I. Proynov,  E. Ramos,  B. Rana,  A. E. Rask,  A. Rettig,  R. M. Richard,  
 F. Rob,  E. Rossomme,  T. Scheele,  M. Scheurer,  M. Schneider,  
 N. Sergueev,  S. M. Sharada,  W. Skomorowski,  D. W. Small,  C. J. Stein,  
 Yu-Chuan Su,  E. J. Sundstrom,  Zhen Tao,  J. Thirman,  T. Tsuchimochi,  
 N. M. Tubman,  S. P. Veccham,  O. Vydrov,  J. Wenzel,  J. Witte,  A. Yamada,  
 Kun Yao,  S. Yeganeh,  S. R. Yost,  A. Zech,  Igor Ying Zhang,  Xing Zhang,  
 Yu Zhang,  D. Zuev,  A. Aspuru-Guzik,  A. T. Bell,  N. A. Besley,  
 K. B. Bravaya,  B. R. Brooks,  D. Casanova,  Jeng-Da Chai,  S. Coriani,  
 C. J. Cramer,  A. E. DePrince, III,  R. A. DiStasio Jr.,  A. Dreuw,  
 B. D. Dunietz,  T. R. Furlani,  W. A. Goddard III,  S. Grimme,  
 S. Hammes-Schiffer,  T. Head-Gordon,  W. J. Hehre,  Chao-Ping Hsu,  
 T.-C. Jagau,  Yousung Jung,  A. Klamt,  Jing Kong,  D. S. Lambrecht,  
 WanZhen Liang,  N. J. Mayhall,  C. W. McCurdy,  J. B. Neaton,  
 C. Ochsenfeld,  J. A. Parkhill,  R. Peverati,  V. A. Rassolov,  Yihan Shao,  
 L. V. Slipchenko,  T. Stauch,  R. P. Steele,  J. E. Subotnik,  
 A. J. W. Thom,  A. Tkatchenko,  D. G. Truhlar,  T. Van Voorhis,  
 T. A. Wesolowski,  K. B. Whaley,  H. L. Woodcock III,  P. M. Zimmerman,  
 S. Faraji,  P. M. W. Gill,  M. Head-Gordon,  J. M. Herbert,  A. I. Krylov

 Additional authors for Version 5.4.1: 
 S. Kotaru,  Shaozhi Li,  Xiangyuan Li,  F. Matz,  A. Molle,  Haisheng Ren,  
 Yingli Su,  Hung-Yi Tsai,  C. Utku,  Fang Wang

 Contributors to earlier versions of Q-Chem not listed above: 
 R. D. Adamson,  B. Austin,  R. Baer,  J. Baker,  G. J. O. Beran,  
 K. Brandhorst,  S. T. Brown,  E. F. C. Byrd,  A. K. Chakraborty,  
 G. K. L. Chan,  Chun-Min Chang,  Yunqing Chen,  C.-L. Cheng,  
 Siu Hung Chien,  D. M. Chipman,  D. L. Crittenden,  H. Dachsel,  
 R. J. Doerksen,  A. D. Dutoi,  R. G. Edgar,  J. Fosso-Tande,  
 L. Fusti-Molnar,  D. Ghosh,  A. Ghysels,  A. Golubeva-Zadorozhnaya,  
 J. Gonthier,  M. S. Gordon,  S. R. Gwaltney,  G. Hawkins,  J. E. Herr,  
 A. Heyden,  S. Hirata,  E. G. Hohenstein,  G. Kedziora,  F. J. Keil,  
 C. Kelley,  Jihan Kim,  R. A. King,  R. Z. Khaliullin,  P. P. Korambath,  
 W. Kurlancheek,  A. Laurent,  A. M. Lee,  M. S. Lee,  S. V. Levchenko,  
 Ching Yeh Lin,  D. Liotard,  E. Livshits,  R. C. Lochan,  I. Lotan,  
 L. A. Martinez-Martinez,  P. E. Maslen,  N. Nair,  D. P. O'Neill,  
 D. Neuhauser,  E. Neuscamman,  C. M. Oana,  R. Olivares-Amaya,  R. Olson,  
 T. M. Perrine,  B. Peters,  P. A. Pieniazek,  A. Prociuk,  Y. M. Rhee,  
 J. Ritchie,  M. A. Rohrdanz,  E. Rosta,  N. J. Russ,  H. F. Schaefer III,  
 M. W. Schmidt,  N. E. Schultz,  S. Sharma,  N. Shenvi,  C. D. Sherrill,  
 A. C. Simmonett,  A. Sodt,  T. Stein,  D. Stuck,  K. S. Thanthiriwatte,  
 V. Vanovschi,  L. Vogt,  Tao Wang,  A. Warshel,  M. A. Watson,  
 C. F. Williams,  Q. Wu,  X. Xu,  Jun Yang,  W. Zhang,  Yan Zhao

 Please cite Q-Chem as follows:
 Y. Shao et al., Mol. Phys. 113, 184-215 (2015)
 DOI: 10.1080/00268976.2014.952696

 Q-Chem 5.4.1 for Intel X86 EM64T Linux

 Parts of Q-Chem use Armadillo 9.900.5 (Nocturnal Misbehaviour).
 http://arma.sourceforge.net/

 Q-Chem begins on Wed Jun 22 16:41:24 2022  

 Host: p09r14n13.grace.hpc.yale.internal
0

     Scratch files written to /home/tl686/scratch60/qchem_dev/scratch/qchem247099//
 Processing $rem in /home/tl686/qchem_dev/qchem/config/preferences:
 Processing $rem in /home/tl686/.qchemrc:
Applying user defined connections for MM calculations

 Checking the input file for inconsistencies... 	...done.

--------------------------------------------------------------
User input:
--------------------------------------------------------------
$molecule
0   1
 Fe 1117.88774051 40.86973652 -60.68278137    -1  0   0   0   0
C 1114.68428198 41.87378986 -60.36914063    -2  0   0   0   0 
C 1120.83728868 39.80052334 -61.73645334    -2  0   0   0   0
C 1118.67103780 43.98422912 -61.87413060    -2  0   0   0   0
C 1118.38912256 40.07653046 -57.29930749    -2  0   0   0   0
C 1116.95631678 38.20359400 -62.52650487    -2  0   0   0   0
O 1112.60406556 42.87727456 -60.22458897    -3  0   0   0   0
O 1122.75624775 39.23024444 -62.66303610    -3  0   0   0   0 
O 1118.74420498 45.87441309 -62.94775333    -3  0   0   0   0
O 1118.73092796 39.51382288 -55.22528488    -3  0   0   0   0 
O 1116.46060642 36.61618848 -63.95562155    -3  0   0   0   0
H 1114.98477340 64.63192550 -48.07882480      6     13    0    0    0 
C 1113.50040856 64.94373236 -49.25502769     1     12    14    15    16
H 1113.64711900 67.03038266 -49.41487902     6     13    0    0    0
H 1113.71169916 64.33583779 -51.22860968     6     13    0    0    0
C 1110.94904023 64.18001985 -48.30704441     2     13    17    18    19
H 1110.48004048 64.91705234 -46.50682403     6     16    0    0    0
H 1109.50226783 65.07590604 -49.47865454     6     16    0    0    0
C 1110.60742398 61.35941424 -47.91986835     2     16    20   21   22
H 1110.75712127 60.27616395 -49.75723515     6     19    0    0    0
H 1112.08227726 60.61917013 -46.60579190     6     19    0    0    0
C 1108.15913845 60.59213688 -46.87686374     2     19   23   24   25
H 1107.82961361 61.84774789 -45.29565471     6    22    0    0    0
H 1106.70131426 60.97123088 -48.31034623     6    22    0    0    0
C 1107.95854058 57.81676254 -46.09088571     2    22   26   27   28
H 1108.40063736 56.81277749 -47.81943176     6    25    0    0    0
H 1109.22973411 57.30939658 -44.71156082     6    25    0    0    0
C 1105.09548458 57.28787148 -45.33088536     2    25   29   30   31
H 1104.80078357 58.69477859 -43.89595486     6    28    0    0    0
H 1103.71884892 57.70568230 -46.81865920     6    28    0    0    0
C 1104.86612091 54.52890448 -44.63473012     2    28   32   33   34
H 1104.93514588 53.65755542 -46.44105152     6    31    0    0    0
H 1106.38932197 54.07843774 -43.30662898     6    31    0    0    0
C 1102.41426664 53.77691825 -43.33726580     2    31   35   36   37
H 1102.20256072 55.08723032 -41.72812675     6    34    0    0    0
H 1100.77639365 53.86626588 -44.69369896     6    34    0    0    0
C 1102.62423306 51.20650069 -41.91990017     2    34   38   39   40
H 1102.88016687 49.90144398 -43.48494494     6    37    0    0    0
H 1104.35075724 51.11590828 -40.70270455     6    37    0    0    0
C 1100.15315315 50.55686545 -40.53124442     2    37   41   42   43
H 1099.69763808 52.02220336 -39.10224944     6    40    0    0    0
H 1098.55414656 50.82701114 -41.79170745     6    40    0    0    0
C 1100.33699463 47.93531452 -39.28005907     2    40   44   45   46
H 1100.66471733 46.45157076 -40.72497023     6    43    0    0    0
H 1101.99339135 47.85968920 -37.98323973     6    43    0    0    0
C 1098.03685112 47.46443202 -37.66171552     1    43   47   48   49
H 1097.86109979 48.85703349 -36.24320362     6    46    0    0    0
H 1098.29384757 45.69371102 -36.55388392     6    46    0    0    0
H 1096.13900073 47.35702949 -38.56069634     6    46    0    0    0
H 1111.17276764 36.17763745 -52.56289229     6     51    0    0    0 
C 1110.99672980 37.91012497 -53.62131585     1     50    52    53    54
H 1112.87261383 38.21750230 -54.39765583     6     51    0    0    0
H 1109.93775899 37.77142238 -55.31179517     6     51    0    0    0
C 1110.12113729 40.28022876 -52.20791224     2     51    55    56    57
H 1110.92189808 42.04032027 -53.17085161     6     54    0    0    0
H 1108.03859983 40.44145714 -52.49137348     6     54    0    0    0
C 1110.98908527 40.25488656 -49.56644683     2     54    58   59   60
H 1113.06933316 40.16343498 -49.53061622     6     57    0    0    0
H 1110.71828381 42.12890930 -48.59739952     6     57    0    0    0
C 1109.77163309 38.13984535 -47.81227416     2     57   61   62   63
H 1107.67916630 38.50162946 -47.66366345     6    60    0    0    0
H 1109.98375741 36.28920143 -48.64422780     6    60    0    0    0
C 1110.88993070 37.99988483 -45.22079744     2    60   64   65   66
H 1112.74253735 37.22548707 -45.34289207     6    63    0    0    0
H 1111.17534259 39.77499325 -44.34518599     6    63    0    0    0
C 1109.35487114 36.50218773 -43.30535930     2    63   67   68   69
H 1110.54324134 36.42138929 -41.62984419     6    66    0    0    0
H 1107.72004339 37.51073407 -42.47133048     6    66    0    0    0
C 1108.77051700 33.71136287 -44.23650613     2    66   70   71   72
H 1107.87726580 33.69744004 -46.12952188     6    69    0    0    0
H 1110.65583746 32.86098995 -44.34403393     6    69    0    0    0
C 1107.19481563 31.95354054 -42.41750079     2    69   73   74   75
H 1108.33370633 31.29322793 -40.85568395     6    72    0    0    0
H 1105.69976499 33.06958032 -41.57001020     6    72    0    0    0
C 1106.22929845 29.66440108 -43.69135347     2    72   76   77   78
H 1105.45420260 30.05747571 -45.51750433     6    75    0    0    0
H 1107.79690511 28.43761847 -44.17499176     6    75    0    0    0
C 1104.25206135 28.31105508 -42.01349710     2    75   79   80   81
H 1105.01130995 27.98587335 -40.10487999     6    78    0    0    0
H 1102.68376387 29.67688672 -41.67814146     6    78    0    0    0
C 1103.41750951 25.85394249 -43.43051236     2    78   82   83   84
H 1102.67064711 26.59352092 -45.14217710     6    81    0    0    0
H 1105.06905768 24.67264068 -43.91294080     6    81    0    0    0
C 1101.27511409 24.54184585 -42.14888729     1    81   85   86   87
H 1099.91471478 23.41948532 -43.15507186     6    84    0    0    0
H 1100.06657509 26.05049515 -41.20913998     6    84    0    0    0
H 1101.77499512 23.39315886 -40.49347395     6    84    0    0    0
H 1125.48853306 63.94771291 -36.78899243     6     89    0    0    0 
C 1125.51576735 61.92376518 -36.08887494     1     88    90    91    92
H 1125.30982781 60.69652437 -37.75044981     6     89    0    0    0
H 1127.36536720 61.45308387 -35.36388160     6     89    0    0    0
C 1123.37958399 61.65456510 -34.10561144     2     89    93    94    95
H 1123.99322652 62.47626181 -32.35567819     6     92    0    0    0
H 1121.73030819 62.49136063 -34.88841031     6     92    0    0    0
C 1122.74338063 58.83390452 -33.72054942     2     92    96   97   98
H 1122.09366698 58.12918792 -35.57711128     6     95    0    0    0
H 1124.50642969 57.90373820 -33.24476715     6     95    0    0    0
C 1120.88418872 58.19285906 -31.67072242     2     95   99   100   101
H 1121.98459341 58.50438923 -29.95275367     6    98    0    0    0
H 1119.19444895 59.36396788 -31.70826671     6    98    0    0    0
C 1119.90974530 55.44368861 -31.90383625     2    98   102   103   104
H 1118.48716881 55.15139773 -33.37763947     6    101    0    0    0
H 1121.38228119 54.10504521 -32.27185662     6    101    0    0    0
C 1118.73843670 54.49742280 -29.31786572     2    101   105   106   107
H 1119.96714465 54.75471711 -27.57929882     6    104    0    0    0
H 1117.04379311 55.73828472 -29.01754559     6    104    0    0    0
C 1117.96166278 51.78246683 -29.46032273     2    104   108   109   110
H 1117.53664703 51.32041867 -31.38858847     6    107    0    0    0
H 1119.66491072 50.60610721 -28.97137368     6    107    0    0    0
C 1115.65324131 51.13725118 -27.82249373     2    107   111   112   113
H 1116.38298853 51.27916736 -25.86780234     6    110    0    0    0
H 1114.11887257 52.40056025 -27.93161546     6    110    0    0    0
C 1114.87166610 48.32610773 -28.05989052     2    110   114   115   116
H 1114.40245053 48.00623243 -30.08383792     6    113    0    0    0
H 1116.45444639 47.01332296 -27.74093052     6    113    0    0    0
C 1112.61329484 47.39270458 -26.44403163     2    113   117   118   119
H 1113.02592316 47.42597433 -24.53523452     6    116    0    0    0
H 1110.92542931 48.62043861 -26.84711591     6    116    0    0    0
C 1111.84517210 44.68924148 -26.68842642     2    116   120   121   122
H 1110.22090616 44.18097681 -25.55592261     6    119    0    0    0
H 1111.21729969 44.35738371 -28.62615194     6    119    0    0    0
C 1113.81475488 42.72970533 -25.89588085     1    119   123   124   125
H 1113.29306680 41.01312182 -26.88700906     6    122    0    0    0
H 1113.83622419 42.41755401 -23.91473841     6    122    0    0    0
H 1115.61002682 43.24224954 -26.40124803     6    122    0    0    0
H 1139.75101520 48.03892910 -41.74691533     6     127    0    0    0 
C 1139.15770194 47.26636048 -43.53506891     1     126    128    129    130
H 1140.73038308 46.42519462 -44.50277930     6     127    0    0    0
H 1138.01328469 45.61838323 -43.41005660     6     127    0    0    0
C 1137.86685344 49.56412267 -44.91652848     2     127    131    132    133
H 1136.44780035 50.64741131 -43.84378147     6     130    0    0    0
H 1139.22775097 51.02561594 -45.24660398     6     130    0    0    0
C 1136.68996862 48.62119982 -47.43991724     2     130    134   135   136
H 1138.01637708 47.77308235 -48.69043491     6     133    0    0    0
H 1135.46949911 47.00020665 -47.25198840     6     133    0    0    0
C 1135.46367820 50.76205182 -49.02861079     2     133   137   138   139
H 1133.94955103 51.77146075 -48.22565594     6    136    0    0    0
H 1136.75484995 52.12280684 -49.58470949     6    136    0    0    0
C 1134.61784295 49.47049282 -51.48542803     2    136   140   141   142
H 1136.12630828 48.32827042 -52.39609531     6    139    0    0    0
H 1133.04003129 48.08330596 -51.21093475     6    139    0    0    0
C 1133.69832144 51.39918535 -53.66145457     2    139   143   144   145
H 1132.22819505 52.65921162 -52.76756576     6    142    0    0    0
H 1135.37172538 52.65226289 -54.00082970     6    142    0    0    0
C 1132.96507370 49.78930544 -55.92349040     2    142   146   147   148
H 1134.53915876 48.77140534 -56.68245794     6    145    0    0    0
H 1131.72584021 48.30847210 -55.37615323     6    145    0    0    0
C 1131.67987222 51.51208395 -57.90710521     2    145   149   150   151
H 1130.06793143 52.54623723 -57.10248855     6    148    0    0    0
H 1133.11103174 52.87349311 -58.65255204     6    148    0    0    0
C 1130.32632890 50.23626515 -60.20765047     2    148   152   153   154
H 1131.70962405 49.05507809 -61.35821068     6    151    0    0    0
H 1128.70628433 48.99156746 -59.75857688     6    151    0    0    0
C 1129.73274157 52.25999027 -62.23557085     2    151   155   156   157
H 1128.90545637 53.90191650 -61.47785659     6    154    0    0    0
H 1131.59115225 52.97031690 -63.02291285     6    154    0    0    0
C 1128.25673045 51.20033217 -64.40768810     2    154   158   159   160
H 1129.43681402 49.71538348 -65.22929277     6    157    0    0    0
H 1126.56293874 50.20834717 -63.76057781     6    157    0    0    0
C 1127.66255105 53.00306282 -66.54416378     1    157   161   162   163
H 1125.79307084 52.72823761 -67.53035679     6    160    0    0    0
H 1129.14842760 53.59546069 -67.80261547     6    160    0    0    0
H 1127.17812724 54.86030638 -65.67420202     6    160    0    0    0
H 1129.66880126 34.84566450 -23.68582406     6     165    0    0    0 
C 1131.48231408 33.89602870 -23.61885692     1     164    166    167    168
H 1132.73064498 34.82510748 -22.34831491     6     165    0    0    0
H 1131.46134564 31.91489701 -22.92087889     6     165    0    0    0
C 1132.45983107 34.21069085 -26.28512060     2     165    169    170    171
H 1130.91379070 33.33809765 -27.29364334     6     168    0    0    0
H 1132.45469168 36.18177165 -27.03533889     6     168    0    0    0
C 1134.83640534 32.62910406 -26.79367793     2     168    172   173   174
H 1136.00619701 32.63430034 -25.12384679     6     171    0    0    0
H 1133.97772249 30.76364953 -26.94560574     6     171    0    0    0
C 1136.18831973 33.55066066 -29.30865513     2     171   175   176   177
H 1134.96722798 33.89967611 -30.79250297     6    174    0    0    0
H 1137.30302533 35.44412653 -28.72845185     6    174    0    0    0
C 1137.94793742 31.51213215 -30.21207813     2    174   178   179   180
H 1139.27372576 30.79851739 -28.91892806     6    177    0    0    0
H 1136.94301986 29.71181482 -30.55881026     6    177    0    0    0
C 1139.44642285 32.48635045 -32.48775212     2    177   181   182   183
H 1138.29707558 32.09323616 -34.09552561     6    180    0    0    0
H 1139.50900800 34.62724380 -32.54722872     6    180    0    0    0
C 1142.01809035 31.21409668 -33.07788064     2    180   184   185   186
H 1143.06056186 31.30815188 -31.30459398     6    183    0    0    0
H 1141.92750548 29.24414692 -33.48524134     6    183    0    0    0
C 1143.44280628 32.59503071 -35.12868415     2    183   187   188   189
H 1142.49364573 32.22915998 -36.91237144     6    186    0    0    0
H 1143.54639379 34.54969353 -34.93169162     6    186    0    0    0
C 1146.18238566 31.52742508 -35.45699678     2    186   190   191   192
H 1147.24023495 31.70720784 -33.75265981     6    189    0    0    0
H 1146.44764537 29.54715187 -35.64864594     6    189    0    0    0
C 1147.41407279 33.04262730 -37.64891071     2    189   193   194   195
H 1145.96345352 33.21022617 -39.10652450     6    192    0    0    0
H 1147.65671656 34.98129017 -37.17768360     6    192    0    0    0
C 1149.76626057 31.70169504 -38.56787402     2    192   196   197   198
H 1150.90453868 31.52220138 -36.84494658     6    195    0    0    0
H 1149.49800308 29.73449216 -39.12685630     6    195    0    0    0
C 1151.22234880 33.21181659 -40.52792220     1    195   199   200   201
H 1152.61472966 32.01850241 -41.26007684     6    198    0    0    0
H 1152.30268007 34.69620306 -39.38042189     6    198    0    0    0
H 1149.79953787 34.00366621 -41.94230164     6    198    0    0    0
H 1130.59675740 28.91752018 -34.05373295     6     203    0    0    0 
C 1132.60894466 28.19112427 -33.94630365     1     202    204    205    206
H 1133.12648558 28.12543552 -36.05894514     6     203    0    0    0
H 1133.77570652 29.69394443 -32.92505842     6     203    0    0    0
C 1132.92832643 25.48839828 -32.72790838     2     203    207    208    209
H 1134.84590555 25.25361233 -31.94785124     6     206    0    0    0
H 1131.72237003 25.37084111 -31.15269150     6     206    0    0    0
C 1132.25292789 23.11135804 -34.24600788     2     206    210   211   212
H 1132.30035888 21.62630485 -32.85983882     6     209    0    0    0
H 1130.39113965 23.51390308 -34.80711751     6     209    0    0    0
C 1134.13988257 22.43664801 -36.31865223     2     209   213   214   215
H 1133.80928935 23.99326652 -37.70983559     6    212    0    0    0
H 1136.01300136 22.57996097 -35.35258237     6    212    0    0    0
C 1133.44916830 19.90373278 -37.51470728     2    212   216   217   218
H 1133.63160889 18.36683078 -36.26153633     6    215    0    0    0
H 1131.45144645 19.84120747 -38.01751801     6    215    0    0    0
C 1134.88772530 19.31102283 -39.87643029     2    215   219   220   221
H 1135.03531876 20.84048858 -41.17913540     6    218    0    0    0
H 1136.87100343 18.91713437 -39.58096955     6    218    0    0    0
C 1133.95286080 16.92369532 -41.14658501     2    218   222   223   224
H 1133.92396674 15.33183955 -39.87759003     6    221    0    0    0
H 1131.89841642 17.12938713 -41.19841066     6    221    0    0    0
C 1135.12019533 16.42574072 -43.81584444     2    221   225   226   227
H 1135.29294096 18.37114306 -44.60162431     6    224    0    0    0
H 1137.15025059 15.73333762 -43.49965438     6    224    0    0    0
C 1133.79014504 14.53501793 -45.53181198     2    224   228   229   230
H 1133.58567301 12.79818634 -44.40640756     6    227    0    0    0
H 1131.84670408 15.17418785 -45.92328873     6    227    0    0    0
C 1135.46471630 13.96962484 -47.94797953     2    227   231   232   233
H 1135.41169174 15.67557785 -49.08280441     6    230    0    0    0
H 1137.47700186 14.01635991 -47.47842572     6    230    0    0    0
C 1134.77104681 11.76230533 -49.67538495     2    230   234   235   236
H 1134.39254360 9.99199038 -48.57649106     6    233    0    0    0
H 1133.23981076 12.31287037 -50.91603295     6    233    0    0    0
C 1136.75472962 11.45138416 -51.76757563     1    233   237   238   239
H 1138.71428267 11.02015556 -50.96069376     6    236    0    0    0
H 1136.93767878 13.04755063 -53.03871627     6    236    0    0    0
H 1136.37654376 9.80543788 -52.88780319     6    236    0    0    0
H 1111.32288397 26.50637424 -33.55631308     6     241    0    0    0 
C 1110.96369033 28.39421565 -34.54024342     1     240    242    243    244
H 1112.53564392 29.62306610 -34.34241940     6     241    0    0    0
H 1110.75185966 27.83197935 -36.49421048     6     241    0    0    0
C 1108.64730621 29.79166612 -33.64593404     2     241    245    246    247
H 1108.96167559 30.70463584 -31.77774983     6     244    0    0    0
H 1108.24492870 31.42429250 -34.90982911     6     244    0    0    0
C 1106.20124805 28.07583609 -33.55625928     2     244    248   249   250
H 1105.90301916 27.30151631 -35.35952130     6     247    0    0    0
H 1106.49348913 26.59448292 -32.12442371     6     247    0    0    0
C 1103.80500715 29.35453891 -32.56385854     2     247   251   252   253
H 1104.62232777 30.29902354 -31.05995617     6    250    0    0    0
H 1103.23143482 30.89831197 -33.85741563     6    250    0    0    0
C 1101.51781690 27.51282211 -31.82861836     2    250   254   255   256
H 1102.10854338 26.20115929 -30.38539962     6    253    0    0    0
H 1099.91906684 28.56199654 -30.92151220     6    253    0    0    0
C 1100.52624109 25.91669909 -33.93967666     2    253   257   258   259
H 1099.60662329 26.94158342 -35.58637699     6    256    0    0    0
H 1102.10769787 24.85205019 -34.60351305     6    256    0    0    0
C 1098.68323166 23.93794395 -33.06098372     2    256   260   261   262
H 1099.21218294 23.10774806 -31.18531123     6    259    0    0    0
H 1096.77897761 24.62853547 -32.57790520     6    259    0    0    0
C 1098.16138344 21.86560131 -35.06398540     2    259   263   264   265
H 1097.23308252 22.64791804 -36.73025993     6    262    0    0    0
H 1099.93234235 21.00460915 -35.64814662     6    262    0    0    0
C 1096.69895043 19.68096462 -33.89363002     2    262   266   267   268
H 1097.55889675 19.12124082 -32.12361178     6    265    0    0    0
H 1094.95493622 20.43149012 -33.24126079     6    265    0    0    0
C 1096.53611672 17.45958506 -35.96648792     2    265   269   270   271
H 1095.15437301 18.01842350 -37.35293396     6    268    0    0    0
H 1098.31404003 17.26569039 -36.97267179     6    268    0    0    0
C 1095.42701474 15.03535244 -34.88743950     2    268   272   273   274
H 1096.03872683 14.67275425 -32.89411271     6    271    0    0    0
H 1093.46885411 15.44734882 -35.31126430     6    271    0    0    0
C 1096.20252102 12.89526089 -36.54636292     1    271   275   276   277
H 1096.31475576 13.37590421 -38.58314165     6    274    0    0    0
H 1095.09281927 11.16016885 -36.45021808     6    274    0    0    0
H 1098.20677358 12.47301602 -36.06446011     6    274    0    0    0
H 1128.70524237 45.61761510 -30.48765035     6     279    0    0    0 
C 1127.28900912 44.14843049 -30.69195891     1     278    280    281    282
H 1125.81422567 44.49403111 -29.38935716     6     279    0    0    0
H 1126.29298515 44.35720564 -32.48871188     6     279    0    0    0
C 1128.31927578 41.60922817 -30.12972882     2     279    283    284    285
H 1129.78695645 41.15633934 -31.56382209     6     282    0    0    0
H 1129.03109455 41.80727313 -28.25174211     6     282    0    0    0
C 1126.27441650 39.59217072 -30.43579767     2     282    286   287   288
H 1125.08514969 39.41508202 -28.84592791     6     285    0    0    0
H 1124.97556124 40.11032255 -31.79557385     6     285    0    0    0
C 1127.39425791 37.03046948 -31.25121800     2     285   289   290   291
H 1128.77582413 37.25042786 -32.89662803     6    288    0    0    0
H 1128.46299859 36.45021064 -29.60904002     6    288    0    0    0
C 1125.45953121 34.94478180 -31.96603776     2    288   292   293   294
H 1124.15792101 34.66479260 -30.36498171     6    291    0    0    0
H 1124.47535228 35.83535280 -33.57839670     6    291    0    0    0
C 1126.41594078 32.34497543 -32.87104880     2    291   295   296   297
H 1126.96712118 32.20105198 -34.85549220     6    294    0    0    0
H 1127.92440584 31.95078136 -31.60134637     6    294    0    0    0
C 1124.35908341 30.33034390 -32.44204192     2    294   298   299   300
H 1123.74778799 30.34106963 -30.55550680     6    297    0    0    0
H 1122.79437849 30.97833639 -33.47525779     6    297    0    0    0
C 1124.97232157 27.56571524 -32.91068274     2    297   301   302   303
H 1125.91305844 27.37514037 -34.73869712     6    300    0    0    0
H 1126.18786876 26.97873322 -31.32598972     6    300    0    0    0
C 1122.44360216 25.98755397 -32.83239687     2    300   304   305   306
H 1121.66788347 25.95977901 -30.93324078     6    303    0    0    0
H 1120.95867968 26.94080413 -33.95229675     6    303    0    0    0
C 1123.00339579 23.20636462 -33.81722032     2    303   307   308   309
H 1123.02913111 23.19689002 -35.82645839     6    306    0    0    0
H 1124.84181781 22.55283521 -33.30869076     6    306    0    0    0
C 1121.14610758 21.23111844 -32.94879565     2    306   310   311   312
H 1121.77943155 20.27783094 -31.11202905     6    309    0    0    0
H 1119.27558008 22.14878610 -32.91586399     6    309    0    0    0
C 1121.23218310 19.10500972 -34.89590227     1    309   313   314   315
H 1120.54668541 19.55609883 -36.73639588     6    312    0    0    0
H 1120.04577778 17.46753785 -34.37506665     6    312    0    0    0
H 1123.25760245 18.39317425 -35.12094377     6    312    0    0    0
H 1128.37959209 48.63789750 -44.77329394     6     317    0    0    0 
C 1126.48580963 48.90582970 -44.25818300     1     316    318    319    320
H 1125.59358982 47.01806283 -44.43677595     6     317    0    0    0
H 1126.13859326 49.52187541 -42.33832117     6     317    0    0    0
C 1125.14590900 50.58518862 -46.31229201     2     317    321    322    323
H 1123.04883054 50.71999206 -45.86035766     6     320    0    0    0
H 1125.77259265 52.64132794 -46.44021099     6     320    0    0    0
C 1125.37362443 49.42310200 -49.03934263     2     320    324   325   326
H 1127.32535917 49.19336140 -49.64248134     6     323    0    0    0
H 1124.55590701 47.53601758 -48.92472129     6     323    0    0    0
C 1123.90813679 51.11476315 -50.91488966     2     323   327   328   329
H 1121.92126564 50.75882333 -50.27794964     6    326    0    0    0
H 1124.40199683 53.15729400 -50.74362425     6    326    0    0    0
C 1124.26225236 50.44361872 -53.72670370     2    326   330   331   332
H 1126.25596452 50.37954195 -54.41218112     6    329    0    0    0
H 1123.64094470 48.47132231 -53.85882506     6    329    0    0    0
C 1122.72528173 52.00828976 -55.48671585     2    329   333   334   335
H 1120.86908808 51.78608926 -55.01586763     6    332    0    0    0
H 1123.25040939 53.93644704 -55.13816117     6    332    0    0    0
C 1122.98568590 51.12179186 -58.35669202     2    332   336   337   338
H 1124.90704181 51.36516430 -58.85617463     6    335    0    0    0
H 1122.73084070 49.03461503 -58.65171173     6    335    0    0    0
C 1121.05587140 52.65529438 -59.87280116     2    335   339   340   341
H 1119.21090134 51.68625786 -59.60171820     6    338    0    0    0
H 1120.85316188 54.63458131 -59.41429572     6    338    0    0    0
C 1121.69394575 52.41069774 -62.69440184     2    338   342   343   344
H 1123.58925961 53.13015307 -63.05860223     6    341    0    0    0
H 1121.52358392 50.47567991 -63.17034965     6    341    0    0    0
C 1120.08497123 54.03009326 -64.35611587     2    341   345   346   347
H 1120.58446077 53.29031444 -66.27050561     6    344    0    0    0
H 1118.16345735 53.52696808 -63.77916765     6    344    0    0    0
C 1120.48101369 56.89567760 -64.34201220     2    344   348   349   350
H 1120.40165309 57.74230162 -62.45455913     6    347    0    0    0
H 1122.39406974 57.54005915 -64.83488826     6    347    0    0    0
C 1118.46910833 58.19723919 -66.12298391     1    347   351   352   353
H 1118.90028374 60.14136338 -66.13801608     6    350    0    0    0
H 1116.49559870 57.87054207 -65.26177081     6    350    0    0    0
H 1118.82545162 57.53771937 -68.04077865     6    350    0    0    0
H 1116.45113398 30.34429556 -39.69382907     6     355    0    0    0 
C 1114.99899516 31.87325118 -39.76575328     1     354    356    357    358
H 1114.14706248 31.88204933 -41.63394660     6     355    0    0    0
H 1113.30857961 31.40163929 -38.61015500     6     355    0    0    0
C 1116.21746938 34.36654447 -39.08795646     2     355    359    360    361
H 1114.98492194 35.98433554 -39.19166587     6     358    0    0    0
H 1116.45119094 34.21172037 -36.98398062     6     358    0    0    0
C 1118.62625816 34.88633867 -40.50979095     2     358    362   363   364
H 1119.47835130 33.17791638 -40.56831128     6     361    0    0    0
H 1118.07999759 35.47957688 -42.49749946     6     361    0    0    0
C 1120.14108038 37.04722421 -39.06923960     2     361   365   366   367
H 1119.02479574 38.77242408 -38.66416368     6    364    0    0    0
H 1120.83457043 36.12283393 -37.43653048     6    364    0    0    0
C 1122.47651152 37.89487841 -40.47924811     2    364   368   369   370
H 1123.75544983 36.31912382 -40.93691546     6    367    0    0    0
H 1121.90651658 38.94247086 -42.23201297     6    367    0    0    0
C 1123.82785860 39.86744602 -38.81701959     2    367   371   372   373
H 1122.56019711 41.44826148 -38.55504408     6    370    0    0    0
H 1123.93938248 39.07096795 -36.82952824     6    370    0    0    0
C 1126.33595538 40.77047200 -39.83983924     2    370   374   375   376
H 1127.40953153 39.06130987 -40.37381195     6    373    0    0    0
H 1126.00227356 41.93308843 -41.34318712     6    373    0    0    0
C 1127.81535399 42.36642501 -37.93393582     2    373   377   378   379
H 1127.03107352 44.11434194 -37.26281324     6    376    0    0    0
H 1128.06409983 41.22553782 -36.27464245     6    376    0    0    0
C 1130.42748559 43.22537024 -38.99236412     2    376   380   381   382
H 1131.30702116 41.65612754 -39.95750503     6    379    0    0    0
H 1130.36526193 44.76804449 -40.30210238     6    379    0    0    0
C 1132.16284500 43.91338850 -36.82879220     2    379   383   384   385
H 1131.30218884 44.84264825 -35.34118592     6    382    0    0    0
H 1132.49759874 42.06532168 -35.88242861     6    382    0    0    0
C 1134.66355576 45.37076509 -37.40475602     2    382   386   387   388
H 1136.01476592 45.06821467 -35.83959061     6    385    0    0    0
H 1135.27926014 44.56292984 -39.25556439     6    385    0    0    0
C 1133.88786145 48.09416685 -37.76283402     1    385   389   390   391
H 1133.20941625 48.95407268 -35.96345780     6    388    0    0    0
H 1132.30028893 48.56885422 -39.12316719     6    388    0    0    0
H 1135.46863938 49.36870865 -38.26150876     6    388    0    0    0
H 1116.15143075 43.32405952 -87.58750753     6     393    0    0    0 
C 1115.98762710 41.84551609 -86.08938104     1     392    394    395    396
H 1116.33867540 40.03218856 -87.11706048     6     393    0    0    0
H 1117.32623661 42.45991391 -84.65286844     6     393    0    0    0
C 1113.35243314 41.98872693 -84.88547607     2     393    397    398    399
H 1113.33775431 43.92201495 -83.94144892     6     396    0    0    0
H 1111.81347822 42.06716379 -86.23533569     6     396    0    0    0
C 1112.72387248 40.24935406 -82.68487201     2     396    400   401   402
H 1112.45176899 38.33034488 -83.21334415     6     399    0    0    0
H 1114.44021714 40.33225610 -81.39537372     6     399    0    0    0
C 1110.42721827 40.98235650 -81.13059009     2     399   403   404   405
H 1110.72571563 42.81490340 -80.16802298     6    402    0    0    0
H 1109.02938095 41.59038919 -82.51995969     6    402    0    0    0
C 1109.51956024 38.84207311 -79.28801779     2    402   406   407   408
H 1108.76133201 37.36169104 -80.48083694     6    405    0    0    0
H 1111.08373090 38.06570371 -78.19128845     6    405    0    0    0
C 1107.69679726 39.83228458 -77.32013094     2    405   409   410   411
H 1108.45365659 41.54491607 -76.48593203     6    408    0    0    0
H 1105.98723063 40.32736021 -78.32918397     6    408    0    0    0
C 1106.93327849 38.06276974 -75.11861902     2    408   412   413   414
H 1106.12583409 36.51337337 -76.15452401     6    411    0    0    0
H 1108.72232818 37.56614401 -74.15546916     6    411    0    0    0
C 1105.05457994 38.86940009 -73.17229867     2    411   415   416   417
H 1105.87583889 40.28903238 -71.99088820     6    414    0    0    0
H 1103.46824128 39.74974827 -74.15349997     6    414    0    0    0
C 1104.16084547 36.76328704 -71.53001359     2    414   418   419   420
H 1103.23918814 35.45023313 -72.78058966     6    417    0    0    0
H 1105.85227888 35.76586179 -71.04212187     6    417    0    0    0
C 1102.63296706 37.44183687 -69.24629141     2    417   421   422   423
H 1103.90761033 38.42712655 -67.94317728     6    420    0    0    0
H 1100.94145648 38.57086308 -69.68288878     6    420    0    0    0
C 1101.93046543 35.17385475 -67.59252521     2    420   424   425   426
H 1100.87853421 35.95159573 -65.96369201     6    423    0    0    0
H 1100.46292251 33.93381873 -68.49680378     6    423    0    0    0
C 1104.03632345 33.19814981 -66.93088412     1    423   427   428   429
H 1103.39205195 32.05228397 -65.30027469     6    426    0    0    0
H 1105.81620281 34.05114104 -66.46822741     6    426    0    0    0
H 1104.42387747 31.83478914 -68.52355042     6    426    0    0    0
H 1092.22132232 47.65376213 -54.10529566     6     431    0    0    0 
C 1092.52927333 49.55923910 -54.57032524     1     430    432    433    434
H 1090.46869246 49.97837237 -54.53794016     6     431    0    0    0
H 1093.33646293 50.63966173 -53.08132838     6     431    0    0    0
C 1093.84434167 50.13739440 -57.08775389     2     431    435    436    437
H 1095.66903770 49.06463409 -57.25400005     6     434    0    0    0
H 1092.77110962 49.21064067 -58.65307457     6     434    0    0    0
C 1094.31196831 52.99049155 -57.58811052     2     434    438   439   440
H 1092.56100745 53.94755256 -58.26101142     6     437    0    0    0
H 1094.68012662 54.06412434 -55.80273919     6     437    0    0    0
C 1096.38450136 53.50671762 -59.54232249     2     437   441   442   443
H 1097.20409181 55.40207857 -59.36298862     6    440    0    0    0
H 1097.91534319 52.24664861 -59.07888186     6    440    0    0    0
C 1095.67253516 53.19444172 -62.33528669     2    440   444   445   446
H 1095.53758900 51.14569887 -62.92909611     6    443    0    0    0
H 1093.92892829 54.28513050 -62.75168478     6    443    0    0    0
C 1097.75626185 54.23708559 -63.96091615     2    443   447   448   449
H 1097.93988870 56.31533331 -63.52051294     6    446    0    0    0
H 1099.62127889 53.50811123 -63.54412877     6    446    0    0    0
C 1096.99619990 53.46643707 -66.69867662     2    446   450   451   452
H 1096.71140306 51.44034389 -66.92712886     6    449    0    0    0
H 1095.18944274 54.38957687 -67.35683019     6    449    0    0    0
C 1099.01927696 54.36351054 -68.65141752     2    449   453   454   455
H 1099.90698939 56.21942796 -68.12436831     6    452    0    0    0
H 1100.74109625 53.16778036 -68.52802909     6    452    0    0    0
C 1097.77615466 54.77859758 -71.37348643     2    452   456   457   458
H 1096.97861948 52.94590700 -71.81480770     6    455    0    0    0
H 1096.39528483 56.28273448 -71.17043988     6    455    0    0    0
C 1099.46935880 55.76652866 -73.61142687     2    455   459   460   461
H 1098.04720067 56.22994819 -75.12580123     6    458    0    0    0
H 1100.41095773 57.49231429 -72.98985056     6    458    0    0    0
C 1101.57388248 53.93012176 -74.54122459     2    458   462   463   464
H 1102.73897477 53.64759855 -72.85024117     6    461    0    0    0
H 1100.66988376 52.22204349 -74.95940309     6    461    0    0    0
C 1103.24001871 55.11493556 -76.45794429     1    461   465   466   467
H 1104.04546412 56.85326292 -75.78540964     6    464    0    0    0
H 1102.03764720 55.55361285 -78.01549488     6    464    0    0    0
H 1104.70541869 53.71861603 -77.00360218     6    464    0    0    0
H 1125.84543916 51.55441279 -36.81445683     6     469    0    0    0 
C 1124.15992419 52.43809825 -37.69977844     1     468    470    471    472
H 1123.60160596 54.15335963 -36.56800768     6     469    0    0    0
H 1124.60335682 53.10320087 -39.62242562     6     469    0    0    0
C 1121.80720545 50.54336739 -37.85726136     2     469    473    474    475
H 1120.00418395 51.58111983 -38.18592759     6     472    0    0    0
H 1121.91801799 49.14660316 -39.48746992     6     472    0    0    0
C 1121.62781216 49.04092215 -35.29021374     2     472    476   477   478
H 1123.41110370 48.13389991 -34.95588044     6     475    0    0    0
H 1121.29502605 50.06739900 -33.56502114     6     475    0    0    0
C 1119.60272812 46.94000453 -35.63169624     2     475   479   480   481
H 1117.74233952 47.73126293 -35.65629182     6    478    0    0    0
H 1119.81359885 45.91809484 -37.42839685     6    478    0    0    0
C 1119.75726560 44.98389144 -33.51125428     2    478   482   483   484
H 1121.68455794 44.22809936 -33.20090436     6    481    0    0    0
H 1119.22837322 45.98546790 -31.70874159     6    481    0    0    0
C 1118.12486282 42.81882031 -33.96069277     2    481   485   486   487
H 1116.27718595 43.35870412 -34.55708444     6    484    0    0    0
H 1119.03275725 41.99782075 -35.69115794     6    484    0    0    0
C 1117.97188961 40.94664683 -31.65359106     2    484   488   489   490
H 1119.85727649 40.24456875 -31.02884661     6    487    0    0    0
H 1117.06198779 41.92156454 -30.07855519     6    487    0    0    0
C 1116.51289640 38.63873954 -32.33745849     2    487   491   492   493
H 1114.54887613 39.08124113 -32.48029976     6    490    0    0    0
H 1117.05791287 37.70677517 -34.01569655     6    490    0    0    0
C 1116.61034165 36.79730887 -30.15585823     2    490   494   495   496
H 1118.63758906 36.41248113 -29.90928311     6    493    0    0    0
H 1115.89566266 37.71373126 -28.43369662     6    493    0    0    0
C 1115.41378024 34.14705230 -30.58135714     2    493   497   498   499
H 1113.31152577 34.28392054 -30.78492821     6    496    0    0    0
H 1115.85879537 33.37313535 -32.45201019     6    496    0    0    0
C 1116.31211749 32.35487338 -28.51646701     2    496   500   501   502
H 1118.29790734 32.09573720 -28.55475671     6    499    0    0    0
H 1115.93558909 33.20187523 -26.62145308     6    499    0    0    0
C 1115.14017457 29.70761092 -28.56804898     1    499   503   504   505
H 1115.95053819 28.52902568 -27.07482493     6    502    0    0    0
H 1115.23007550 28.99306913 -30.45641366     6    502    0    0    0
H 1113.16863754 29.82658388 -28.15213252     6    502    0    0    0
H 1092.54165420 39.03986849 -49.39448296     6     507    0    0    0 
C 1093.91327965 37.49081949 -49.74380560     1     506    508    509    510
H 1095.69033319 37.90926778 -48.75503184     6     507    0    0    0
H 1093.52625611 35.67560848 -48.71759614     6     507    0    0    0
C 1093.94101768 36.60201745 -52.49450523     2     507    511    512    513
H 1095.00259326 34.88736220 -52.65064469     6     510    0    0    0
H 1092.02902843 35.82919678 -53.00086794     6     510    0    0    0
C 1095.20328038 38.49497780 -54.46417757     2     510    514   515   516
H 1095.09766484 40.52388214 -53.84688761     6     513    0    0    0
H 1097.13047377 38.01783700 -54.74696625     6     513    0    0    0
C 1093.85777875 38.57300828 -57.04859839     2     513   517   518   519
H 1093.98678846 36.50512505 -57.65563214     6    516    0    0    0
H 1091.94411611 39.06073918 -56.64534587     6    516    0    0    0
C 1094.97146445 40.33114097 -59.06710203     2    516   520   521   522
H 1094.81790480 42.31342146 -58.29951136     6    519    0    0    0
H 1096.89143786 39.78594230 -59.56330784     6    519    0    0    0
C 1093.44442230 40.64636338 -61.44384083     2    519   523   524   525
H 1092.92255225 38.85092387 -62.18042150     6    522    0    0    0
H 1091.64799046 41.52403288 -61.09121914     6    522    0    0    0
C 1094.81576920 42.11765786 -63.49315120     2    522   526   527   528
H 1095.33711185 43.98769021 -62.70430113     6    525    0    0    0
H 1096.62012611 41.36750745 -63.94868852     6    525    0    0    0
C 1093.40527053 42.28479464 -66.02376909     2    525   529   530   531
H 1092.47852769 40.51579599 -66.68282754     6    528    0    0    0
H 1091.85509722 43.62754648 -65.88727877     6    528    0    0    0
C 1095.13780615 43.43487024 -68.06148298     2    528   532   533   534
H 1095.70774588 45.23214720 -67.20377983     6    531    0    0    0
H 1096.92808742 42.29318767 -68.13967285     6    531    0    0    0
C 1093.92381266 44.04692527 -70.71993029     2    531   535   536   537
H 1093.22564738 42.21963457 -71.38855701     6    534    0    0    0
H 1092.19932179 45.29556496 -70.36470745     6    534    0    0    0
C 1095.83641341 45.26972669 -72.41499584     2    534   538   539   540
H 1096.89366543 46.71472098 -71.21113943     6    537    0    0    0
H 1097.29602819 43.82628535 -72.99136272     6    537    0    0    0
C 1094.68822640 46.63604089 -74.74620209     1    537   541   542   543
H 1096.23008719 47.40219907 -75.78315440     6    540    0    0    0
H 1093.34588171 48.22134501 -74.43506138     6    540    0    0    0
H 1093.72997402 45.23660729 -75.89097584     6    540    0    0    0
H 1111.26528065 50.41259628 -68.69563192     6     545    0    0    0 
C 1112.56793481 48.75192837 -69.13502685     1     544    546    547    548
H 1112.19732072 47.23047185 -67.66204842     6     545    0    0    0
H 1112.17633765 47.81840654 -70.81820377     6     545    0    0    0
C 1115.34283898 49.43540135 -68.88882928     2     545    549    550    551
H 1115.77791173 51.12986422 -70.09433331     6     548    0    0    0
H 1115.63951146 50.11240504 -66.97956809     6     548    0    0    0
C 1117.27190346 47.38993972 -69.45872757     2     548    552   553   554
H 1117.04176625 45.73212439 -68.41256873     6     551    0    0    0
H 1117.02248583 46.88441470 -71.47524240     6     551    0    0    0
C 1119.96210696 48.21838678 -68.77175427     2     551   555   556   557
H 1120.36388907 49.98191589 -69.64935953     6    554    0    0    0
H 1120.09708059 48.40377187 -66.78200429     6    554    0    0    0
C 1122.05929582 46.31906982 -69.73789163     2    554   558   559   560
H 1121.79421022 44.75244809 -68.60632529     6    557    0    0    0
H 1121.95464889 45.96693374 -71.74081155     6    557    0    0    0
C 1124.87034081 47.12653323 -69.25002152     2    557   561   562   563
H 1125.10080761 49.03449727 -70.02615831     6    560    0    0    0
H 1125.39288268 47.41312656 -67.30890814     6    560    0    0    0
C 1126.79379498 45.27320069 -70.50766490     2    560   564   565   566
H 1126.46527169 43.18506536 -69.91227253     6    563    0    0    0
H 1126.82831504 45.28191449 -72.62982311     6    563    0    0    0
C 1129.50598623 45.82520080 -69.75986664     2    563   567   568   569
H 1129.84854345 47.80056350 -70.26944825     6    566    0    0    0
H 1129.73605362 45.82165806 -67.74376167     6    566    0    0    0
C 1131.38060329 44.18831781 -71.08441320     2    566   570   571   572
H 1130.91334453 42.22317232 -70.52132871     6    569    0    0    0
H 1131.62021019 44.61513929 -73.01554521     6    569    0    0    0
C 1134.03525753 44.47026926 -70.24491768     2    569   573   574   575
H 1134.44847643 46.60269452 -70.27982904     6    572    0    0    0
H 1134.43502920 43.82833496 -68.34772619     6    572    0    0    0
C 1135.99417889 43.22221052 -72.11272178     2    572   576   577   578
H 1135.67247148 43.71255327 -74.22611172     6    575    0    0    0
H 1137.75046796 44.23804547 -71.81665550     6    575    0    0    0
C 1136.19904129 40.40337688 -72.02066628     1    575   579   580   581
H 1134.43292588 39.23785121 -72.13985650     6    578    0    0    0
H 1136.84312235 39.87467576 -70.19210408     6    578    0    0    0
H 1137.67868464 39.60948739 -73.29536665     6    578    0    0    0
H 1130.29694862 35.46592222 -37.97195870     6     583    0    0    0 
C 1132.16733366 35.11105556 -37.58722681     1     582    584    585    586
H 1132.95422132 36.17726639 -35.97804779     6     583    0    0    0
H 1132.06269126 33.16966815 -37.06431720     6     583    0    0    0
C 1133.80302871 35.42840418 -39.88617075     2     583    587    588    589
H 1133.26380784 34.09380234 -41.29764349     6     586    0    0    0
H 1133.24307485 37.38297019 -40.57727070     6     586    0    0    0
C 1136.77225620 35.06784830 -39.37471872     2     586    590   591   592
H 1137.00582086 35.94385943 -37.50712057     6     589    0    0    0
H 1137.46679202 33.15141134 -39.02140935     6     589    0    0    0
C 1138.21636400 36.89031957 -41.06137885     2     589   593   594   595
H 1137.59603711 36.76651501 -43.13950554     6    592    0    0    0
H 1137.97276348 38.77259730 -40.23473538     6    592    0    0    0
C 1141.03903168 36.61176592 -40.86118740     2    592   596   597   598
H 1141.39563572 36.58848653 -38.87699557     6    595    0    0    0
H 1141.54182507 34.75137023 -41.81839776     6    595    0    0    0
C 1142.75003609 38.60502645 -42.23692555     2    595   599   600   601
H 1142.44911849 40.64114479 -41.63813082     6    598    0    0    0
H 1144.72544199 38.20832739 -41.71421218     6    598    0    0    0
C 1142.29660710 38.41468285 -45.16525766     2    598   602   603   604
H 1142.18693941 36.46635805 -45.59558388     6    601    0    0    0
H 1140.51020346 39.38977957 -45.58865143     6    601    0    0    0
C 1144.46884686 39.60841351 -46.66725873     2    601   605   606   607
H 1144.32587510 41.68051380 -46.50624178     6    604    0    0    0
H 1146.15420279 38.99754322 -45.82841422     6    604    0    0    0
C 1144.42966297 38.53370160 -49.37303128     2    604   608   609   610
H 1144.29330780 36.41471151 -49.51776312     6    607    0    0    0
H 1142.82994775 39.32346618 -50.41131622     6    607    0    0    0
C 1146.75206297 39.36313993 -50.95156014     2    607   611   612   613
H 1147.02237083 41.41643423 -50.82966047     6    610    0    0    0
H 1148.48119455 38.43789109 -50.00603178     6    610    0    0    0
C 1146.70092443 38.51412843 -53.80531803     2    610   614   615   616
H 1146.57056844 36.43632059 -53.73697927     6    613    0    0    0
H 1145.15698007 39.22569534 -54.83234637     6    613    0    0    0
C 1149.23130483 39.05170780 -55.28693246     1    613   617   618   619
H 1149.27994892 38.08951100 -57.06907910     6    616    0    0    0
H 1150.98530988 38.38805887 -54.12173793     6    616    0    0    0
H 1149.46354422 41.13421953 -55.68046167     6    616    0    0    0
H 1118.44390537 25.35545930 -64.27616812     6     621    0    0    0 
C 1117.48615761 23.56241121 -64.72270343     1     620    622    623    624
H 1116.39706381 23.04795067 -63.04369023     6     621    0    0    0
H 1116.26059005 24.09644828 -66.13568964     6     621    0    0    0
C 1119.39678190 21.41307196 -65.23835347     2     621    625    626    627
H 1118.23103178 19.65283182 -65.17358152     6     624    0    0    0
H 1119.83974236 21.39711846 -67.25374956     6     624    0    0    0
C 1121.68265041 21.34014426 -63.56128325     2     624    628   629   630
H 1123.41243444 21.85594593 -64.71657067     6     627    0    0    0
H 1121.52859048 22.89047521 -62.33412782     6     627    0    0    0
C 1122.10611618 18.90953883 -62.00262328     2     627   631   632   633
H 1123.00757071 19.46625761 -60.19781241     6    630    0    0    0
H 1120.12230272 18.25516667 -61.40177994     6    630    0    0    0
C 1123.63030039 17.03045825 -63.62640838     2    630   634   635   636
H 1122.24570636 16.16821861 -64.67250478     6    633    0    0    0
H 1124.90222590 17.88319144 -65.00671401     6    633    0    0    0
C 1124.83667040 15.03105817 -62.04796160     2    633   637   638   639
H 1126.55413264 15.69018602 -61.12229603     6    636    0    0    0
H 1123.48477705 14.57188358 -60.68888624     6    636    0    0    0
C 1125.43593066 12.57466444 -63.54623176     2    636   640   641   642
H 1123.79283960 11.90084360 -64.55749882     6    639    0    0    0
H 1126.75170641 13.33619315 -65.11339021     6    639    0    0    0
C 1126.65198815 10.36400371 -61.97197630     2    639   643   644   645
H 1128.36872664 10.97372435 -61.04229333     6    642    0    0    0
H 1125.29627582 9.96072326 -60.63320591     6    642    0    0    0
C 1126.80385249 7.79819165 -63.35408053     2    642   646   647   648
H 1124.92856302 7.33315280 -64.02799968     6    645    0    0    0
H 1128.21917155 7.63268396 -64.77819816     6    645    0    0    0
C 1127.69505835 5.85455831 -61.39678364     2    645   649   650   651
H 1129.56282016 6.30847521 -60.68281900     6    648    0    0    0
H 1126.44395639 6.01574195 -59.69446350     6    648    0    0    0
C 1127.85145877 3.32500028 -62.67840091     2    648   652   653   654
H 1125.88247138 2.57420307 -63.17293387     6    651    0    0    0
H 1128.98792058 3.43765912 -64.31666246     6    651    0    0    0
C 1128.96884611 1.28700548 -61.07792745     1    651   655   656   657
H 1128.08413853 1.07623701 -59.30475231     6    654    0    0    0
H 1131.00675421 1.71983100 -60.62490449     6    654    0    0    0
H 1128.63468923 -0.37726735 -62.05616430     6    654    0    0    0
H 1133.27838681 30.20241956 -41.01841003     6     659    0    0    0 
C 1134.48167891 29.19478157 -42.32488043     1     658    660    661    662
H 1136.52581228 30.03247344 -42.28640553     6     659    0    0    0
H 1134.51072679 27.22626807 -41.69520860     6     659    0    0    0
C 1133.36998479 29.02062458 -45.08150921     2     659    663    664    665
H 1134.21253042 27.52522509 -46.29068313     6     662    0    0    0
H 1131.45489908 28.43650562 -44.69797200     6     662    0    0    0
C 1133.23585014 31.60811846 -46.72476530     2     662    666   667   668
H 1131.59813749 31.89811788 -48.10132926     6     665    0    0    0
H 1132.94492831 33.05890956 -45.24483769     6     665    0    0    0
C 1135.73375476 31.87009383 -48.27572675     2     665   669   670   671
H 1137.20099012 31.92605257 -46.93558233     6    668    0    0    0
H 1135.96315586 30.21098629 -49.63357222     6    668    0    0    0
C 1135.81297783 34.33488428 -49.73285365     2    668   672   673   674
H 1134.51129017 34.62203052 -51.38051480     6    671    0    0    0
H 1135.31058114 35.84560352 -48.39394510     6    671    0    0    0
C 1138.46271977 34.91454140 -50.91280229     2    671   675   676   677
H 1139.84553613 35.14937500 -49.35166833     6    674    0    0    0
H 1138.95077990 33.31109619 -52.11498593     6    674    0    0    0
C 1138.31483967 37.13387618 -52.81589456     2    674   678   679   680
H 1140.11510111 37.43302123 -53.34818290     6    677    0    0    0
H 1137.40533664 36.61346749 -54.56343776     6    677    0    0    0
C 1136.99986227 39.65392295 -51.87185553     2    677   681   682   683
H 1135.03980160 39.57843257 -51.22569059     6    680    0    0    0
H 1137.98404946 40.12644583 -50.14765081     6    680    0    0    0
C 1137.27710532 41.68774453 -53.93906637     2    680   684   685   686
H 1137.03952490 40.64359349 -55.76172013     6    683    0    0    0
H 1135.67476326 42.94246078 -53.88837366     6    683    0    0    0
C 1139.74892634 43.07905156 -53.62710999     2    683   687   688   689
H 1139.62868069 44.27802737 -51.92131606     6    686    0    0    0
H 1141.42989854 41.77664072 -53.18485561     6    686    0    0    0
C 1140.36139525 44.80702728 -55.79185430     2    686   690   691   692
H 1139.93177184 43.87064166 -57.66223200     6    689    0    0    0
H 1139.19670275 46.47356321 -55.70737645     6    689    0    0    0
C 1143.20890383 45.37462591 -55.90820568     1    689   693   694   695
H 1143.34770483 46.54884782 -57.53644183     6    692    0    0    0
H 1144.00651168 43.70114134 -56.52443724     6    692    0    0    0
H 1144.25068863 45.97010000 -54.18923349     6    692    0    0    0
H 1125.90889862 44.16219948 -77.82942018     6     697    0    0    0 
C 1127.31170535 45.09145635 -79.13007314     1     696    698    699    700
H 1127.77141260 47.01803274 -78.48815690     6     697    0    0    0
H 1129.01229567 43.95850210 -78.87679048     6     697    0    0    0
C 1126.69641742 44.90868296 -81.98612827     2     697    701    702    703
H 1128.25512623 45.36719213 -83.16041369     6     700    0    0    0
H 1126.32318176 42.94739307 -82.49514558     6     700    0    0    0
C 1124.53879601 46.50789606 -82.78374910     2     700    704   705   706
H 1125.33892389 48.47031523 -82.56268625     6     703    0    0    0
H 1124.07708041 46.36554565 -84.80324708     6     703    0    0    0
C 1122.01703168 46.25785121 -81.39737556     2     703   707   708   709
H 1121.62179405 44.31774364 -81.39660465     6    706    0    0    0
H 1122.26927119 46.77879084 -79.45661008     6    706    0    0    0
C 1119.84086308 47.80666116 -82.51226206     2    706   710   711   712
H 1120.17723773 49.84502226 -82.42628166     6    709    0    0    0
H 1119.55011023 47.35359463 -84.52432688     6    709    0    0    0
C 1117.11673851 47.40387918 -81.29373539     2    709   713   714   715
H 1116.53539226 45.59092589 -81.71801026     6    712    0    0    0
H 1117.34367356 47.57937711 -79.26926164     6    712    0    0    0
C 1115.32303911 49.27482227 -82.47219052     2    712   716   717   718
H 1115.83965570 51.26096086 -82.48862129     6    715    0    0    0
H 1115.34796501 48.97577482 -84.52376106     6    715    0    0    0
C 1112.59001211 49.25354436 -81.56888976     2    715   719   720   721
H 1111.73476281 47.39012415 -81.35577730     6    718    0    0    0
H 1112.32183279 50.00787081 -79.68610835     6    718    0    0    0
C 1110.77687298 50.77784494 -83.38243009     2    718   722   723   724
H 1111.03211309 52.78070398 -82.99814621     6    721    0    0    0
H 1111.36870026 50.55403404 -85.35107969     6    721    0    0    0
C 1107.96729815 49.99885296 -83.11027876     2    721   725   726   727
H 1108.10146196 48.01779575 -83.26103081     6    724    0    0    0
H 1107.26582329 50.52964400 -81.20070476     6    724    0    0    0
C 1106.20652088 51.16540728 -85.06047325     2    724   728   729   730
H 1107.31933116 51.28480206 -86.79089173     6    727    0    0    0
H 1104.43609939 50.00483235 -85.62794998     6    727    0    0    0
C 1105.58292301 54.08714266 -84.46659871     1    727   731   732   733
H 1104.64397489 55.05993280 -86.02678245     6    730    0    0    0
H 1107.28077045 55.14031707 -84.27125750     6    730    0    0    0
H 1104.37208466 54.12093810 -82.80527496     6    730    0    0    0
H 1116.84883566 61.36764091 -38.79614274     6     735    0    0    0 
C 1117.13343145 60.19010522 -40.48527470     1     734    736    737    738
H 1116.98258664 61.45341644 -42.10247447     6     735    0    0    0
H 1119.09618639 59.27334340 -40.26634224     6     735    0    0    0
C 1114.97306628 58.20834507 -40.56241662     2     735    739    740    741
H 1113.35730922 59.43707888 -40.40634192     6     738    0    0    0
H 1115.01508779 57.05210996 -42.29152684     6     738    0    0    0
C 1115.12337928 56.26945268 -38.38974944     2     738    742   743   744
H 1117.12356807 55.69411261 -38.32469470     6     741    0    0    0
H 1114.83810947 57.08287436 -36.50619621     6     741    0    0    0
C 1113.39840451 54.01891635 -38.83493284     2     741   745   746   747
H 1111.53874403 54.58616892 -38.36754161     6    744    0    0    0
H 1113.58554946 53.24726984 -40.69614333     6    744    0    0    0
C 1113.84790891 51.65643265 -37.15822503     2    744   748   749   750
H 1115.76456002 50.93823500 -37.53927407     6    747    0    0    0
H 1113.94537546 52.27944529 -35.25160581     6    747    0    0    0
C 1111.72077737 49.68332935 -37.12958955     2    747   751   752   753
H 1110.08765541 50.52416120 -36.41056033     6    750    0    0    0
H 1111.28410407 49.19686072 -39.09724271     6    750    0    0    0
C 1112.27795014 47.19784695 -35.69461472     2    750   754   755   756
H 1113.96270595 46.43384355 -36.52828334     6    753    0    0    0
H 1112.45045867 47.60462741 -33.67457792     6    753    0    0    0
C 1110.40801395 45.17280317 -36.28369411     2    753   757   758   759
H 1108.63196331 45.81652035 -35.68731365     6    756    0    0    0
H 1110.40489749 44.91332625 -38.39620086     6    756    0    0    0
C 1111.05702389 42.76381465 -34.83482257     2    756   760   761   762
H 1112.58004161 41.66640390 -35.60564485     6    759    0    0    0
H 1111.87748720 43.18736803 -33.12380032     6    759    0    0    0
C 1108.72120706 41.19297213 -34.28045655     2    759   763   764   765
H 1107.51898206 42.35349473 -32.97259873     6    762    0    0    0
H 1107.52285552 41.02604754 -35.90273607     6    762    0    0    0
C 1109.48240222 38.65636002 -33.14626338     2    762   766   767   768
H 1110.30122457 37.43854862 -34.67497986     6    765    0    0    0
H 1110.90515892 38.78919590 -31.60629215     6    765    0    0    0
C 1107.26842812 37.26036195 -31.95951836     1    765   769   770   771
H 1106.66914133 37.97659451 -30.20309245     6    768    0    0    0
H 1107.46216140 35.21552040 -31.89414494     6    768    0    0    0
H 1105.59110547 37.55445422 -33.28394789     6    768    0    0    0
H 1118.57269238 10.85146033 -61.69832064     6     773    0    0    0 
C 1118.13037593 9.95515942 -63.40690859     1     772    774    775    776
H 1119.99550260 9.55265243 -64.48243391     6     773    0    0    0
H 1117.53893917 7.97516956 -62.84796686     6     773    0    0    0
C 1115.97690090 11.26272692 -64.81580237     2     773    777    778    779
H 1115.60898600 10.06383160 -66.58362200     6     776    0    0    0
H 1114.23508860 11.05107191 -63.60128541     6     776    0    0    0
C 1116.18912362 14.03433747 -65.26703136     2     776    780   781   782
H 1116.40411752 15.21344522 -63.54185482     6     779    0    0    0
H 1118.01796875 14.42536685 -66.14244356     6     779    0    0    0
C 1114.13572068 14.90064406 -67.10129147     2     779   783   784   785
H 1114.50511614 13.83092908 -68.74386579     6    782    0    0    0
H 1112.24610213 14.35094334 -66.38628523     6    782    0    0    0
C 1114.10428125 17.77264614 -67.88346246     2    782   786   787   788
H 1114.25022909 18.79960652 -66.21299370     6    785    0    0    0
H 1115.88527588 18.08539570 -68.80126702     6    785    0    0    0
C 1111.93588013 18.59526782 -69.52806299     2    785   789   790   791
H 1111.87310056 17.43493674 -71.20787397     6    788    0    0    0
H 1110.23799954 18.21621428 -68.56750023     6    788    0    0    0
C 1112.10200991 21.34171090 -70.24371603     2    788   792   793   794
H 1112.63781048 22.71732813 -68.87024515     6    791    0    0    0
H 1113.70473726 21.64030339 -71.31664734     6    791    0    0    0
C 1109.76489002 22.30884380 -71.43077949     2    791   795   796   797
H 1108.72201432 21.04310497 -72.71106246     6    794    0    0    0
H 1108.47221513 22.43108744 -69.81055097     6    794    0    0    0
C 1109.95157091 24.99813257 -72.41379184     2    794   798   799   800
H 1111.16441263 26.19869203 -71.23947066     6    797    0    0    0
H 1110.98712694 24.95110181 -74.12917673     6    797    0    0    0
C 1107.24904071 26.14881704 -72.86633763     2    797   801   802   803
H 1106.38189602 24.96798450 -74.34429830     6    800    0    0    0
H 1106.08364233 25.97996135 -71.19522333     6    800    0    0    0
C 1107.44164742 28.74378890 -74.05441497     2    800   804   805   806
H 1108.62329958 30.02033402 -72.92808881     6    803    0    0    0
H 1108.36469361 28.51161136 -75.93409167     6    803    0    0    0
C 1104.94230461 29.94863980 -74.46592760     1    803   807   808   809
H 1105.03633018 31.70994020 -75.51432677     6    806    0    0    0
H 1104.08539925 30.27796718 -72.65768004     6    806    0    0    0
H 1103.50914335 28.68810085 -75.22437595     6    806    0    0    0
H 1126.06642740 32.69614815 -39.43673891     6     811    0    0    0 
C 1126.60077708 31.04128496 -40.56920895     1     810    812    813    814
H 1128.04144082 31.55063545 -41.83659503     6     811    0    0    0
H 1127.56277786 29.73595611 -39.29210711     6     811    0    0    0
C 1124.26242035 29.71415072 -41.80153019     2     811    815    816    817
H 1123.24652633 31.03881196 -43.00112130     6     814    0    0    0
H 1124.97955360 28.43861585 -43.16602480     6     814    0    0    0
C 1122.39080127 28.50701222 -39.79514206     2     814    818   819   820
H 1123.38159811 26.97690377 -38.81401810     6     817    0    0    0
H 1121.80322120 29.93624123 -38.46098486     6     817    0    0    0
C 1120.26320896 27.21328820 -41.08779581     2     817   821   822   823
H 1119.30634535 28.66724374 -42.29410833     6    820    0    0    0
H 1120.89892453 25.87242871 -42.58398286     6    820    0    0    0
C 1118.57471630 25.91043718 -39.19191854     2    820   824   825   826
H 1119.79897939 24.47732019 -38.17266497     6    823    0    0    0
H 1117.99816212 27.22039203 -37.69966550     6    823    0    0    0
C 1116.33395850 24.65488486 -40.61128057     2    823   827   828   829
H 1115.66645189 25.93801361 -42.01504611     6    826    0    0    0
H 1116.86439172 23.15706482 -41.74704832     6    826    0    0    0
C 1114.27759507 23.70240126 -38.82646112     2    826   830   831   832
H 1115.18935637 22.28579820 -37.53755010     6    829    0    0    0
H 1113.70190176 25.40427316 -37.57286155     6    829    0    0    0
C 1111.80991279 22.72840927 -40.05300216     2    829   833   834   835
H 1110.89331466 24.24052824 -41.27520471     6    832    0    0    0
H 1112.35132213 21.21320691 -41.31517305     6    832    0    0    0
C 1109.79677518 21.78480616 -38.21359339     2    832   836   837   838
H 1110.51015659 20.15398336 -37.26267148     6    835    0    0    0
H 1109.37332991 23.22381348 -36.94804346     6    835    0    0    0
C 1107.65398353 20.81436491 -39.62622656     2    835   839   840   841
H 1106.76491706 22.32325152 -40.77748793     6    838    0    0    0
H 1108.43377855 19.48733357 -41.06363702     6    838    0    0    0
C 1105.65514198 19.49563630 -37.94604187     2    838   842   843   844
H 1106.47681819 18.24527895 -36.57038555     6    841    0    0    0
H 1104.52213005 20.88793346 -37.05385516     6    841    0    0    0
C 1103.83514679 17.95455774 -39.56345574     1    841   845   846   847
H 1102.76793000 16.60951126 -38.34488007     6    844    0    0    0
H 1105.05594650 16.86228884 -40.84735617     6    844    0    0    0
H 1102.40422562 19.13747607 -40.53876283     6    844    0    0    0
H 1146.87402071 48.02899166 -68.33723794     6     849    0    0    0 
C 1145.11877048 46.84086750 -68.23585133     1     848    850    851    852
H 1143.67764937 48.32384001 -68.86749617     6     849    0    0    0
H 1145.23026317 45.33316422 -69.61424513     6     849    0    0    0
C 1144.13390654 45.67152330 -65.69187391     2     849    853    854    855
H 1143.80798212 46.94646291 -64.06356587     6     852    0    0    0
H 1142.24563682 45.05782261 -66.13902776     6     852    0    0    0
C 1145.40618674 43.23315334 -65.00577120     2     852    856   857   858
H 1145.66430463 42.11669339 -66.78964310     6     855    0    0    0
H 1147.43516093 43.33885485 -64.81453208     6     855    0    0    0
C 1144.13375377 41.81838533 -62.87772861     2     855   859   860   861
H 1144.01013194 43.05905840 -61.18837941     6    858    0    0    0
H 1142.05936390 41.63885623 -63.19173420     6    858    0    0    0
C 1145.00709150 39.10137789 -62.27071007     2    858   862   863   864
H 1144.76956299 37.97917812 -63.99292637     6    861    0    0    0
H 1147.04823370 39.02063048 -61.68924376     6    861    0    0    0
C 1143.32201000 37.86559142 -60.17297088     2    861   865   866   867
H 1143.19329845 38.79975766 -58.34819931     6    864    0    0    0
H 1141.36715743 37.99301392 -60.93581480     6    864    0    0    0
C 1143.87436219 34.97797513 -59.76552610     2    864   868   869   870
H 1143.81227723 34.20313699 -61.63594789     6    867    0    0    0
H 1145.77421891 34.79407058 -58.98152810     6    867    0    0    0
C 1141.86143509 33.85356405 -58.23410637     2    867   871   872   873
H 1141.23662789 34.95194926 -56.69993632     6    870    0    0    0
H 1140.17817159 33.62859495 -59.30285335     6    870    0    0    0
C 1142.42419762 31.28334739 -57.16036057     2    870   874   875   876
H 1140.71711249 30.36336884 -56.40567409     6    873    0    0    0
H 1142.76855825 30.02636028 -58.71081695     6    873    0    0    0
C 1144.30820103 31.29262187 -54.85825392     2    873   877   878   879
H 1145.59665507 32.81400507 -55.06834404     6    876    0    0    0
H 1143.34786574 31.41356213 -53.16273470     6    876    0    0    0
C 1145.81015103 28.85850687 -54.58344577     2    876   880   881   882
H 1144.58707321 27.66809524 -53.30413134     6    879    0    0    0
H 1145.94087113 28.04942957 -56.42101525     6    879    0    0    0
C 1148.37334889 29.15626665 -53.47056182     1    879   883   884   885
H 1148.00505879 29.88047450 -51.54080467     6    882    0    0    0
H 1149.56382269 30.46407848 -54.52221788     6    882    0    0    0
H 1149.52554422 27.33502983 -53.03051446     6    882    0    0    0
H 1113.37011592 25.56101304 -49.81821781     6     887    0    0    0 
C 1113.09703330 26.05088718 -47.82668326     1     886    888    889    890
H 1111.15026670 26.15018647 -47.54525986     6     887    0    0    0
H 1113.95168701 24.79381962 -46.50866387     6     887    0    0    0
C 1114.43098809 28.59357129 -47.27147795     2     887    891    892    893
H 1113.41119793 29.10464942 -45.55929386     6     890    0    0    0
H 1116.29099047 28.39922849 -46.60092446     6     890    0    0    0
C 1114.31543583 30.66987287 -49.27051612     2     890    894   895   896
H 1115.36816908 30.20554544 -50.89454239     6     893    0    0    0
H 1112.31750375 30.88724928 -49.63224557     6     893    0    0    0
C 1115.52971894 33.12518895 -48.45359124     2     893   897   898   899
H 1114.53301136 34.59853426 -49.48329493     6    896    0    0    0
H 1114.90861249 33.32697267 -46.35076591     6    896    0    0    0
C 1118.42694117 33.03330050 -48.74835981     2    896   900   901   902
H 1118.98339766 32.21169479 -47.03115782     6    899    0    0    0
H 1119.06152723 31.77554306 -50.17338320     6    899    0    0    0
C 1119.51038284 35.80431611 -49.24372945     2    899   903   904   905
H 1119.08866064 36.53713049 -51.11428510     6    902    0    0    0
H 1118.54792162 36.88104826 -47.89379830     6    902    0    0    0
C 1122.32128910 35.85145973 -48.66147804     2    902   906   907   908
H 1122.44347851 35.10774739 -46.81409046     6    905    0    0    0
H 1123.34193900 34.61121594 -50.02510836     6    905    0    0    0
C 1123.37185604 38.55577580 -48.58931214     2    905   909   910   911
H 1123.49555160 39.33979486 -50.44737167     6    908    0    0    0
H 1122.09799192 39.73069018 -47.45315770     6    908    0    0    0
C 1126.05334773 38.76226242 -47.56881152     2    908   912   913   914
H 1126.33066487 38.52350944 -45.55990760     6    911    0    0    0
H 1127.03349433 37.31288425 -48.50661544     6    911    0    0    0
C 1127.28165568 41.37995682 -48.29172773     2    911   915   916   917
H 1127.19967775 41.49663545 -50.42213733     6    914    0    0    0
H 1126.21954458 42.81681432 -47.51421408     6    914    0    0    0
C 1130.07417697 41.71134681 -47.48498838     2    914   918   919   920
H 1130.05835000 41.93533359 -45.47898126     6    917    0    0    0
H 1131.09398375 39.96087542 -47.90444536     6    917    0    0    0
C 1131.44056588 43.95143322 -48.73221817     1    917   921   922   923
H 1130.37845024 45.50309133 -47.88822748     6    920    0    0    0
H 1131.36840644 43.92459375 -50.74019128     6    920    0    0    0
H 1133.33845278 43.96381940 -48.21540763     6    920    0    0    0
H 1148.10819194 22.80619091 -60.53379138     6     925    0    0    0 
C 1148.17234538 21.03648507 -59.58199516     1     924    926    927    928
H 1148.84157536 19.71776931 -61.00964406     6     925    0    0    0
H 1149.41012986 20.94988515 -57.85478612     6     925    0    0    0
C 1145.37465144 20.33142932 -59.19891184     2     925    929    930    931
H 1144.33966375 20.29768877 -60.89666843     6     928    0    0    0
H 1145.33877084 18.47861643 -58.07762787     6     928    0    0    0
C 1144.30402739 22.32066209 -57.37402632     2     928    932   933   934
H 1145.99286857 22.66584841 -56.03804775     6     931    0    0    0
H 1143.77027649 23.96807498 -58.47805441     6     931    0    0    0
C 1141.93371417 21.21808728 -56.02520601     2     931   935   936   937
H 1140.53106569 20.99188844 -57.46761069     6    934    0    0    0
H 1142.38504451 19.40349739 -55.30691871     6    934    0    0    0
C 1140.99795062 22.98598012 -53.81733245     2    934   938   939   940
H 1142.65471059 23.33485510 -52.60570104     6    937    0    0    0
H 1140.45395232 24.76997813 -54.61380799     6    937    0    0    0
C 1139.01027068 22.00334523 -52.02385136     2    937   941   942   943
H 1137.19296614 21.89539139 -53.04706428     6    940    0    0    0
H 1139.67820208 20.20844976 -51.21087035     6    940    0    0    0
C 1138.64261123 23.78461253 -49.78635183     2    940   944   945   946
H 1138.03711504 25.64581932 -50.45156434     6    943    0    0    0
H 1137.04224767 23.14003550 -48.84741308     6    943    0    0    0
C 1140.77558132 24.05290993 -47.94329983     2    943   947   948   949
H 1141.81817543 22.30204165 -47.61903855     6    946    0    0    0
H 1142.08660777 25.29701919 -48.96519879     6    946    0    0    0
C 1140.00364409 25.48215444 -45.53966528     2    946   950   951   952
H 1138.97784322 27.13835154 -46.24180013     6    949    0    0    0
H 1138.39043308 24.56691549 -44.67099106     6    949    0    0    0
C 1142.18359257 25.95581702 -43.83301046     2    949   953   954   955
H 1143.86890886 24.86949927 -44.30491965     6    952    0    0    0
H 1142.90251207 27.95956445 -44.22033981     6    952    0    0    0
C 1141.57295580 25.89125868 -40.98892044     2    952   956   957   958
H 1139.92690153 27.10481434 -40.42071849     6    955    0    0    0
H 1140.96604651 23.92594053 -40.55218216     6    955    0    0    0
C 1143.85144171 26.56287162 -39.23975590     1    955   959   960   961
H 1143.24318411 26.16294767 -37.24907303     6    958    0    0    0
H 1144.48983130 28.43736278 -39.66742666     6    958    0    0    0
H 1145.55517687 25.57112096 -39.80916058     6    958    0    0    0
H 1108.08817635 49.60165132 -50.96222168     6     963    0    0    0 
C 1107.84782732 47.61873068 -50.56634137     1     962    964    965    966
H 1109.64522454 46.56719036 -50.91934281     6     963    0    0    0
H 1107.27757991 47.17994890 -48.59156736     6     963    0    0    0
C 1105.71046752 46.80783802 -52.33951694     2     963    967    968    969
H 1105.21338302 44.76676576 -52.36219484     6     966    0    0    0
H 1104.11465532 47.99512258 -51.83739092     6     966    0    0    0
C 1106.71497522 47.26335388 -55.08007915     2     966    970   971   972
H 1107.44778880 49.10017677 -55.44117217     6     969    0    0    0
H 1108.14867827 45.77635604 -55.15983992     6     969    0    0    0
C 1104.94982465 46.50749548 -57.23454789     2     969   973   974   975
H 1104.65963998 44.46293581 -56.99699158     6    972    0    0    0
H 1103.04081120 47.21279881 -56.86004475     6    972    0    0    0
C 1105.89863825 47.00320228 -59.87020647     2    972   976   977   978
H 1106.08743507 49.03719645 -59.87728583     6    975    0    0    0
H 1107.81413360 46.32442030 -60.15945706     6    975    0    0    0
C 1104.16347281 46.21114455 -62.03344406     2    975   979   980   981
H 1104.26156021 44.12066417 -62.00273479     6    978    0    0    0
H 1102.21527284 46.80969676 -61.70726982     6    978    0    0    0
C 1104.56902281 46.77749824 -64.72903838     2    978   982   983   984
H 1104.09739220 48.76346758 -64.88078962     6    981    0    0    0
H 1106.65138094 46.60930110 -65.33896302     6    981    0    0    0
C 1102.82571028 45.09927842 -66.45103108     2    981   985   986   987
H 1103.76964640 43.21153128 -66.52918873     6    984    0    0    0
H 1101.04927624 44.89135415 -65.66314079     6    984    0    0    0
C 1102.50414153 45.93528796 -69.15486637     2    984   988   989   990
H 1101.73216647 44.34410964 -70.12706084     6    987    0    0    0
H 1101.11503084 47.45007488 -69.17431964     6    987    0    0    0
C 1105.09740375 46.47177816 -70.44186806     2    987   991   992   993
H 1106.08552547 47.96303191 -69.38394626     6    990    0    0    0
H 1106.31618802 44.75245992 -70.77015955     6    990    0    0    0
C 1104.93124329 47.52660871 -73.21299325     2    990   994   995   996
H 1104.12281063 46.13093388 -74.40697558     6    993    0    0    0
H 1103.68518627 49.18557727 -73.01072324     6    993    0    0    0
C 1107.45766975 48.60152354 -74.32953625     1    993   997   998   999
H 1108.43156794 49.55717987 -72.80512096     6    996    0    0    0
H 1107.25175153 49.65120372 -76.16440380     6    996    0    0    0
H 1108.73394763 47.10302047 -74.74989149     6    996    0    0    0
H 1095.89048872 40.07201855 -43.95897745     6     1001    0    0    0 
C 1095.65772682 42.07098832 -43.70547037     1     1000    1002    1003    1004
H 1093.63943488 42.58531068 -44.10619520     6     1001    0    0    0
H 1095.59714534 42.50386322 -41.73136457     6     1001    0    0    0
C 1097.70929550 43.31107765 -45.15013471     2     1001    1005    1006    1007
H 1099.37102221 43.66709430 -44.07741334     6     1004    0    0    0
H 1098.31249536 42.30788020 -46.84306592     6     1004    0    0    0
C 1096.82850617 45.96212299 -45.97536125     2     1004    1008   1009   1010
H 1095.00073630 46.07492839 -46.86391580     6     1007    0    0    0
H 1096.64150254 47.17116199 -44.25851831     6     1007    0    0    0
C 1098.71754927 47.24099953 -47.67603562     2     1007   1011   1012   1013
H 1100.68223749 47.15552853 -46.91239527     6    1010    0    0    0
H 1098.99994055 46.19856627 -49.37026131     6    1010    0    0    0
C 1097.97280658 49.84012745 -48.62617324     2    1010   1014   1015   1016
H 1096.07473119 49.71739328 -49.26613008     6    1013    0    0    0
H 1097.93248397 51.02912656 -46.90296140     6    1013    0    0    0
C 1099.71123191 50.76438248 -50.64727856     2    1013   1017   1018   1019
H 1101.65174421 50.98243148 -49.97637164     6    1016    0    0    0
H 1099.56975320 49.72376056 -52.44336877     6    1016    0    0    0
C 1098.86255330 53.29489770 -51.44271642     2    1016   1020   1021   1022
H 1097.02961275 53.13171624 -52.35436262     6    1019    0    0    0
H 1098.79238679 54.54093652 -49.73605229     6    1019    0    0    0
C 1100.53404205 54.67036472 -53.40537095     2    1019   1023   1024   1025
H 1100.78178007 53.36292794 -55.10764847     6    1022    0    0    0
H 1099.57445114 56.28497810 -53.84112650     6    1022    0    0    0
C 1103.18978321 55.40561120 -52.68869351     2    1022   1026   1027   1028
H 1103.33201142 56.20617725 -50.70495211     6    1025    0    0    0
H 1104.38577833 53.65816224 -52.63521894     6    1025    0    0    0
C 1104.27746999 57.12758981 -54.76151425     2    1025   1029   1030   1031
H 1104.44501388 56.18626857 -56.73984202     6    1028    0    0    0
H 1102.86679736 58.75148823 -54.99792920     6    1028    0    0    0
C 1106.97527501 58.03871041 -54.18154098     2    1028   1032   1033   1034
H 1106.88333151 58.74804438 -52.27716430     6    1031    0    0    0
H 1108.36759977 56.53339602 -54.37978582     6    1031    0    0    0
C 1107.87105735 60.36252708 -55.54527731     1    1031   1035   1036   1037
H 1109.72330299 61.10215177 -54.87982304     6    1034    0    0    0
H 1106.57733453 62.08599606 -55.51324642     6    1034    0    0    0
H 1108.20907216 59.90444991 -57.50776001     6    1034    0    0    0
H 1110.76572051 22.51104447 -61.05264260     6     1039    0    0    0 
C 1110.33239890 20.56401533 -60.37932085     1     1038    1040    1041    1042
H 1108.70831608 20.31012738 -59.02117481     6     1039    0    0    0
H 1110.14875916 19.26972005 -61.85169863     6     1039    0    0    0
C 1112.67997311 20.28594632 -58.79543544     2     1039    1043    1044    1045
H 1114.18174895 20.56207531 -60.05663637     6     1042    0    0    0
H 1113.07333994 21.67507643 -57.36366397     6     1042    0    0    0
C 1112.69086800 17.58443866 -57.66126233     2     1042    1046   1047   1048
H 1111.51922473 17.40163457 -55.97258756     6     1045    0    0    0
H 1111.90215084 16.11630253 -59.01080334     6     1045    0    0    0
C 1115.45873300 16.79964425 -56.94526892     2     1045   1049   1050   1051
H 1116.68912994 17.15942624 -58.57975075     6    1048    0    0    0
H 1116.17344077 18.16372426 -55.45817295     6    1048    0    0    0
C 1115.59962730 13.97289192 -56.09384208     2    1048   1052   1053   1054
H 1114.12734280 13.71992358 -54.71546130     6    1051    0    0    0
H 1115.60243678 12.60022425 -57.63726909     6    1051    0    0    0
C 1117.95829155 13.34114852 -54.36697955     2    1051   1055   1056   1057
H 1119.59624827 13.19790245 -55.47851827     6    1054    0    0    0
H 1118.18317877 14.87027513 -52.96925744     6    1054    0    0    0
[...]
 1763      H    1128.4586710400    60.8904874900   -80.2700342800
 1764      C    1126.3090632700    58.3637412900   -77.7732205100
 1765      H    1124.9528088800    57.5354018300   -79.0894799900
 1766      H    1127.0056279700    56.9537087900   -76.5549529600
 1767      C    1124.9971021800    60.4763890200   -76.4060455400
 1768      H    1126.0576378300    61.1117854000   -74.8370583500
 1769      H    1125.1825590300    62.0153757500   -77.7211662000
 1770      C    1122.2795709400    59.9173707800   -75.7139240400
 1771      H    1121.4617793600    59.2626306300   -77.4839075500
 1772      H    1122.0602648100    58.3660423600   -74.3199523400
 1773      C    1120.9834194900    62.3602637200   -74.6974245000
 1774      H    1121.8464072900    62.7278039800   -72.9918064000
 1775      H    1121.4920294400    63.9129127800   -75.8428313500
 1776      C    1118.0585066000    62.1586601300   -74.4551731500
 1777      H    1117.2704914600    61.9842079500   -76.3067913100
 1778      H    1117.6425972100    60.3058540700   -73.7219535100
 1779      C    1116.6215475500    64.0625267600   -72.8621550700
 1780      H    1117.5228426500    64.5860266500   -71.0976378100
 1781      H    1116.6396186300    65.9184717300   -73.8854858700
 1782      C    1113.9675157500    63.2521283300   -72.1904437700
 1783      H    1113.9443034400    61.4364914800   -71.2223432700
 1784      H    1113.2998015300    64.5374398100   -70.7283164800
 1785      C    1112.3023281000    63.5306433600   -74.5283534800
 1786      H    1112.4479605100    65.5127445900   -75.2898461700
 1787      H    1113.0738511200    62.2929907000   -75.9377262700
 1788      C    1109.5690745700    62.9641507700   -73.9343618400
 1789      H    1109.3357492700    60.8307674400   -74.0293313300
 1790      H    1109.0013313000    63.6231406000   -72.0734832600
 1791      C    1107.8802026500    64.1389137600   -76.0673122500
 1792      H    1107.4806862200    66.0856293600   -75.5088884200
 1793      H    1108.9635427900    64.1997098000   -77.8038657300
 1794      C    1105.3071433400    62.8288633100   -76.2862312400
 1795      H    1104.6305372500    62.3979596300   -74.4219485600
 1796      H    1105.4113142800    61.0432403200   -77.3139006100
 1797      H    1103.7539612100    63.9257739600   -77.2367127600
 1798      H    1132.2223933300    19.3502911700   -73.8010996400
 1799      C    1132.4437959800    18.1768132600   -72.1410703200
 1800      H    1131.2897496900    16.5472397800   -72.3310722100
 1801      H    1134.4833310100    17.6727539800   -71.9544900700
 1802      C    1131.7836562000    19.6152100800   -69.7002320600
 1803      H    1132.2944760900    21.5418586600   -69.9143281200
 1804      H    1129.6732655500    19.4108529200   -69.4373329100
 1805      C    1132.8244254900    18.4155452700   -67.2057548800
 1806      H    1131.7509652600    16.6587321400   -66.7185952500
 1807      H    1134.7206262900    17.7098961700   -67.5623548100
 1808      C    1132.9551407200    20.3940412900   -65.0769175200
 1809      H    1134.4582170600    20.0334429900   -63.7650641900
 1810      H    1133.2963775000    22.4723919100   -65.5862949800
 1811      C    1130.5197324600    20.5584564000   -63.4286547500
 1812      H    1129.0475633700    21.1843926100   -64.7349621000
 1813      H    1130.2192056200    18.6753794600   -62.6647927000
 1814      C    1130.8126765300    22.3852559300   -61.1814181100
 1815      H    1132.3298343800    21.7301516400   -60.0806263700
 1816      H    1131.3439034600    24.1560793000   -62.0151304500
 1817      C    1128.6128185100    22.7781220100   -59.4152464600
 1818      H    1127.0759698800    23.5471998000   -60.6332999000
 1819      H    1128.0536132700    21.0453699800   -58.5049562100
 1820      C    1129.3790411100    24.6467201400   -57.3005176800
 1821      H    1131.1277898300    23.9858619700   -56.3438099300
 1822      H    1129.6440554900    26.3531289200   -58.3300999700
 1823      C    1127.3481138400    25.1199663300   -55.3805563600
 1824      H    1125.6639396400    25.7653330300   -56.3801677900
 1825      H    1126.7593087900    23.3550458100   -54.7260047500
 1826      C    1128.2387215100    26.6242640100   -53.1323367500
 1827      H    1129.6081752100    25.7656211600   -51.9554659400
 1828      H    1129.0593767400    28.4506657200   -53.8947824900
 1829      C    1125.9816817900    27.0486131900   -51.3565228800
 1830      H    1124.5770688600    28.1644268600   -52.2387435800
 1831      H    1125.0506854700    25.2121949100   -50.9336870100
 1832      C    1126.5526194400    28.4637542000   -48.9433208200
 1833      H    1124.8908924700    29.0026616300   -47.8818632000
 1834      H    1127.5399139500    30.3272132800   -49.4091348300
 1835      H    1127.7801610000    27.3427671000   -47.5853534100
 1836      H    1129.3937651900    33.6051034200   -52.5939871200
 1837      C    1129.0459410000    34.3987651200   -54.5285531400
 1838      H    1127.5841862200    33.2233645100   -55.3523328800
 1839      H    1128.4748861400    36.3366208500   -54.2514436500
 1840      C    1131.3573901000    34.1304472300   -56.3100939900
 1841      H    1130.8245350100    34.8496261700   -58.1414778400
 1842      H    1132.7224977600    35.3766452200   -55.4324813100
 1843      C    1132.3791104600    31.4792955600   -57.0425846200
 1844      H    1133.3734826700    30.8623178200   -55.3488543200
 1845      H    1130.9654697500    29.9724257700   -57.1950228700
 1846      C    1134.2944950000    31.6773571700   -59.2856503300
 1847      H    1133.3284407700    32.5268906900   -60.9634163800
 1848      H    1135.9367818100    32.7606834200   -58.5658217000
 1849      C    1135.2209468300    29.1060441000   -59.9272333200
 1850      H    1135.4902593500    28.0621193100   -58.1560090900
 1851      H    1133.7119552300    28.0328793900   -60.8760156600
 1852      C    1137.6481781200    29.1868853400   -61.5410233600
 1853      H    1139.2179510400    29.8103589800   -60.3527265900
 1854      H    1138.2298782900    27.2326215200   -62.2833275300
 1855      C    1137.5792432200    30.7505733500   -64.0334619700
 1856      H    1135.9233557600    30.4309434400   -65.2915870000
 1857      H    1137.5423344500    32.6623145800   -63.2523093800
 1858      C    1140.0103921200    30.7652486600   -65.6068259400
 1859      H    1141.6219878600    30.9335445400   -64.4220051600
 1860      H    1140.3193052700    28.8819287700   -66.4351407100
 1861      C    1139.8417665500    33.0090854800   -67.5622431400
 1862      H    1138.1526573900    32.6334620000   -68.5645219900
 1863      H    1139.7233578400    34.8177266200   -66.6176703400
 1864      C    1142.2617850000    33.2586866100   -68.9706760800
 1865      H    1143.8366176000    33.2382658100   -67.6867231100
 1866      H    1142.4993707100    31.6106254500   -70.2735753700
 1867      C    1142.1810386000    35.5271543200   -70.7717448700
 1868      H    1140.7084986200    35.1950615400   -72.1001706700
 1869      H    1141.6120404300    37.2757651400   -69.8486742600
 1870      C    1144.7100589800    36.1672731100   -72.0387507900
 1871      H    1144.6104008400    37.8418267900   -73.2065842200
 1872      H    1145.4250566400    34.5220546500   -73.0284627200
 1873      H    1145.8465226900    36.4581104400   -70.3903198100
 1874      H    1121.5265118100    39.1123414000   -79.6112867800
 1875      C    1119.5788381400    38.5785286900   -79.2325488900
 1876      H    1118.5510017200    39.0195369800   -80.9145685700
 1877      H    1119.7350706300    36.6550705900   -78.7632030200
 1878      C    1118.7246435300    40.2186450000   -76.9745601000
 1879      H    1120.2811469800    40.3128009900   -75.4617296800
 1880      H    1118.4939217300    42.1999058600   -77.4714622500
 1881      C    1116.1669236200    39.2104258200   -75.8773461500
 1882      H    1114.9364872400    39.9637880100   -77.2995729600
 1883      H    1116.1253602600    37.2450667600   -75.5871380400
 1884      C    1115.7704064600    40.5037876200   -73.3705575600
 1885      H    1117.1959854700    40.1006067700   -72.0112010400
 1886      H    1115.8251149800    42.5014556000   -73.5737018400
 1887      C    1113.1349490600    39.8578738400   -72.1600255900
 1888      H    1111.6706932000    40.8264300000   -73.2391887700
 1889      H    1112.9729763000    37.8385920900   -72.3659249300
 1890      C    1112.8742197500    40.5192555900   -69.4386965300
 1891      H    1114.1974344400    39.3137515400   -68.5834536900
 1892      H    1113.5085053700    42.4491313600   -69.0830652300
 1893      C    1110.1634555100    39.9871757200   -68.3583258400
 1894      H    1109.0062805300    41.5462181200   -68.8769816600
 1895      H    1109.4113769000    38.3071235200   -69.3756943800
 1896      C    1110.2016757400    40.0341065600   -65.2956816400
 1897      H    1111.6141191500    38.7520288200   -64.5320348500
 1898      H    1110.4789999700    41.9973899300   -64.6679760700
 1899      C    1107.4928973300    39.2654893500   -64.1592789500
 1900      H    1106.0540315800    40.2111147000   -65.3008195400
 1901      H    1107.3430552100    37.2586167800   -64.3368381700
 1902      C    1107.0411065500    39.7120174200   -61.2967833200
 1903      H    1108.3191357700    38.6657873200   -60.0908345000
 1904      H    1107.5516342100    41.7034557000   -60.8329884700
 1905      C    1104.2025244700    38.9923087700   -60.6062154700
 1906      H    1102.6813781400    40.0786608900   -61.6503718000
 1907      H    1103.8008033500    37.1593764700   -61.3928641500
 1908      C    1103.6746963500    38.8821484500   -57.8235194000
 1909      H    1101.8011957300    38.0749062700   -57.5830306300
 1910      H    1103.4115579000    40.6079185000   -56.8166000600
 1911      H    1104.8700179100    37.4773645100   -56.7788481500
 ----------------------------------------------------------------
 Nuclear Repulsion Energy =           0.00000000 hartrees
 There are     2498 alpha and     2498 beta electrons

 Total QAlloc Memory Limit   2000 MB
 Mega-Array Size       204 MB
 MEM_STATIC part       192 MB
   **** Step 1: MM calculation on the entire system **** 
 OPLSAA force field loaded.
Reading user-defined FF parameters...
 Reading user defined atom types.
 Found 3 user defined AtomTypes
finished.
Determining angles, torsions, etc. from user defined input
Determining VDW/Coulomb pairs... (useList = 0)

 Time req'd to get MM system information: 0.2 s (CPU) 0.2 s (wall)

 ------ MM Energies ------
   Ebond:           565.140299897247
   Eangle:          865.864642092116
   EUreyBrad:         0.000000000000
   Eimptors:          0.000000000000
   Etorsion:        202.079475649861
   Evdw:        1086500.621592287906
   Ecoulomb:        186.332088292574
   Etot:        1088320.038098219782 Kcal/mol (   1734.348385792284 hartree)
 -------------------------
 Time req'd to calc MM energy: 0.1 s (CPU) 0.1 s (wall)
 OPLSAA force field loaded.
Reading user-defined FF parameters...
 Reading user defined atom types.
 Found 3 user defined AtomTypes
finished.
 Time req'd to get MM system information: 0.0 s (CPU) 0.0 s (wall)
 Time req'd to calc MM gradient: 0.2 s (CPU) 0.2 s (wall)
   **** Step 2: MM calculation on the model system **** 
 Reading user defined atom types.
 Found 3 user defined AtomTypes
 ----------------------------------------------------------------
             Standard Nuclear Orientation (Bohr)
    I     Atom           X                Y                Z
 ----------------------------------------------------------------
    1      Fe   1117.8877405100    40.8697365200   -60.6827813700
    2      C    1114.6842819800    41.8737898600   -60.3691406300
    3      C    1120.8372886800    39.8005233400   -61.7364533400
    4      C    1118.6710378000    43.9842291200   -61.8741306000
    5      C    1118.3891225600    40.0765304600   -57.2993074900
    6      C    1116.9563167800    38.2035940000   -62.5265048700
    7      O    1112.6040655600    42.8772745600   -60.2245889700
    8      O    1122.7562477500    39.2302444400   -62.6630361000
    9      O    1118.7442049800    45.8744130900   -62.9477533300
   10      O    1118.7309279600    39.5138228800   -55.2252848800
   11      O    1116.4606064200    36.6161884800   -63.9556215500
 ----------------------------------------------------------------
 Nuclear Repulsion Energy =         803.18516226 hartrees
 There are       48 alpha and       48 beta electrons
 OPLSAA force field loaded.
Reading user-defined FF parameters...
 Reading user defined atom types.
 Found 3 user defined AtomTypes
finished.
Determining VDW/Coulomb pairs... (useList = 0)

 No MM bonds in system. Return all possible pairs.
 Time req'd to get MM system information: 0.0 s (CPU) 0.0 s (wall)

 ------ MM Energies ------
   Ebond:             0.000000000000
   Eangle:            0.000000000000
   EUreyBrad:         0.000000000000
   Eimptors:          0.000000000000
   Etorsion:          0.000000000000
   Evdw:        1086950.997317073168
   Ecoulomb:         -6.429062310766
   Etot:        1086944.568254762329 Kcal/mol (   1732.156435061619 hartree)
 -------------------------
 Eold: 1734.3483858 mm_energy: 1732.1564351 Enew:    2.1919507
 Time req'd to calc MM energy: 0.0 s (CPU) 0.0 s (wall)
 OPLSAA force field loaded.
Reading user-defined FF parameters...
 Reading user defined atom types.
 Found 3 user defined AtomTypes
finished.
Determining VDW/Coulomb pairs... (useList = 0)

 No MM bonds in system. Return all possible pairs.
 Time req'd to get MM system information: 0.0 s (CPU) 0.0 s (wall)
 Number of fixed atoms: 0
 Time req'd to calc MM gradient: 0.0 s (CPU) 0.0 s (wall)
   **** Step 3: QM calculation on the model system **** 
 Requested basis set is def2-mSVP
 There are 80 shells and 174 basis functions

                       Distance Matrix (Bohrs)
             Fe(  1)   C (  2)   C (  3)   C (  4)   C (  5)   C (  6)
   C (  2)  3.371741
   C (  3)  3.309573  6.635320
   C (  4)  3.425337  4.755331  4.713278
   C (  5)  3.511190  5.136133  5.075230  6.023171
   C (  6)  3.372711  4.825630  4.270399  6.064784  5.734494
   O (  7)  5.670747  2.314126  8.918413  6.383924  7.061751  6.788534
   O (  8)  5.505607  8.798120  2.205941  6.317569  6.968326  5.891676
   O (  9)  5.559714  6.255974  6.537613  2.175044  8.102251  7.887678
   O ( 10)  5.686276  6.957301  6.849399  8.012195  2.176015  7.627172
   O ( 11)  5.553455  6.607613  5.849790  7.969105  7.745945  2.192706
             O (  7)   O (  8)   O (  9)   O ( 10)
   O (  8) 11.059550
   O (  9)  7.355255  7.766758
   O ( 10)  8.593270  8.461900 10.004689
   O ( 11)  8.245891  6.938239  9.588813  9.474673

 A cutoff of  1.0D-11 yielded   2508 shell pairs
 There are     12912 function pairs (     14774 Cartesian)
 Smallest overlap matrix eigenvalue = 2.50E-03
 Guess MOs from SCF MO coefficient file
 Reading MOs from coefficient file
 Reading MOs from coefficient file
 A restricted Kohn-Sham SCF calculation will be
 performed using Pulay DIIS extrapolation
 Exchange:  B88      Correlation:  P86
 Using SG-1 standard quadrature grid
 SCF converges when DIIS error is below 1.0E-08
 Using Q-Chem read-in guess as SCF_GUESS READ specified.

 using 2 threads for integral computing
 -------------------------------------------------------
 OpenMP Integral computing Module                
 Release: version 1.0, May 2013, Q-Chem Inc. Pittsburgh 
 -------------------------------------------------------
 ---------------------------------------
  Cycle       Energy         DIIS Error
 ---------------------------------------
    1   -1830.5127054789      1.87E-09
    2   -1830.5127054787      1.28E-08
    3   -1830.5127054785      5.58E-09 Convergence criterion met
 ---------------------------------------
 SCF time:  CPU 4.01 s  wall 2.10 s
 E(QM + QM/MM):    -1830.5127054785 E(MM):    2.1919507 E(Tot): -1828.320754747850 
 SCF   energy in the final basis set = -1828.32075475
 Total energy in the final basis set = -1828.32075475

 --------------------------------------------------------------

                    Orbital Energies (a.u.)
 --------------------------------------------------------------

 Alpha MOs
 -- Occupied --
******** -29.6365 -25.5958 -25.5848 -25.5787 -18.8848 -18.8833 -18.8798
-18.8788 -18.8754 -10.0556 -10.0541 -10.0502 -10.0460 -10.0433  -3.3228
 -2.1595  -2.1367  -2.1230  -1.0624  -1.0587  -1.0571  -1.0547  -1.0160
 -0.5826  -0.5293  -0.5206  -0.5203  -0.5134  -0.4588  -0.4490  -0.4409
 -0.4339  -0.4296  -0.4278  -0.4277  -0.4229  -0.4191  -0.4162  -0.4069
 -0.3999  -0.3911  -0.3862  -0.3789  -0.2823  -0.2726  -0.2372  -0.2243
 -- Virtual --
 -0.0993  -0.0957  -0.0891  -0.0837  -0.0782  -0.0701  -0.0680  -0.0564
 -0.0446  -0.0367  -0.0130   0.0110   0.1865   0.2137   0.2206   0.2529
  0.2950   0.3294   0.3452   0.3837   0.4099   0.4157   0.4234   0.4283
  0.4517   0.4808   0.5057   0.5102   0.5163   0.5487   0.5574   0.5990
  0.6090   0.6180   0.6320   0.6456   0.7419   0.7533   0.7623   0.7726
  0.7854   0.8307   0.8437   0.8548   0.8814   0.9241   0.9430   0.9572
  0.9692   0.9732   0.9758   0.9973   1.0102   1.0175   1.0383   1.0741
  1.1828   1.2320   1.2538   1.3551   1.3928   1.3979   1.4051   1.4125
  1.4165   1.4194   1.4278   1.4298   1.4481   1.4599   1.4824   1.5064
  1.5089   1.5276   1.5576   1.5895   1.6267   1.6423   1.6666   1.6743
  1.6990   1.8165   1.8205   1.8290   1.8354   1.8430   1.8444   1.8518
  1.8587   1.8609   1.8753   1.8845   1.9037   1.9127   1.9529   1.9619
  2.3193   2.3976   2.4199   2.4408   2.4415   2.4705   2.4759   2.4938
  2.5058   2.5202   2.6316   2.6470   2.6506   2.6666   2.6752   2.8050
  2.8270   2.8872   2.9085   2.9487  13.2696  13.2857  13.3191  13.3684
 13.4543  24.8923  24.9146  24.9589  24.9830  25.0237
 --------------------------------------------------------------

          Ground-State Mulliken Net Atomic Charges

     Atom                 Charge (a.u.)
  ----------------------------------------
      1 Fe                   -0.446571
      2 C                     0.212118
      3 C                     0.167406
      4 C                     0.211882
      5 C                     0.236559
      6 C                     0.206717
      7 O                    -0.165868
      8 O                    -0.117394
      9 O                    -0.099971
     10 O                    -0.095342
     11 O                    -0.109535
  ----------------------------------------
  Sum of atomic charges =     0.000000

 -----------------------------------------------------------------
                    Cartesian Multipole Moments
 -----------------------------------------------------------------
    Charge (ESU x 10^10)
                -0.0000
    Dipole Moment (Debye)
         X       0.4854337466      Y      -0.3533526307      Z       0.3398179265
       Tot       0.6899132026
    Quadrupole Moments (Debye-Ang)
        XX     504.1592     XY    -197.1974     YY     -84.6590
        XZ     185.7180     YZ      18.5969     ZZ     -91.5306
    Octopole Moments (Debye-Ang^2)
       XXX  385103.7622    XXY -111172.5871    XYY  -49793.7795
       YYY   -4995.3450    XXZ  103070.8009    XYZ   10628.7255
       YYZ    2885.9335    XZZ  -53665.0648    YZZ   -2331.6901
       ZZZ    7777.2885
    Hexadecapole Moments (Debye-Ang^3)
      XXXX ************   XXXY ************   XXYY ************
      XYYY ************   YYYY -209553.3308   XXXZ ************
      XXYZ 6116115.5134   XYYZ 1698183.6070   YYYZ  164537.5202
      XXZZ ************   XYZZ ************   YYZZ -130631.0468
      XZZZ 4585708.2145   YZZZ  179037.7147   ZZZZ -478348.3206
 -----------------------------------------------------------------
 Calculating MO derivatives via CPSCF
 Full subspace dimension requested for CIS/TDDFT
 MAX_CIS_SUBSPACE fits in available memory
    1     0    36    0.0418241  
    2     0    36    0.0068997  
    3     0    36    0.0007175  
