                  Welcome to Q-Chem
     A Quantum Leap Into The Future Of Chemistry


 Q-Chem 5.4 (devel), Q-Chem, Inc., Pleasanton, CA (2021)

 E. Epifanovsky,  A. T. B. Gilbert,  Xintian Feng,  Joonho Lee,  Yuezhi Mao,  
 N. Mardirossian,  P. Pokhilko,  A. White,  M. Wormit,  M. P. Coons,  
 A. L. Dempwolff,  Zhengting Gan,  D. Hait,  P. R. Horn,  L. D. Jacobson,  
 I. Kaliman,  J. Kussmann,  A. W. Lange,  Ka Un Lao,  D. S. Levine,  Jie Liu,  
 S. C. McKenzie,  A. F. Morrison,  K. Nanda,  F. Plasser,  D. R. Rehn,  
 M. L. Vidal,  Zhi-Qiang You,  Ying Zhu,  B. Alam,  B. Albrecht,  
 A. Aldossary,  E. Alguire,  J. H. Andersen,  D. Barton,  K. Begam,  A. Behn,  
 Y. A. Bernard,  E. J. Berquist,  H. Burton,  A. Carreras,  K. Carter-Fenk,  
 R. Chakraborty,  A. D. Chien,  K. D. Closser,  V. Cofer-Shabica,  
 S. Dasgupta,  Jia Deng,  M. de Wergifosse,  M. Diedenhofen,  Hainam Do,  
 S. Ehlert,  Po-Tung Fang,  S. Fatehi,  Qingguo Feng,  T. Friedhoff,  
 J. Gayvert,  Qinghui Ge,  G. Gidofalvi,  M. Goldey,  J. Gomes,  
 C. Gonzalez-Espinoza,  S. Gulania,  A. Gunina,  M. W. D. Hanson-Heine,  
 P. H. P. Harbach,  A. W. Hauser,  M. F. Herbst,  M. Hernandez Vera,  
 M. Hodecker,  Z. C. Holden,  S. Houck,  Xunkun Huang,  Kerwin Hui,  
 B. C. Huynh,  M. Ivanov,  Hyunjun Ji,  Hanjie Jiang,  B. Kaduk,  S. Kaehler,  
 K. Khistyaev,  Jaehoon Kim,  P. Klunzinger,  Z. Koczor-Benda,  
 Joong Hoon Koh,  D. Kosenkov,  L. Koulias,  T. Kowalczyk,  C. M. Krauter,  
 K. Kue,  A. Kunitsa,  T. Kus,  A. Landau,  K. V. Lawler,  D. Lefrancois,  
 S. Lehtola,  Rain Li,  Yi-Pei Li,  Jiashu Liang,  M. Liebenthal,  
 Hung-Hsuan Lin,  You-Sheng Lin,  Fenglai Liu,  Kuan-Yu Liu,  
 M. Loipersberger,  A. Luenser,  A. Manjanath,  P. Manohar,  E. Mansoor,  
 S. F. Manzer,  Shan-Ping Mao,  A. V. Marenich,  T. Markovich,  S. Mason,  
 S. A. Maurer,  P. F. McLaughlin,  M. F. S. J. Menger,  J.-M. Mewes,  
 S. A. Mewes,  P. Morgante,  J. W. Mullinax,  K. J. Oosterbaan,  G. Paran,  
 Alexander C. Paul,  Suranjan K. Paul,  F. Pavosevic,  Zheng Pei,  S. Prager,  
 E. I. Proynov,  E. Ramos,  B. Rana,  A. E. Rask,  A. Rettig,  R. M. Richard,  
 F. Rob,  E. Rossomme,  T. Scheele,  M. Scheurer,  M. Schneider,  
 N. Sergueev,  S. M. Sharada,  W. Skomorowski,  D. W. Small,  C. J. Stein,  
 Yu-Chuan Su,  E. J. Sundstrom,  Zhen Tao,  J. Thirman,  T. Tsuchimochi,  
 N. M. Tubman,  S. P. Veccham,  O. Vydrov,  J. Wenzel,  J. Witte,  A. Yamada,  
 Kun Yao,  S. Yeganeh,  S. R. Yost,  A. Zech,  Igor Ying Zhang,  Xing Zhang,  
 Yu Zhang,  D. Zuev,  A. Aspuru-Guzik,  A. T. Bell,  N. A. Besley,  
 K. B. Bravaya,  B. R. Brooks,  D. Casanova,  Jeng-Da Chai,  S. Coriani,  
 C. J. Cramer,  A. E. DePrince, III,  R. A. DiStasio Jr.,  A. Dreuw,  
 B. D. Dunietz,  T. R. Furlani,  W. A. Goddard III,  S. Grimme,  
 S. Hammes-Schiffer,  T. Head-Gordon,  W. J. Hehre,  Chao-Ping Hsu,  
 T.-C. Jagau,  Yousung Jung,  A. Klamt,  Jing Kong,  D. S. Lambrecht,  
 WanZhen Liang,  N. J. Mayhall,  C. W. McCurdy,  J. B. Neaton,  
 C. Ochsenfeld,  J. A. Parkhill,  R. Peverati,  V. A. Rassolov,  Yihan Shao,  
 L. V. Slipchenko,  T. Stauch,  R. P. Steele,  J. E. Subotnik,  
 A. J. W. Thom,  A. Tkatchenko,  D. G. Truhlar,  T. Van Voorhis,  
 T. A. Wesolowski,  K. B. Whaley,  H. L. Woodcock III,  P. M. Zimmerman,  
 S. Faraji,  P. M. W. Gill,  M. Head-Gordon,  J. M. Herbert,  A. I. Krylov

 Additional authors for Version 5.4.1: 
 S. Kotaru,  Shaozhi Li,  Xiangyuan Li,  F. Matz,  A. Molle,  Haisheng Ren,  
 Yingli Su,  Hung-Yi Tsai,  C. Utku,  Fang Wang

 Contributors to earlier versions of Q-Chem not listed above: 
 R. D. Adamson,  B. Austin,  R. Baer,  J. Baker,  G. J. O. Beran,  
 K. Brandhorst,  S. T. Brown,  E. F. C. Byrd,  A. K. Chakraborty,  
 G. K. L. Chan,  Chun-Min Chang,  Yunqing Chen,  C.-L. Cheng,  
 Siu Hung Chien,  D. M. Chipman,  D. L. Crittenden,  H. Dachsel,  
 R. J. Doerksen,  A. D. Dutoi,  R. G. Edgar,  J. Fosso-Tande,  
 L. Fusti-Molnar,  D. Ghosh,  A. Ghysels,  A. Golubeva-Zadorozhnaya,  
 J. Gonthier,  M. S. Gordon,  S. R. Gwaltney,  G. Hawkins,  J. E. Herr,  
 A. Heyden,  S. Hirata,  E. G. Hohenstein,  G. Kedziora,  F. J. Keil,  
 C. Kelley,  Jihan Kim,  R. A. King,  R. Z. Khaliullin,  P. P. Korambath,  
 W. Kurlancheek,  A. Laurent,  A. M. Lee,  M. S. Lee,  S. V. Levchenko,  
 Ching Yeh Lin,  D. Liotard,  E. Livshits,  R. C. Lochan,  I. Lotan,  
 L. A. Martinez-Martinez,  P. E. Maslen,  N. Nair,  D. P. O'Neill,  
 D. Neuhauser,  E. Neuscamman,  C. M. Oana,  R. Olivares-Amaya,  R. Olson,  
 T. M. Perrine,  B. Peters,  P. A. Pieniazek,  A. Prociuk,  Y. M. Rhee,  
 J. Ritchie,  M. A. Rohrdanz,  E. Rosta,  N. J. Russ,  H. F. Schaefer III,  
 M. W. Schmidt,  N. E. Schultz,  S. Sharma,  N. Shenvi,  C. D. Sherrill,  
 A. C. Simmonett,  A. Sodt,  T. Stein,  D. Stuck,  K. S. Thanthiriwatte,  
 V. Vanovschi,  L. Vogt,  Tao Wang,  A. Warshel,  M. A. Watson,  
 C. F. Williams,  Q. Wu,  X. Xu,  Jun Yang,  W. Zhang,  Yan Zhao

 Please cite Q-Chem as follows:
 Y. Shao et al., Mol. Phys. 113, 184-215 (2015)
 DOI: 10.1080/00268976.2014.952696

 Q-Chem 5.4.1 for Intel X86 EM64T Linux

 Parts of Q-Chem use Armadillo 9.900.5 (Nocturnal Misbehaviour).
 http://arma.sourceforge.net/

 Q-Chem begins on Wed Jun 22 08:05:25 2022  

 Host: p09r16n04.grace.hpc.yale.internal
0

     Scratch files written to /home/tl686/scratch60/qchem_dev/scratch/qchem69774//
 Processing $rem in /home/tl686/qchem_dev/qchem/config/preferences:
 Processing $rem in /home/tl686/.qchemrc:
Applying user defined connections for MM calculations

 Checking the input file for inconsistencies... 	...done.

--------------------------------------------------------------
User input:
--------------------------------------------------------------
$molecule
0   1
 Fe 110.24177212 -7.02361531 37.47481051    -1  0   0   0   0
C 112.05827589 -9.02963172 39.66408234    -2  0   0   0   0 
C 108.25625109 -4.84895170 35.82058225    -2  0   0   0   0
C 112.23449312 -4.31320509 38.47619761    -2  0   0   0   0
C 111.55346633 -8.45741921 34.64817587    -2  0   0   0   0
C 106.93717570 -8.48797363 38.80382965    -2  0   0   0   0
O 113.11548922 -10.35043690 41.00647180    -3  0   0   0   0
O 106.72949270 -3.67619720 34.74812574    -3  0   0   0   0 
O 113.53313596 -2.64857367 39.02652725    -3  0   0   0   0
O 112.46587538 -8.85589196 32.65480727    -3  0   0   0   0 
O 105.21372996 -9.05994167 39.50478704    -3  0   0   0   0
H 138.69993870 -3.72787033 47.35402616      6     13    0    0    0 
C 139.19905530 -5.18544001 48.71864923     1     12    14    15    16
H 140.96166646 -4.52263435 49.25232927     6     13    0    0    0
H 137.98847439 -4.83861409 50.40001522     6     13    0    0    0
C 139.04384803 -7.85546350 47.69666465     2     13    17    18    19
H 140.65896916 -8.03528230 46.44734536     6     16    0    0    0
H 139.00011207 -9.18154429 49.28995700     6     16    0    0    0
C 136.49908748 -8.31513077 46.27180352     2     16    20   21   22
H 134.77696134 -8.16581202 47.56349560     6     19    0    0    0
H 136.11011072 -6.65553671 45.10218617     6     19    0    0    0
C 136.22290128 -10.89037642 44.92184864     2     19   23   24   25
H 137.31777932 -10.97092467 43.20982496     6    22    0    0    0
H 136.89154004 -12.43511625 46.07296952     6    22    0    0    0
C 133.55037838 -11.39374059 44.26215813     2    22   26   27   28
H 132.43507694 -11.59936795 46.02149592     6    25    0    0    0
H 132.86882784 -9.81093523 43.34489317     6    25    0    0    0
C 133.21294893 -13.95619890 42.92371607     2    25   29   30   31
H 134.59241449 -13.83791770 41.46770517     6    28    0    0    0
H 133.88818688 -15.38367066 44.14592980     6    28    0    0    0
C 130.48640557 -14.23800314 41.94831643     2    28   32   33   34
H 129.35618730 -13.96257308 43.60286249     6    31    0    0    0
H 130.23417802 -12.69433001 40.68288330     6    31    0    0    0
C 129.92964566 -16.89722685 40.96250849     2    31   35   36   37
H 131.53071581 -17.63207744 39.80430314     6    34    0    0    0
H 129.65963474 -18.09505467 42.72429057     6    34    0    0    0
C 127.33698949 -16.94145289 39.75170132     2    34   38   39   40
H 125.81732627 -16.52462976 41.28169634     6    37    0    0    0
H 127.13624666 -15.79598327 38.17635873     6    37    0    0    0
C 126.66485337 -19.69989708 38.97276380     2    37   41   42   43
H 128.20453612 -20.40399474 37.78192292     6    40    0    0    0
H 126.64246899 -21.05749912 40.54908364     6    40    0    0    0
C 124.21400701 -20.10189699 37.56076134     2    40   44   45   46
H 122.57372747 -20.34391380 38.89541268     6    43    0    0    0
H 123.96518856 -18.36928349 36.45582021     6    43    0    0    0
C 124.24126106 -22.43098247 35.85396158     1    43   47   48   49
H 125.69580532 -22.11718426 34.44266797     6    46    0    0    0
H 122.49194374 -22.82605551 34.86001677     6    46    0    0    0
H 124.61530728 -23.93434144 37.08417312     6    46    0    0    0
H 116.17102991 -17.58711752 37.18463237     6     51    0    0    0 
C 116.08199090 -15.63466304 36.87269985     1     50    52    53    54
H 114.15099263 -15.48531798 36.34539759     6     51    0    0    0
H 116.36134037 -14.76586489 38.73442626     6     51    0    0    0
C 117.75794024 -14.77053324 34.71332336     2     51    55    56    57
H 117.59040528 -12.83323020 34.09700051     6     54    0    0    0
H 119.69640520 -15.00523069 35.27057090     6     54    0    0    0
C 117.36633563 -16.32807126 32.33532511     2     54    58   59   60
H 115.35926291 -16.80467694 32.02275832     6     57    0    0    0
H 117.95005255 -15.21300384 30.70063950     6     57    0    0    0
C 118.74423700 -18.81831898 32.25630902     2     57   61   62   63
H 120.76656090 -18.49995302 32.56102823     6    60    0    0    0
H 118.27082100 -20.03338147 33.84618049     6    60    0    0    0
C 119.21979674 -19.84932771 29.47426447     2    60   64   65   66
H 117.33607659 -20.26560048 28.43635035     6    63    0    0    0
H 120.08586610 -18.47475460 28.21973940     6    63    0    0    0
C 120.66729103 -22.37431270 29.09680670     2    63   67   68   69
H 121.15455360 -22.93648465 27.10714757     6    66    0    0    0
H 122.46990209 -22.35274518 30.13403125     6    66    0    0    0
C 118.96981825 -24.51216852 29.81872392     2    66   70   71   72
H 118.46531700 -24.03621299 31.72303754     6    69    0    0    0
H 117.21647833 -24.40025758 28.95890657     6    69    0    0    0
C 120.45391442 -27.06518185 29.68543723     2    69   73   74   75
H 121.57360508 -27.01212008 28.00010294     6    72    0    0    0
H 122.03013771 -26.83779314 31.11962930     6    72    0    0    0
C 118.79489255 -29.41610015 29.92470167     2    72   76   77   78
H 117.76422212 -29.42794755 31.77540124     6    75    0    0    0
H 117.33946846 -29.44198341 28.49010259     6    75    0    0    0
C 120.23971391 -31.99584931 29.76320271     2    75   79   80   81
H 121.03902522 -32.32217903 27.84951966     6    78    0    0    0
H 121.71421221 -31.69529751 31.23895701     6    78    0    0    0
C 118.59954360 -34.40267297 30.47996510     2    78   82   83   84
H 117.45087551 -34.10439714 32.13739206     6    81    0    0    0
H 117.08659148 -34.93118421 29.04151541     6    81    0    0    0
C 120.14859026 -36.87965764 30.71153059     1    81   85   86   87
H 118.83936023 -38.41208667 31.13337722     6    84    0    0    0
H 121.66884691 -36.90376480 32.12979767     6    84    0    0    0
H 121.01654264 -37.34706035 28.87569265     6    84    0    0    0
H 143.88075065 2.62285521 29.55245426     6     89    0    0    0 
C 142.75729541 1.01677392 28.93411530     1     88    90    91    92
H 140.87432778 1.70356700 28.48011110     6     89    0    0    0
H 143.52741913 0.61893496 27.03749745     6     89    0    0    0
C 142.96020407 -1.11691594 30.80908586     2     89    93    94    95
H 145.00795415 -1.18459663 31.22747749     6     92    0    0    0
H 142.02479888 -0.56503143 32.45802826     6     92    0    0    0
C 141.99393771 -3.64381692 29.87325389     2     92    96   97   98
H 139.96885453 -3.51020326 29.38649866     6     95    0    0    0
H 142.89227845 -4.04299718 28.11364238     6     95    0    0    0
C 142.10808130 -5.89345807 31.73672679     2     95   99   100   101
H 144.05357109 -5.86860726 32.42242137     6    98    0    0    0
H 141.09773189 -5.54018532 33.45467528     6    98    0    0    0
C 141.53143744 -8.44155834 30.51544190     2    98   102   103   104
H 139.49087745 -8.73593624 30.25696214     6    101    0    0    0
H 142.28288902 -8.45654836 28.52312255     6    101    0    0    0
C 142.53926582 -10.79272444 32.06152414     2    101   105   106   107
H 144.47711913 -10.40430264 32.59318579     6    104    0    0    0
H 141.43334832 -11.08409141 33.75566321     6    104    0    0    0
C 142.20612698 -13.26585844 30.53776670     2    104   108   109   110
H 140.17476276 -13.61467923 30.45957261     6    107    0    0    0
H 142.77650070 -13.01049261 28.56591905     6    107    0    0    0
C 143.25439712 -15.59784701 31.76659024     2    107   111   112   113
H 145.36298458 -15.30196113 31.97674820     6    110    0    0    0
H 142.59161524 -15.44838520 33.62439686     6    110    0    0    0
C 142.46165273 -18.01310560 30.41683818     2    110   114   115   116
H 140.50324999 -18.06999441 30.51839756     6    113    0    0    0
H 143.05471229 -17.60756780 28.48829050     6    113    0    0    0
C 143.59204896 -20.46422066 31.42888778     2    113   117   118   119
H 145.51160282 -20.37422352 32.00318531     6    116    0    0    0
H 142.66727281 -20.84740632 33.29842372     6    116    0    0    0
C 143.21558010 -22.80856948 29.72252564     2    116   120   121   122
H 143.07753027 -24.41330100 30.82524402     6    119    0    0    0
H 141.25480125 -22.65868892 28.98533571     6    119    0    0    0
C 145.09249588 -22.93804981 27.55694871     1    119   123   124   125
H 144.58965669 -24.52172606 26.19435755     6    122    0    0    0
H 146.84689492 -23.55244823 28.20459485     6    122    0    0    0
H 145.06309572 -21.02565031 26.74083824     6    122    0    0    0
H 130.82453190 18.26824423 17.90660639     6     127    0    0    0 
C 131.03556081 16.94115631 19.51021812     1     126    128    129    130
H 131.63978393 15.16950322 18.66848748     6     127    0    0    0
H 132.58255042 17.75898454 20.67175185     6     127    0    0    0
C 128.41564346 16.84465506 20.88118309     2     127    131    132    133
H 127.50328075 18.61558262 21.21786574     6     130    0    0    0
H 127.04704560 15.74135057 19.89012643     6     130    0    0    0
C 128.63619549 15.45726903 23.45430389     2     130    134   135   136
H 128.83655175 13.36647341 23.29982715     6     133    0    0    0
H 130.31686036 15.99008240 24.62436072     6     133    0    0    0
C 126.27297630 15.70744217 25.13983140     2     133   137   138   139
H 126.15578990 17.69875314 25.63638088     6    136    0    0    0
H 124.53627616 15.11644532 23.92089439     6    136    0    0    0
C 126.49477235 13.68991999 27.26406317     2    136   140   141   142
H 126.53184541 11.69134025 26.52596273     6    139    0    0    0
H 128.11118341 14.09294407 28.56409599     6    139    0    0    0
C 124.14307480 13.80393922 29.00478874     2    139   143   144   145
H 124.17293500 15.49098034 30.18414416     6    142    0    0    0
H 122.34419359 13.92140874 27.89672327     6    142    0    0    0
C 124.06232285 11.52150628 30.72144823     2    142   146   147   148
H 123.43644429 9.85721927 29.94623217     6    145    0    0    0
H 125.91022768 10.94412440 31.29541263     6    145    0    0    0
C 122.36770974 11.99371740 33.08521984     2    145   149   150   151
H 122.84107658 13.88709976 34.04372952     6    148    0    0    0
H 120.48567524 12.22027674 32.45923433     6    148    0    0    0
C 122.33905905 9.94754849 35.08788898     2    148   152   153   154
H 121.88365688 8.04853414 34.33879709     6    151    0    0    0
H 124.23764308 9.92126273 35.77562068     6    151    0    0    0
C 120.85823265 10.68422004 37.40156460     2    151   155   156   157
H 121.41392104 9.50009626 39.03576060     6    154    0    0    0
H 121.02947237 12.56513553 37.95693636     6    154    0    0    0
C 117.99894127 10.20822149 37.24599966     2    154   158   159   160
H 116.98529259 10.76866881 35.59824940     6    157    0    0    0
H 117.45015785 8.21736224 36.97301221     6    157    0    0    0
C 116.40304289 11.19156983 39.56652209     1    157   161   162   163
H 114.40880558 10.72651003 39.42335738     6    160    0    0    0
H 116.53266288 13.31055052 39.92021939     6    160    0    0    0
H 117.12943933 10.37538866 41.35626826     6    160    0    0    0
H 125.39374860 -10.53092403 -1.01796066     6     165    0    0    0 
C 126.91447693 -9.95747795 0.24263983     1     164    166    167    168
H 126.34626721 -10.99497232 1.90541965     6     165    0    0    0
H 128.81531609 -10.35676090 -0.62066100     6     165    0    0    0
C 126.55080955 -7.09025644 0.68310300     2     165    169    170    171
H 126.76472034 -6.12660820 -1.06405075     6     168    0    0    0
H 124.47161420 -6.58044740 1.05477859     6     168    0    0    0
C 128.40657357 -5.92578582 2.62044986     2     168    172   173   174
H 128.66859658 -7.36722553 4.08056138     6     171    0    0    0
H 130.33314929 -5.97554092 1.57067129     6     171    0    0    0
C 127.90913158 -3.17627745 3.34699557     2     171   175   176   177
H 127.23302241 -2.17095293 1.64723048     6    174    0    0    0
H 126.31732250 -3.06969853 4.61261868     6    174    0    0    0
C 130.06198006 -1.56939629 4.36113582     2    174   178   179   180
H 131.18908598 -2.60946692 5.80100423     6    177    0    0    0
H 131.58067676 -1.26201966 2.93486115     6    177    0    0    0
C 129.12625202 0.90331182 5.70370470     2    177   181   182   183
H 127.91314541 1.82795884 4.34679694     6    180    0    0    0
H 128.00714885 0.44351768 7.39885960     6    180    0    0    0
C 131.22975955 2.70934106 6.38955324     2    180   184   185   186
H 132.38614893 1.86225274 7.90815724     6    183    0    0    0
H 132.56838734 3.05850962 4.91431878     6    183    0    0    0
C 130.28173291 5.40687202 7.35486342     2    183   187   188   189
H 128.99269723 6.21397587 5.94209947     6    186    0    0    0
H 129.09039527 5.11722904 8.99281615     6    186    0    0    0
C 132.45363163 7.34618143 7.80940951     2    186   190   191   192
H 133.39334159 6.83734987 9.53580908     6    189    0    0    0
H 133.98817383 7.54529593 6.39022878     6    189    0    0    0
C 131.34750409 9.98136386 8.13308783     2    189   193   194   195
H 130.36655543 10.31796430 6.40636173     6    192    0    0    0
H 129.91421966 10.13592591 9.42371321     6    192    0    0    0
C 133.39753841 12.05297222 8.48210269     2    192   196   197   198
H 134.27555776 11.84342779 10.34868030     6    195    0    0    0
H 134.88262498 11.81961549 7.06245290     6    195    0    0    0
C 132.20752582 14.64931133 8.33580812     1    195   199   200   201
H 133.57854048 16.27420312 8.11326697     6    198    0    0    0
H 131.26228550 15.05811716 10.11368430     6    198    0    0    0
H 131.14343527 14.70840923 6.67327706     6    198    0    0    0
H 120.05258020 -9.78010352 11.43576297     6     203    0    0    0 
C 121.93650334 -9.08381512 10.78996643     1     202    204    205    206
H 121.47547826 -7.38699118 9.73983513     6     203    0    0    0
H 123.02823231 -8.43284276 12.43320754     6     203    0    0    0
C 123.36570562 -10.98098413 9.28365729     2     203    207    208    209
H 124.92102513 -10.18865125 7.99988633     6     206    0    0    0
H 124.46874918 -12.07884403 10.64219576     6     206    0    0    0
C 121.72239989 -12.75369348 7.56811299     2     206    210   211   212
H 122.81898383 -14.41462684 7.17002683     6     209    0    0    0
H 120.36911010 -13.64733002 8.87126088     6     209    0    0    0
C 120.26541815 -11.47078523 5.28633938     2     209   213   214   215
H 119.63274634 -9.72187027 6.03862236     6    212    0    0    0
H 121.66700177 -11.01231878 3.94665611     6    212    0    0    0
C 118.14759379 -13.08010894 4.23837320     2    212   216   217   218
H 117.52387447 -12.36537000 2.42613199     6    215    0    0    0
H 118.73040916 -15.10634254 3.92667112     6    215    0    0    0
C 115.73418646 -13.27444020 5.88224108     2    215   219   220   221
H 116.27559816 -14.61397164 7.45368958     6    218    0    0    0
H 115.61481440 -11.39142977 6.85258918     6    218    0    0    0
C 113.09477110 -14.27270923 4.73549338     2    218   222   223   224
H 112.43370874 -12.78550437 3.45638592     6    221    0    0    0
H 113.64357356 -15.63348265 3.37545879     6    221    0    0    0
C 110.93234989 -14.89719239 6.61595530     2    221   225   226   227
H 111.40957795 -15.75803588 8.32792957     6    224    0    0    0
H 110.06632322 -13.22446986 7.06154297     6    224    0    0    0
C 108.99647638 -16.57535245 5.29995134     2    224   228   229   230
H 108.60280005 -15.75765321 3.51924867     6    227    0    0    0
H 109.81273108 -18.50474599 5.17493216     6    227    0    0    0
C 106.43869749 -16.71160382 6.57124995     2    227   231   232   233
H 106.58972296 -17.17335406 8.69558724     6    230    0    0    0
H 105.58938653 -14.89637062 6.49270895     6    230    0    0    0
C 104.73142083 -18.75389555 5.36589743     2    230   234   235   236
H 104.57894898 -18.54247549 3.40907887     6    233    0    0    0
H 105.24750607 -20.71861134 5.52964937     6    233    0    0    0
C 101.99651528 -18.42612259 6.50507006     1    233   237   238   239
H 100.68715231 -19.68680641 5.55866949     6    236    0    0    0
H 101.09218175 -16.65399697 6.21886294     6    236    0    0    0
H 102.14202783 -18.90502923 8.52799680     6    236    0    0    0
H 128.13423973 -32.03546664 26.83736186     6     241    0    0    0 
C 128.04923422 -30.11291662 26.31610918     1     240    242    243    244
H 128.98043298 -30.20972549 24.46713840     6     241    0    0    0
H 126.07757012 -29.66210043 25.92539618     6     241    0    0    0
C 129.55827543 -28.33909301 28.11379750     2     241    245    246    247
H 131.33674500 -29.11491565 28.68748363     6     244    0    0    0
H 130.08860580 -26.64659612 26.95516975     6     244    0    0    0
C 127.95080119 -27.77861606 30.48367459     2     244    248   249   250
H 128.57777256 -26.22847020 31.37536790     6     247    0    0    0
H 126.07060876 -27.03312916 29.63391068     6     247    0    0    0
C 127.71992270 -30.04346893 32.24901552     2     247   251   252   253
H 126.41339839 -29.69202573 33.83516973     6    250    0    0    0
H 126.93467296 -31.61551913 31.08900725     6    250    0    0    0
C 130.31675642 -30.59591809 33.56310108     2    250   254   255   256
H 131.60165763 -31.26877716 32.12179607     6    253    0    0    0
H 130.96350063 -28.79463461 34.45812158     6    253    0    0    0
C 130.07424059 -32.58405644 35.59474353     2    253   257   258   259
H 131.99186995 -33.15393452 36.13432922     6    256    0    0    0
H 129.09573593 -31.81523255 37.15955653     6    256    0    0    0
C 128.67073170 -35.06603965 34.71134500     2    256   260   261   262
H 126.78383735 -34.69671741 34.26697953     6    259    0    0    0
H 129.49374117 -35.75426814 32.98414838     6    259    0    0    0
C 128.65856911 -37.13317991 36.70403213     2    259   263   264   265
H 130.43185428 -38.11623288 37.01875356     6    262    0    0    0
H 128.34509770 -36.22114732 38.54432896     6    262    0    0    0
C 126.54602060 -39.12604303 36.38294148     2    262   266   267   268
H 126.40386217 -40.34249309 38.02365391     6    265    0    0    0
H 124.78776372 -38.17667300 35.96119930     6    265    0    0    0
C 127.33301349 -40.96316608 34.20881875     2    265   269   270   271
H 128.24835145 -39.97309147 32.60351526     6    268    0    0    0
H 128.93346519 -42.22174429 34.87722100     6    268    0    0    0
C 125.30052739 -42.69245852 33.49068937     2    268   272   273   274
H 125.27646793 -44.26790366 34.74316903     6    271    0    0    0
H 123.43075631 -41.93723771 33.59345102     6    271    0    0    0
C 125.65575638 -43.80661641 30.91367086     1    271   275   276   277
H 125.82573044 -42.36654678 29.42365723     6    274    0    0    0
H 123.90441321 -44.81949592 30.56121570     6    274    0    0    0
H 127.08101366 -45.24700823 30.98635617     6    274    0    0    0
H 136.37458511 -11.10347896 17.53822474     6     279    0    0    0 
C 134.66497175 -10.17167767 17.71505425     1     278    280    281    282
H 134.24657180 -10.11811471 19.77666556     6     279    0    0    0
H 135.02442318 -8.28857498 17.09638027     6     279    0    0    0
C 132.70937797 -11.39777037 15.92039029     2     279    283    284    285
H 130.96669190 -10.20112426 16.21197428     6     282    0    0    0
H 133.38213197 -11.33204573 14.00094727     6     282    0    0    0
C 131.79881609 -14.08091376 16.57980294     2     282    286   287   288
H 133.35041835 -15.38178091 16.12954762     6     285    0    0    0
H 131.52332776 -14.28052746 18.58278851     6     285    0    0    0
C 129.50207348 -14.89301622 14.93163510     2     285   289   290   291
H 127.92396037 -13.64939670 15.39219542     6    288    0    0    0
H 129.71288718 -14.92989004 13.00565669     6    288    0    0    0
C 128.59638575 -17.63411499 15.53041276     2    288   292   293   294
H 130.18654348 -18.85192940 15.59891745     6    291    0    0    0
H 127.73762852 -17.73715867 17.20744346     6    291    0    0    0
C 126.70311804 -18.67601973 13.52819865     2    291   295   296   297
H 125.22772715 -17.26889374 13.12502535     6    294    0    0    0
H 127.62541209 -18.76606062 11.67076578     6    294    0    0    0
C 125.69997040 -21.26264534 14.18095029     2    294   298   299   300
H 127.08755250 -22.78565510 14.04745806     6    297    0    0    0
H 125.21213115 -21.40401738 16.25994698     6    297    0    0    0
C 123.35471905 -21.92783723 12.72271185     2    297   301   302   303
H 121.93267854 -20.58262099 13.04033030     6    300    0    0    0
H 123.74947093 -21.67701836 10.66457605     6    300    0    0    0
C 122.50101168 -24.67650846 13.41161606     2    300   304   305   306
H 123.98732393 -25.73552401 12.62854668     6    303    0    0    0
H 122.50061113 -25.24655266 15.50557213     6    303    0    0    0
C 120.07806417 -25.25772616 11.96413571     2    303   307   308   309
H 118.54027860 -24.19312701 12.77394727     6    306    0    0    0
H 120.04987438 -24.74664459 10.06471175     6    306    0    0    0
C 119.58714307 -28.12845952 12.34628876     2    306   310   311   312
H 121.24132158 -29.11946720 11.33361833     6    309    0    0    0
H 119.51288453 -28.77588937 14.34200927     6    309    0    0    0
C 116.96809739 -29.00141231 11.39617088     1    309   313   314   315
H 116.63850591 -28.22924807 9.55531925     6    312    0    0    0
H 115.60483538 -28.19113559 12.68142090     6    312    0    0    0
H 116.88342356 -31.15070259 11.35623648     6    312    0    0    0
H 132.06153352 0.25460397 31.49252521     6     317    0    0    0 
C 133.03031320 0.36026157 33.35467394     1     316    318    319    320
H 133.34696550 -1.33227148 34.44165589     6     317    0    0    0
H 134.78562315 1.35184587 32.86054133     6     317    0    0    0
C 131.30598555 1.66678928 35.36231697     2     317    321    322    323
H 132.27262437 1.61729877 37.17853059     6     320    0    0    0
H 131.16172202 3.72005940 34.99697087     6     320    0    0    0
C 128.69643237 0.40864482 35.33103413     2     320    324   325   326
H 128.07992486 0.44211253 33.26500311     6     323    0    0    0
H 128.94796484 -1.62520130 35.74619513     6     323    0    0    0
C 126.67959549 1.77383439 37.06157635     2     323   327   328   329
H 127.74985544 1.98549750 38.85166589     6    326    0    0    0
H 126.40661618 3.55306411 36.30718779     6    326    0    0    0
C 124.10094926 0.29278456 37.42248770     2    326   330   331   332
H 123.80220856 -0.52785617 35.69264140     6    329    0    0    0
H 124.60265404 -1.30758064 38.68703392     6    329    0    0    0
C 121.76557848 1.78643624 38.35897740     2    329   333   334   335
H 121.39222925 3.38536238 37.12529889     6    332    0    0    0
H 120.26226125 0.42653156 38.39803615     6    332    0    0    0
C 122.32051330 2.88113549 40.92869206     2    332   336   337   338
H 123.10123995 1.41174870 42.02886798     6    335    0    0    0
H 123.98601984 4.09191983 40.72470734     6    335    0    0    0
C 120.12381576 4.34517459 42.14132540     2    335   339   340   341
H 120.91483730 5.98029715 43.14350690     6    338    0    0    0
H 119.10853960 5.27051870 40.62039053     6    338    0    0    0
C 118.62596147 2.86633403 44.02771087     2    338   342   343   344
H 117.85284651 1.19439574 42.82534996     6    341    0    0    0
H 119.66969757 2.29648631 45.78408048     6    341    0    0    0
C 116.22970864 4.45920341 44.86196360     2    341   345   346   347
H 115.73777129 3.97839986 46.79459381     6    344    0    0    0
H 116.66442166 6.49806018 44.79066728     6    344    0    0    0
C 113.88658336 4.07441097 43.25745703     2    344   348   349   350
H 114.24741358 4.71692671 41.24468625     6    347    0    0    0
H 113.44431564 2.02475558 43.03769909     6    347    0    0    0
C 111.65312010 5.47810661 44.48917951     1    347   351   352   353
H 110.09683222 6.02610281 43.10754107     6    350    0    0    0
H 112.56136949 7.18179798 45.12901993     6    350    0    0    0
H 110.80365167 4.56757754 46.12194417     6    350    0    0    0
H 126.50579086 -23.89310783 25.25299115     6     355    0    0    0 
C 126.59060470 -22.12628766 26.29921185     1     354    356    357    358
H 124.83060506 -21.18032247 25.96586829     6     355    0    0    0
H 126.91101458 -22.52225838 28.29308444     6     355    0    0    0
C 128.69744343 -20.43007885 25.32261774     2     355    359    360    361
H 130.58066518 -21.08838857 26.11208795     6     358    0    0    0
H 128.98934305 -20.66340205 23.24606077     6     358    0    0    0
C 128.48666698 -17.67715033 26.02430693     2     358    362   363   364
H 126.60080512 -17.24109517 25.55062347     6     361    0    0    0
H 128.75257628 -17.37574341 28.01478056     6     361    0    0    0
C 130.20232505 -15.81793007 24.78228425     2     361   365   366   367
H 132.01437505 -16.58244599 25.45894662     6    364    0    0    0
H 130.11727020 -15.86805222 22.74250116     6    364    0    0    0
C 129.81799599 -13.18387347 25.84778523     2    364   368   369   370
H 127.85623094 -12.88282280 26.07263092     6    367    0    0    0
H 131.01872433 -13.37118608 27.55048383     6    367    0    0    0
C 130.67463474 -10.95060813 24.27674343     2    367   371   372   373
H 132.72057544 -10.92714409 23.76548154     6    370    0    0    0
H 129.60109464 -11.27952437 22.41927044     6    370    0    0    0
C 129.86244804 -8.31724367 25.29063882     2    370   374   375   376
H 127.75774313 -8.40621953 25.67881576     6    373    0    0    0
H 130.72755839 -7.81600523 27.06706236     6    373    0    0    0
C 130.36348746 -6.23919611 23.13107315     2    373   377   378   379
H 132.26457036 -6.04244784 22.67030490     6    376    0    0    0
H 129.63811495 -6.73713376 21.31020489     6    376    0    0    0
C 129.38544098 -3.54869512 23.88744069     2    376   380   381   382
H 127.41603315 -3.66949705 24.17790601     6    379    0    0    0
H 130.25117747 -2.92794814 25.62017433     6    379    0    0    0
C 129.71611167 -1.46441410 21.91048053     2    379   383   384   385
H 131.66546021 -0.96510069 21.52871148     6    382    0    0    0
H 129.00307496 -2.44547031 20.30319719     6    382    0    0    0
C 128.30449935 0.90745965 22.59490456     2    382   386   387   388
H 128.18730228 1.77976888 20.82289018     6    385    0    0    0
H 126.40726617 0.38234347 23.19063489     6    385    0    0    0
C 129.19916022 2.65723719 24.71927914     1    385   389   390   391
H 128.10048559 4.48379053 24.76428230     6    388    0    0    0
H 131.29141920 2.98616126 24.49130524     6    388    0    0    0
H 129.04334342 1.82290441 26.49369784     6    388    0    0    0
H 105.79040204 3.71747343 58.47300825     6     393    0    0    0 
C 104.38121584 2.23505914 58.75421239     1     392    394    395    396
H 103.86435063 2.44148958 60.79014728     6     393    0    0    0
H 102.72385196 2.72350731 57.44964348     6     393    0    0    0
C 105.64716394 -0.35117463 58.14611153     2     393    397    398    399
H 106.50508514 -0.35921337 56.28150112     6     396    0    0    0
H 107.41606686 -0.92735940 59.32165201     6     396    0    0    0
C 103.84666553 -2.59571080 58.19488743     2     396    400   401   402
H 102.99594240 -2.56756676 60.04340207     6     399    0    0    0
H 102.38525223 -2.40556594 56.89763395     6     399    0    0    0
C 105.34420136 -5.02492632 57.52951839     2     399   403   404   405
H 106.33165494 -4.60297625 55.77353605     6    402    0    0    0
H 106.96825497 -5.20483894 58.77661326     6    402    0    0    0
C 103.93560835 -7.47813118 57.03616720     2    402   406   407   408
H 103.18371929 -7.92634592 59.00419069     6    405    0    0    0
H 102.38001922 -6.90802547 55.95439018     6    405    0    0    0
C 105.27588559 -9.82157742 56.07025833     2    405   409   410   411
H 106.55645863 -9.57328126 54.35756146     6    408    0    0    0
H 106.29171602 -10.69658618 57.64846418     6    408    0    0    0
C 103.21687343 -11.71832782 54.93783964     2    408   412   413   414
H 101.63611154 -12.10034124 56.11017032     6    411    0    0    0
H 102.50782871 -10.63988811 53.32465230     6    411    0    0    0
C 104.44394532 -14.17936001 53.94039114     2    411   415   416   417
H 106.01906042 -13.64287837 52.76982793     6    414    0    0    0
H 105.22592174 -15.23362412 55.39846529     6    414    0    0    0
C 102.47167306 -15.84519976 52.51927498     2    414   418   419   420
H 101.02568764 -16.35450112 53.95210172     6    417    0    0    0
H 101.51143986 -14.94036624 50.92335083     6    417    0    0    0
C 103.62843424 -18.21940086 51.28495936     2    417   421   422   423
H 104.68770265 -17.61120263 49.60939474     6    420    0    0    0
H 105.07126923 -18.99331302 52.55414658     6    420    0    0    0
C 101.53306715 -20.16203883 50.64975016     2    420   424   425   426
H 100.36876330 -20.66888005 52.28645715     6    423    0    0    0
H 100.34610848 -19.35016975 49.28054095     6    423    0    0    0
C 102.70975147 -22.69447455 49.63946107     1    423   427   428   429
H 101.24916700 -24.02066676 49.13860185     6    426    0    0    0
H 104.17484166 -23.77710773 50.60481964     6    426    0    0    0
H 103.40022814 -22.21377708 47.71550494     6    426    0    0    0
H 121.12694356 -17.11479690 53.22820592     6     431    0    0    0 
C 121.84109668 -15.31462403 54.12504717     1     430    432    433    434
H 123.22396667 -15.86094298 55.62655891     6     431    0    0    0
H 122.94221709 -14.41212113 52.62954980     6     431    0    0    0
C 119.64374553 -13.57233069 55.24343794     2     431    435    436    437
H 118.21731606 -13.40233147 53.81958779     6     434    0    0    0
H 119.09026509 -14.55542525 56.98897497     6     434    0    0    0
C 120.58729745 -10.90134453 55.88846957     2     434    438   439   440
H 122.28469452 -10.95235763 57.14420585     6     437    0    0    0
H 121.17797480 -10.06004804 54.00785046     6     437    0    0    0
C 118.48826511 -9.25000198 56.99011617     2     437   441   442   443
H 119.37168568 -7.47478340 57.54016847     6    440    0    0    0
H 117.03775503 -8.58769341 55.64741220     6    440    0    0    0
C 117.30365448 -10.39972650 59.30050633     2    440   444   445   446
H 115.98830806 -11.95360749 58.66441380     6    443    0    0    0
H 118.66671732 -11.37442140 60.69546547     6    443    0    0    0
C 115.93640484 -8.52388626 61.19578105     2    443   447   448   449
H 117.25278276 -7.02137573 61.90681126     6    446    0    0    0
H 114.43736547 -7.49216971 60.15967024     6    446    0    0    0
C 114.48209544 -9.93235211 63.18940122     2    446   450   451   452
H 113.16584514 -10.99194331 62.07047854     6    449    0    0    0
H 115.69909143 -11.42358386 64.15826473     6    449    0    0    0
C 113.37347820 -8.17307096 65.13073698     2    449   453   454   455
H 114.63194540 -6.43936410 65.27373063     6    452    0    0    0
H 111.50787231 -7.30392980 64.49739046     6    452    0    0    0
C 112.74909619 -9.24309739 67.78873319     2    452   456   457   458
H 110.81998521 -9.84272482 67.87915705     6    455    0    0    0
H 113.98283269 -10.79946006 67.97655214     6    455    0    0    0
C 113.12798727 -7.48130048 69.91576747     2    455   459   460   461
H 112.97312637 -8.51541138 71.62956876     6    458    0    0    0
H 115.08580785 -6.82397948 69.90229347     6    458    0    0    0
C 111.60992491 -5.05651619 69.73900264     2    458   462   463   464
H 112.36085888 -4.11116418 68.13917983     6    461    0    0    0
H 109.61563938 -5.48460980 69.26964072     6    461    0    0    0
C 111.56466749 -3.55420528 72.19775076     1    461   465   466   467
H 113.35550062 -2.90326821 72.87453958     6    464    0    0    0
H 110.33002538 -4.32619548 73.65332780     6    464    0    0    0
H 110.47295131 -1.76760727 71.86349100     6    464    0    0    0
H 139.79854694 -7.55384222 24.66417407     6     469    0    0    0 
C 140.52931207 -7.55577899 22.72267820     1     468    470    471    472
H 139.17523103 -6.76214155 21.50554000     6     469    0    0    0
H 142.44801687 -6.73149817 22.40926040     6     469    0    0    0
C 140.67482995 -10.33216228 21.82783149     2     469    473    474    475
H 140.27606184 -10.14002778 19.73978801     6     472    0    0    0
H 142.60711683 -11.06122849 21.94249039     6     472    0    0    0
C 138.92667848 -12.41125149 23.12492446     2     472    476   477   478
H 139.53534252 -12.37986813 25.03085121     6     475    0    0    0
H 137.04010902 -11.74760531 23.12128334     6     475    0    0    0
C 139.09161777 -14.86503299 21.73557796     2     475   479   480   481
H 138.73349396 -14.63842898 19.72835722     6    478    0    0    0
H 140.94865768 -15.77488338 21.98356813     6    478    0    0    0
C 136.95913430 -16.68554886 22.49090043     2    478   482   483   484
H 137.10728354 -17.66646610 24.30324056     6    481    0    0    0
H 135.30096440 -15.54004722 22.75455016     6    481    0    0    0
C 136.20284493 -18.72030462 20.54504774     2    481   485   486   487
H 135.66186613 -18.05067155 18.79749472     6    484    0    0    0
H 138.06479997 -19.65325032 20.26301703     6    484    0    0    0
C 134.42265478 -20.59925645 21.65128794     2    484   488   489   490
H 135.10942817 -21.28759376 23.50882899     6    487    0    0    0
H 132.69753322 -19.62706535 21.99526275     6    487    0    0    0
C 134.03085589 -22.89644792 19.86061450     2    487   491   492   493
H 134.20404217 -22.22901479 18.01461195     6    490    0    0    0
H 135.29722551 -24.48424384 20.15389736     6    490    0    0    0
C 131.18416666 -23.90604865 20.15399344     2    490   494   495   496
H 130.59166049 -24.19426401 22.11368384     6    493    0    0    0
H 129.86324340 -22.38261436 19.43026823     6    493    0    0    0
C 130.41594329 -26.31406416 18.72749323     2    493   497   498   499
H 130.56875943 -25.77765881 16.73044106     6    496    0    0    0
H 131.67225895 -28.08223526 19.10639923     6    496    0    0    0
C 127.91046869 -27.32136847 19.37605479     2    496   500   501   502
H 127.91244918 -27.52535845 21.44365314     6    499    0    0    0
H 126.39820304 -25.87854815 19.01907326     6    499    0    0    0
C 127.29287538 -29.92592788 18.15120199     1    499   503   504   505
H 125.50809253 -30.65235909 18.80019420     6    502    0    0    0
H 128.80875605 -31.29914451 18.39219907     6    502    0    0    0
H 127.07786467 -29.85171157 16.13868689     6    502    0    0    0
H 129.18860252 -36.20115891 43.14843318     6     507    0    0    0 
C 127.23489676 -35.88885282 44.02627380     1     506    508    509    510
H 125.89140869 -37.14821582 43.07815700     6     507    0    0    0
H 127.52319560 -36.54819321 46.00417151     6     507    0    0    0
C 126.47766515 -33.15459739 43.94601360     2     507    511    512    513
H 127.91835790 -31.90886053 44.78631172     6     510    0    0    0
H 126.25096887 -32.59855352 41.78049377     6     510    0    0    0
C 123.91230033 -32.64466066 45.42113518     2     510    514   515   516
H 122.25865641 -33.51923981 44.39425350     6     513    0    0    0
H 124.00589570 -33.41670544 47.34745517     6     513    0    0    0
C 123.24900120 -29.68575219 45.58275459     2     513   517   518   519
H 124.65678328 -28.70392485 46.63424110     6    516    0    0    0
H 123.17172639 -28.95968821 43.66347299     6    516    0    0    0
C 120.67946035 -29.11360280 46.86351461     2    516   520   521   522
H 119.17453539 -29.62017871 45.52462595     6    519    0    0    0
H 120.66112864 -30.37759748 48.64970309     6    519    0    0    0
C 120.33549521 -26.22467374 47.41741729     2    519   523   524   525
H 121.73100558 -25.72803730 48.92907097     6    522    0    0    0
H 120.58841065 -25.06881178 45.67079412     6    522    0    0    0
C 117.67102332 -25.72784018 48.36114576     2    522   526   527   528
H 116.13410879 -26.67767945 47.46661135     6    525    0    0    0
H 117.63224823 -26.50927949 50.25004744     6    525    0    0    0
C 117.24325917 -22.97801897 48.61456244     2    525   529   530   531
H 118.84232685 -21.92216690 49.34701783     6    528    0    0    0
H 116.30405877 -22.26824837 46.83335943     6    528    0    0    0
C 115.11512356 -22.37612724 50.59762283     2    528   532   533   534
H 113.52393506 -23.75064207 50.24681982     6    531    0    0    0
H 115.97195184 -22.65247298 52.55041914     6    531    0    0    0
C 114.16813223 -19.59517823 50.51801777     2    531   535   536   537
H 115.69851808 -18.43076867 51.18752010     6    534    0    0    0
H 113.69489439 -19.23485745 48.59133593     6    534    0    0    0
C 111.84294559 -18.78641276 52.11762894     2    534   538   539   540
H 111.45324976 -16.88771669 51.99190227     6    537    0    0    0
H 110.38017817 -19.62142781 50.96648382     6    537    0    0    0
C 111.71262129 -19.61398312 54.90649930     1    537   541   542   543
H 109.61715989 -19.47532549 55.40910805     6    540    0    0    0
H 113.03356732 -18.62039114 56.00284761     6    540    0    0    0
H 112.03433623 -21.63165085 55.15963213     6    540    0    0    0
H 109.93204970 -6.57616867 43.15255810     6     545    0    0    0 
C 110.44196098 -5.53846295 44.87226403     1     544    546    547    548
H 109.10811254 -6.37084378 46.25124055     6     545    0    0    0
H 112.34792911 -6.39992597 45.41375458     6     545    0    0    0
C 110.23216322 -2.67936177 44.53735700     2     545    549    550    551
H 110.41064794 -1.79265164 46.44058444     6     548    0    0    0
H 111.92723872 -2.03525520 43.57213999     6     548    0    0    0
C 107.71415775 -2.01580214 43.31854186     2     548    552   553   554
H 107.62498521 -3.09992579 41.51910319     6     551    0    0    0
H 106.12702095 -2.67404793 44.61147375     6     551    0    0    0
C 107.46356193 0.81563012 42.86985347     2     551   555   556   557
H 107.31737352 1.68324645 44.70755971     6    554    0    0    0
H 109.10079158 1.38379828 41.81575600     6    554    0    0    0
C 104.92776858 1.28594930 41.73275724     2    554   558   559   560
H 104.92092356 0.49619023 39.82662715     6    557    0    0    0
H 103.66297528 0.36822170 43.04942718     6    557    0    0    0
C 104.42641577 4.16905212 41.55345366     2    557   561   562   563
H 104.78327460 4.83202144 43.45516247     6    560    0    0    0
H 105.66388181 5.17302515 40.25976391     6    560    0    0    0
C 101.77815255 4.81120061 40.63867757     2    560   564   565   566
H 101.60175498 4.07293661 38.72722456     6    563    0    0    0
H 100.22929450 3.85470429 41.69687352     6    563    0    0    0
C 101.09861679 7.61813361 40.58525158     2    563   567   568   569
H 101.12513361 8.11476676 42.56381466     6    566    0    0    0
H 102.63538103 8.60650266 39.61661961     6    566    0    0    0
C 98.49484350 8.47386281 39.49684712     2    566   570   571   572
H 98.34034924 7.55621316 37.70070544     6    569    0    0    0
H 96.95379730 7.85705219 40.45038373     6    569    0    0    0
C 98.61261307 11.40361946 39.23232586     2    569   573   574   575
H 98.88477129 12.20219020 41.15266447     6    572    0    0    0
H 100.03720068 12.12796868 38.15797835     6    572    0    0    0
C 96.13577713 12.41807545 38.38864945     2    572   576   577   578
H 94.49035202 11.92310455 39.63008318     6    575    0    0    0
H 96.26196864 14.54032944 38.29095504     6    575    0    0    0
C 95.34304743 11.51300210 35.74832457     1    575   579   580   581
H 95.37178594 12.98427628 34.37796580     6    578    0    0    0
H 93.32236457 11.03421533 35.95921195     6    578    0    0    0
H 96.20096756 9.91092074 34.88528993     6    578    0    0    0
H 130.90072690 -8.19164918 11.79253850     6     583    0    0    0 
C 129.19392876 -7.07522196 11.31900864     1     582    584    585    586
H 129.06845229 -7.01660864 9.31411984     6     583    0    0    0
H 127.73706306 -8.51336428 11.83238819     6     583    0    0    0
C 129.09058591 -4.42614971 12.39018349     2     583    587    588    589
H 129.76967591 -4.56609420 14.25294272     6     586    0    0    0
H 130.50373138 -3.21870015 11.46018577     6     586    0    0    0
C 126.72384600 -2.95804056 12.30505252     2     586    590   591   592
H 126.17722668 -2.91788060 10.20921403     6     589    0    0    0
H 125.18665501 -3.80784512 13.30731739     6     589    0    0    0
C 127.02296421 -0.16018349 13.32512283     2     589   593   594   595
H 127.19438463 -0.02970480 15.51212211     6    592    0    0    0
H 128.77725794 0.59557617 12.58991504     6    592    0    0    0
C 124.90774023 1.90117612 12.61683330     2    592   596   597   598
H 125.12823339 2.60702828 10.66256392     6    595    0    0    0
H 123.04981783 1.15569113 12.88791741     6    595    0    0    0
C 125.24937786 4.28451378 14.21620630     2    595   599   600   601
H 125.60143227 3.73355122 16.15296574     6    598    0    0    0
H 126.93343017 5.28337811 13.59395103     6    598    0    0    0
C 123.06991544 6.07983364 14.06455428     2    598   602   603   604
H 122.72740051 6.87941847 12.19479429     6    601    0    0    0
H 121.24069104 5.27957878 14.60616586     6    601    0    0    0
C 123.53213674 8.33235559 15.81765866     2    601   605   606   607
H 124.01040744 7.57500296 17.77077159     6    604    0    0    0
H 125.09390656 9.24938208 14.96742845     6    604    0    0    0
C 121.23100283 10.25058162 15.87650786     2    604   608   609   610
H 119.70442817 9.47417161 14.77911069     6    607    0    0    0
H 120.66826342 10.20062651 17.91997663     6    607    0    0    0
C 121.95969935 12.84068668 14.88241994     2    607   611   612   613
H 123.67613959 13.57306683 15.71350542     6    610    0    0    0
H 122.60499425 12.70249301 12.97435766     6    610    0    0    0
C 119.89091661 14.88296994 15.35699365     2    610   614   615   616
H 118.21991960 14.35870977 14.38059904     6    613    0    0    0
H 119.47679644 15.30604509 17.37353875     6    613    0    0    0
C 120.35873436 17.47581353 14.22219167     1    613   617   618   619
H 121.18642869 17.29261791 12.24794183     6    616    0    0    0
H 121.56945922 18.54245098 15.57483697     6    616    0    0    0
H 118.46385264 18.33283175 13.81576899     6    616    0    0    0
H 95.80226769 -19.76593570 29.33452595     6     621    0    0    0 
C 95.42418138 -17.78752517 28.90965616     1     620    622    623    624
H 93.44457256 -17.33423020 29.04247712     6     621    0    0    0
H 96.29345299 -16.43365436 30.18327451     6     621    0    0    0
C 96.45552020 -17.08224933 26.10853448     2     621    625    626    627
H 96.31944209 -14.97403780 25.72969556     6     624    0    0    0
H 98.52986444 -17.55494239 26.24766498     6     624    0    0    0
C 95.29481630 -18.59690903 24.16079829     2     624    628   629   630
H 95.27837672 -20.58198784 25.02208912     6     627    0    0    0
H 93.26683656 -18.18591214 24.10263591     6     627    0    0    0
C 96.49269080 -18.67335325 21.41571324     2     627   631   632   633
H 96.92446869 -16.85934194 20.60148762     6    630    0    0    0
H 98.37054559 -19.49161464 21.73753927     6    630    0    0    0
C 95.02511770 -20.05161613 19.41421092     2    630   634   635   636
H 94.24042188 -21.79731189 20.01473394     6    633    0    0    0
H 93.61086087 -18.74296857 18.95026526     6    633    0    0    0
C 96.65516456 -20.39941016 17.08072504     2    633   637   638   639
H 97.37606694 -18.66327097 16.15514183     6    636    0    0    0
H 98.30842890 -21.64643201 17.42201525     6    636    0    0    0
C 95.08830874 -21.54742831 14.79976343     2    636   640   641   642
H 93.99096638 -23.28112475 15.33788313     6    639    0    0    0
H 93.52409406 -20.13833761 14.37107520     6    639    0    0    0
C 96.66948963 -21.89830768 12.31467620     2    639   643   644   645
H 97.82195435 -20.16299975 11.65916519     6    642    0    0    0
H 97.93195169 -23.49615002 12.91464766     6    642    0    0    0
C 95.29899551 -22.81025745 9.83673996     2    642   646   647   648
H 93.68660660 -24.02640609 10.48026520     6    645    0    0    0
H 94.46268357 -21.15912337 8.90900068     6    645    0    0    0
C 97.02588066 -24.29585282 8.07031777     2    645   649   650   651
H 98.44940529 -23.03333436 7.30566179     6    648    0    0    0
H 97.98723624 -25.69443686 9.14538372     6    648    0    0    0
C 95.66750790 -25.53108029 5.72496647     2    648   652   653   654
H 94.73912817 -27.06268228 6.49141200     6    651    0    0    0
H 94.32143261 -24.03303175 5.16352057     6    651    0    0    0
C 97.24477369 -26.44197618 3.51121508     1    651   655   656   657
H 98.35735608 -25.03000999 2.59082989     6    654    0    0    0
H 95.97269498 -26.95005075 1.96530277     6    654    0    0    0
H 98.64802765 -27.90775163 4.10198912     6    654    0    0    0
H 122.27959772 -3.26834285 17.38939801     6     659    0    0    0 
C 120.50392632 -4.29443110 16.88915247     1     658    660    661    662
H 120.99473496 -5.31220891 15.18263030     6     659    0    0    0
H 120.00436594 -5.51530380 18.35156342     6     659    0    0    0
C 118.21953018 -2.66060917 16.14443116     2     659    663    664    665
H 118.50264950 -1.45838462 14.53340917     6     662    0    0    0
H 116.64844877 -4.02467490 15.74232221     6     662    0    0    0
C 117.19777173 -1.35279265 18.34766862     2     662    666   667   668
H 115.24628720 -0.87252403 17.97477217     6     665    0    0    0
H 117.15404354 -2.60037967 20.02112402     6     665    0    0    0
C 118.39882582 1.16511424 19.06904214     2     665   669   670   671
H 120.17023988 0.74079640 20.15909734     6    668    0    0    0
H 118.78764102 2.28807374 17.39385478     6    668    0    0    0
C 116.46916898 2.46832829 20.89075728     2    668   672   673   674
H 114.89798507 2.94587524 19.69663709     6    671    0    0    0
H 115.77765239 1.07360281 22.31524427     6    671    0    0    0
C 117.39946562 5.07333896 21.89466611     2    671   675   676   677
H 118.94459897 4.79694047 23.24170980     6    674    0    0    0
H 118.21293526 6.02594402 20.09578368     6    674    0    0    0
C 115.43352671 6.73561928 22.88129435     2    674   678   679   680
H 116.00885779 8.89063880 22.83975983     6    677    0    0    0
H 113.72999122 6.52936136 21.67203310     6    677    0    0    0
C 114.75467246 6.18214643 25.65119736     2    677   681   682   683
H 114.50927862 4.07505594 25.66667855     6    680    0    0    0
H 116.25362081 6.79254740 27.08913366     6    680    0    0    0
C 112.28079246 7.64710391 26.42961935     2    680   684   685   686
H 110.87836844 7.35049394 24.99472144     6    683    0    0    0
H 111.71642823 6.88058219 28.21633100     6    683    0    0    0
C 112.51050652 10.54615198 26.91811149     2    683   687   688   689
H 113.91954148 10.67238429 28.48916700     6    686    0    0    0
H 113.39822196 11.46494204 25.23214447     6    686    0    0    0
C 110.02030644 11.58152919 27.74505877     2    686   690   691   692
H 108.40742750 11.67618980 26.39954264     6    689    0    0    0
H 109.17444642 10.28487529 29.04633015     6    689    0    0    0
C 110.08110476 14.18881236 28.94167435     1    689   693   694   695
H 108.21559937 15.06426839 29.38932057     6    692    0    0    0
H 110.94578005 15.62432105 27.68763562     6    692    0    0    0
H 111.24026540 14.16639768 30.60155795     6    692    0    0    0
H 93.50713131 10.45237484 44.82487257     6     697    0    0    0 
C 94.92034586 11.33988315 45.90776722     1     696    698    699    700
H 95.62883200 12.85711596 44.59947993     6     697    0    0    0
H 93.98856880 12.33529363 47.33999835     6     697    0    0    0
C 96.98627630 9.30905471 46.52074910     2     697    701    702    703
H 96.06155511 7.75909687 47.36720216     6     700    0    0    0
H 97.75273312 8.74257873 44.63551444     6     700    0    0    0
C 99.19344569 10.27070619 48.11700425     2     700    704   705   706
H 100.02488216 11.96665234 47.43482516     6     703    0    0    0
H 98.18511132 11.06326880 49.86393462     6     703    0    0    0
C 101.30546077 8.38277599 48.59670324     2     703   707   708   709
H 100.44018800 6.63470120 49.13011638     6    706    0    0    0
H 102.48620069 8.07277662 47.05960675     6    706    0    0    0
C 102.96739021 9.15976186 50.81426074     2    706   710   711   712
H 103.37700884 11.20909655 50.77164497     6    709    0    0    0
H 101.85637578 8.98803698 52.61587008     6    709    0    0    0
C 105.44759450 7.70180639 51.33307862     2    709   713   714   715
H 104.98664605 5.80570982 50.91282295     6    712    0    0    0
H 106.85194449 8.21180138 50.08133343     6    712    0    0    0
C 106.54760878 7.81532544 53.93735131     2    712   716   717   718
H 107.06265812 9.72121803 54.28178273     6    715    0    0    0
H 105.09418719 7.46557026 55.34803560     6    715    0    0    0
C 108.79961278 6.16560634 54.21925355     2    715   719   720   721
H 107.98281375 4.26862023 54.54717090     6    718    0    0    0
H 109.77422880 6.20951462 52.42376708     6    718    0    0    0
C 110.28421207 6.59076241 56.58531893     2    718   722   723   724
H 111.64490229 8.17786442 56.51459311     6    721    0    0    0
H 108.91511517 7.04914494 57.93106253     6    721    0    0    0
C 111.58093159 4.19115300 57.56578276     2    721   725   726   727
H 110.20038744 2.81051482 58.02354949     6    724    0    0    0
H 113.02690657 3.64204072 56.33390725     6    724    0    0    0
C 112.84099037 4.93662536 60.11470572     2    724   728   729   730
H 111.36543109 5.80131805 61.33689193     6    727    0    0    0
H 113.59368290 3.23231816 60.93297053     6    727    0    0    0
C 115.39850090 6.38835423 59.66446660     1    727   731   732   733
H 116.60963975 6.58963183 61.41150513     6    730    0    0    0
H 114.82445573 8.21965341 58.91377498     6    730    0    0    0
H 116.52272552 5.24750218 58.38499395     6    730    0    0    0
H 139.25614731 -5.67657466 42.82344027     6     735    0    0    0 
C 139.90644610 -5.03062780 41.00605915     1     734    736    737    738
H 140.65088433 -3.12482975 41.13002115     6     735    0    0    0
H 141.33689575 -6.38684008 40.58490375     6     735    0    0    0
C 138.01526440 -5.10620875 38.74099133     2     735    739    740    741
H 136.68973314 -3.50947301 38.82093404     6     738    0    0    0
H 139.12502628 -4.69776042 37.05475051     6     738    0    0    0
C 136.64468220 -7.65394072 38.50353729     2     738    742   743   744
H 138.09351651 -9.13743818 38.75903555     6     741    0    0    0
H 135.47224286 -7.64501403 40.13417759     6     741    0    0    0
C 135.05239573 -7.89498824 36.15210636     2     741   745   746   747
H 133.42788483 -6.57335325 36.17632531     6    744    0    0    0
H 136.25597643 -7.77166694 34.50097031     6    744    0    0    0
C 134.00642861 -10.62649388 36.00959379     2    744   748   749   750
H 133.38368501 -11.02537211 37.89470894     6    747    0    0    0
H 132.48763223 -10.75243587 34.52752408     6    747    0    0    0
C 136.01870813 -12.55138015 35.14081310     2    747   751   752   753
H 136.54742895 -11.95443015 33.23871572     6    750    0    0    0
H 137.65823889 -12.56386537 36.31467877     6    750    0    0    0
C 135.15567054 -15.35740205 35.22286181     2    750   754   755   756
H 136.58772391 -16.74158215 34.76938255     6    753    0    0    0
H 134.74715576 -15.86985423 37.16823318     6    753    0    0    0
C 132.83876712 -15.73292995 33.44481757     2    753   757   758   759
H 131.18026650 -14.63485125 33.98676464     6    756    0    0    0
H 133.36846111 -15.18823005 31.56417611     6    756    0    0    0
C 132.20310145 -18.75144505 33.39821789     2    756   760   761   762
H 132.46458744 -19.50268425 35.26403579     6    759    0    0    0
H 130.28174504 -19.08412214 32.80060622     6    759    0    0    0
C 133.90546639 -20.11146332 31.39021403     2    759   763   764   765
H 133.69868278 -19.47533230 29.48457388     6    762    0    0    0
H 135.89301566 -19.86682424 31.81470459     6    762    0    0    0
C 133.31862927 -22.99710006 31.32785031     2    762   766   767   768
H 133.46041880 -23.80070123 33.31836444     6    765    0    0    0
H 131.30317317 -23.17162953 30.86355725     6    765    0    0    0
C 135.22237027 -24.33668132 29.52900278     1    765   769   770   771
H 135.98484445 -23.34925080 27.95510499     6    768    0    0    0
H 134.41915131 -26.16869749 28.93374451     6    768    0    0    0
H 136.90364923 -24.70129926 30.65179094     6    768    0    0    0
H 93.48068672 -22.89780569 28.16451844     6     773    0    0    0 
C 92.18206466 -24.42146860 28.35826757     1     772    774    775    776
H 90.27339047 -23.45485128 28.50019444     6     773    0    0    0
H 92.25255460 -25.62810885 26.74109329     6     773    0    0    0
C 92.91979399 -25.82693370 30.79584258     2     773    777    778    779
H 91.78504921 -27.55324894 31.09863603     6     776    0    0    0
H 94.83567666 -26.46250681 30.42938624     6     776    0    0    0
C 92.88781435 -24.09047544 33.12057232     2     776    780   781   782
H 93.71854490 -22.13114099 32.77032089     6     779    0    0    0
H 90.89012402 -23.68042802 33.55944911     6     779    0    0    0
C 94.06008049 -25.29188541 35.48281573     2     779   783   784   785
H 92.97916302 -26.91362525 36.11697345     6    782    0    0    0
H 96.04546505 -25.91162348 35.09577460     6    782    0    0    0
C 93.72456556 -23.52656967 37.76201166     2    782   786   787   788
H 95.17195700 -22.11068977 37.71306673     6    785    0    0    0
H 91.81649210 -22.98470214 37.95913071     6    785    0    0    0
C 94.51164174 -25.03553961 40.16096084     2    785   789   790   791
H 93.19533140 -26.45778085 40.54837237     6    788    0    0    0
H 96.34008869 -25.85966684 39.66989602     6    788    0    0    0
C 94.80219101 -23.34866559 42.39850548     2    788   792   793   794
H 96.32601482 -22.13663804 41.86883913     6    791    0    0    0
H 93.14431553 -22.16597705 42.50219085     6    791    0    0    0
C 95.40361795 -24.75327860 44.92896891     2    791   795   796   797
H 94.25600243 -26.47519060 45.17705959     6    794    0    0    0
H 97.31586238 -25.39827572 45.02590529     6    794    0    0    0
C 94.83610150 -23.27631650 47.25964208     2    794   798   799   800
H 96.32702341 -21.80436939 47.44318856     6    797    0    0    0
H 92.96462006 -22.38797873 47.08296004     6    797    0    0    0
C 95.18589953 -24.79330358 49.80100913     2    797   801   802   803
H 94.03332057 -26.44923876 49.46085500     6    800    0    0    0
H 97.03745937 -25.74188507 49.98881709     6    800    0    0    0
C 94.41272898 -23.06629946 52.00052860     2    800   804   805   806
H 95.55392058 -21.35360253 52.03115449     6    803    0    0    0
H 92.40433686 -22.58646340 51.58794234     6    803    0    0    0
C 94.43265659 -24.26850968 54.57762900     1    803   807   808   809
H 94.12379156 -22.80476925 56.02319676     6    806    0    0    0
H 96.10704690 -25.51245401 55.00165896     6    806    0    0    0
H 92.71604897 -25.45655720 54.56641204     6    806    0    0    0
H 127.72106691 -9.54748402 18.34905602     6     811    0    0    0 
C 125.72374026 -9.07807483 18.20077838     1     810    812    813    814
H 125.55848455 -7.03942373 18.28800592     6     811    0    0    0
H 125.19433025 -9.48998014 16.32542497     6     811    0    0    0
C 123.88431628 -10.28592020 20.18094143     2     811    815    816    817
H 124.48232747 -9.90378879 22.07982081     6     814    0    0    0
H 121.88314914 -9.78472760 20.02150575     6     814    0    0    0
C 124.12892847 -13.29150960 19.92127207     2     814    818   819   820
H 123.89863175 -13.90646348 17.89415486     6     817    0    0    0
H 125.97693092 -13.68366947 20.56504348     6     817    0    0    0
C 122.44940247 -14.76154480 21.64132003     2     817   821   822   823
H 122.96825892 -14.64280345 23.59252993     6    820    0    0    0
H 120.44133170 -14.06281490 21.43659768     6    820    0    0    0
C 122.61407564 -17.53470257 20.66808611     2    820   824   825   826
H 121.84893954 -17.54651883 18.65307440     6    823    0    0    0
H 124.69215122 -17.99228638 20.60185448     6    823    0    0    0
C 121.05648945 -19.64763150 21.95489877     2    823   827   828   829
H 121.59159742 -19.83584948 23.96741511     6    826    0    0    0
H 118.99068438 -19.42558902 21.87042929     6    826    0    0    0
C 121.48818629 -22.14323106 20.50080443     2    826   830   831   832
H 120.90303788 -21.99128508 18.49162384     6    829    0    0    0
H 123.45264666 -22.57783662 20.35186294     6    829    0    0    0
C 120.22309343 -24.59834942 21.74296278     2    829   833   834   835
H 121.38523586 -24.84910915 23.27780433     6    832    0    0    0
H 118.47902669 -23.85486696 22.55887947     6    832    0    0    0
C 119.90516542 -26.91305611 19.99310832     2    832   836   837   838
H 118.67919123 -26.63925242 18.37378818     6    835    0    0    0
H 121.66151944 -27.54180362 19.20074233     6    835    0    0    0
C 118.80265858 -29.05170886 21.62733085     2    835   839   840   841
H 119.71832623 -28.94694965 23.53949113     6    838    0    0    0
H 116.74646762 -28.75830880 21.91958790     6    838    0    0    0
C 119.28230784 -31.66757469 20.56581157     2    838   842   843   844
H 118.64296627 -31.67450741 18.55981734     6    841    0    0    0
H 121.35548384 -31.66052543 20.42964186     6    841    0    0    0
C 118.26273786 -33.88655925 22.18847936     1    841   845   846   847
H 119.21052963 -33.96489958 23.91157689     6    844    0    0    0
H 118.63042695 -35.60469199 21.23580784     6    844    0    0    0
H 116.22857243 -33.88153042 22.50933952     6    844    0    0    0
H 113.07357447 20.65240683 18.65657442     6     849    0    0    0 
C 111.23957677 19.69780064 19.02470360     1     848    850    851    852
H 110.44612183 20.24458350 20.77650106     6     849    0    0    0
H 110.04247112 20.33929346 17.35307568     6     849    0    0    0
C 111.89099980 16.88625416 19.23160308     2     849    853    854    855
H 113.75637548 16.75224859 20.44669029     6     852    0    0    0
H 110.35644861 16.03560896 20.30446335     6     852    0    0    0
C 112.20066984 15.45725079 16.76127296     2     852    856   857   858
H 110.79111687 16.26201208 15.41822027     6     855    0    0    0
H 114.06103121 15.94805052 16.04465308     6     855    0    0    0
C 112.03738289 12.59025230 17.08850628     2     855   859   860   861
H 112.39330648 12.18618841 19.04170257     6    858    0    0    0
H 110.17930480 12.10750862 16.46078725     6    858    0    0    0
C 113.82568078 10.91189388 15.52859047     2    858   862   863   864
H 113.90740000 11.76789372 13.53331863     6    861    0    0    0
H 115.89890155 11.23815172 15.99430357     6    861    0    0    0
C 113.17046593 8.02605096 15.57485641     2    861   865   866   867
H 112.96978822 7.28404462 17.33458544     6    864    0    0    0
H 111.29231341 7.86283872 14.73848680     6    864    0    0    0
C 114.76310750 6.35932432 13.92433360     2    864   868   869   870
H 114.97532731 7.38695220 11.98885404     6    867    0    0    0
H 116.85585005 6.26160676 14.30972669     6    867    0    0    0
C 113.65590089 3.73806539 13.52142142     2    867   871   872   873
H 114.31739085 2.42965447 14.99490479     6    870    0    0    0
H 111.58468616 3.84502172 13.40198465     6    870    0    0    0
C 114.66324443 2.72278607 10.91986375     2    870   874   875   876
H 113.77152305 0.99935898 10.54904389     6    873    0    0    0
H 113.65326956 3.89471085 9.56817979     6    873    0    0    0
C 117.58093400 2.73280007 10.54185201     2    873   877   878   879
H 118.27912889 4.65150473 10.74152112     6    876    0    0    0
H 118.53878147 1.70302858 11.98509481     6    876    0    0    0
C 117.95547237 2.12579017 7.70279630     2    876   880   881   882
H 117.12689739 0.36390608 7.35687516     6    879    0    0    0
H 116.79195841 3.51046995 6.68923393     6    879    0    0    0
C 120.64521107 1.69361935 6.62216720     1    879   883   884   885
H 121.45132596 0.19896901 7.95012190     6    882    0    0    0
H 121.71597929 3.50163979 6.85889156     6    882    0    0    0
H 120.56547341 1.11957006 4.67688652     6    882    0    0    0
H 116.08985376 -20.18398957 24.53074846     6     887    0    0    0 
C 114.15040615 -19.51163254 24.65414420     1     886    888    889    890
H 113.58996975 -19.50601549 22.67827628     6     887    0    0    0
H 112.89198320 -20.85110358 25.60142607     6     887    0    0    0
C 114.04054763 -17.01249681 25.93000142     2     887    891    892    893
H 112.06515244 -16.41890495 25.89290928     6     890    0    0    0
H 114.75516309 -17.17041655 27.87686411     6     890    0    0    0
C 115.62962270 -15.03834581 24.55980190     2     890    894   895   896
H 117.67574065 -15.45066405 25.14534991     6     893    0    0    0
H 115.35555347 -15.46830115 22.50489397     6     893    0    0    0
C 114.93754737 -12.31875220 25.44823121     2     893   897   898   899
H 113.04434757 -12.00114096 24.64468128     6    896    0    0    0
H 114.50911224 -11.96701357 27.44862804     6    896    0    0    0
C 116.99354216 -10.44994106 24.70368489     2    896   900   901   902
H 118.70245956 -11.16725812 25.48537782     6    899    0    0    0
H 117.25830015 -10.28160448 22.70064977     6    899    0    0    0
C 116.56953684 -7.79425395 25.75081266     2    899   903   904   905
H 114.80935561 -6.91784600 24.96527731     6    902    0    0    0
H 116.31091855 -7.91563897 27.74444808     6    902    0    0    0
C 118.92511649 -6.18207992 25.53258829     2    902   906   907   908
H 120.45648013 -6.86336835 26.79863383     6    905    0    0    0
H 119.77460348 -6.20659806 23.55854043     6    905    0    0    0
C 118.47315603 -3.52320608 26.42436850     2    905   909   910   911
H 116.94662552 -2.72241196 25.14888350     6    908    0    0    0
H 117.72285214 -3.73347339 28.33925092     6    908    0    0    0
C 120.91528572 -1.87464582 26.45973181     2    908   912   913   914
H 122.44695130 -2.99283733 27.39684214     6    911    0    0    0
H 121.47389376 -1.54823604 24.49623851     6    911    0    0    0
C 120.43391392 0.56742925 27.95881768     2    911   915   916   917
H 119.22637548 1.87029473 27.12068064     6    914    0    0    0
H 119.48499010 0.21102849 29.66006057     6    914    0    0    0
C 122.85732245 2.17247988 28.23939917     2    914   918   919   920
H 124.46215620 1.07439342 28.67170552     6    917    0    0    0
H 123.31664734 3.25411745 26.52072997     6    917    0    0    0
C 122.50138060 3.90934727 30.48561340     1    917   921   922   923
H 121.89450447 2.99494488 32.24828682     6    920    0    0    0
H 121.35322081 5.64801569 30.12059037     6    920    0    0    0
H 124.41089554 4.71089059 30.93343594     6    920    0    0    0
H 98.04135862 -3.07843508 14.28063818     6     925    0    0    0 
C 99.83453636 -3.67067974 13.54229898     1     924    926    927    928
H 100.19225883 -5.50116619 14.61012121     6     925    0    0    0
H 99.45011025 -3.87898423 11.49301391     6     925    0    0    0
C 101.75717904 -1.49418171 14.00500397     2     925    929    930    931
H 100.69321499 0.17768624 14.07682057     6     928    0    0    0
H 102.45454468 -1.61911106 15.85267786     6     928    0    0    0
C 104.03393250 -1.59327370 12.07168101     2     928    932   933   934
H 103.17217412 -1.93048680 10.07373178     6     931    0    0    0
H 104.94829167 0.16183341 12.04655837     6     931    0    0    0
C 105.88062649 -3.63090605 12.87079106     2     931   935   936   937
H 106.29914114 -2.91441398 14.75298479     6    934    0    0    0
H 105.00281557 -5.47913591 12.97589066     6    934    0    0    0
C 108.43070074 -3.45798971 11.38182771     2    934   938   939   940
H 107.85381460 -3.80021802 9.45052276     6    937    0    0    0
H 109.38664083 -1.62456483 11.76271912     6    937    0    0    0
C 110.25232630 -5.61014600 12.01583559     2    937   941   942   943
H 110.59160756 -5.53114294 14.17829617     6    940    0    0    0
H 109.46701963 -7.54342507 11.73211572     6    940    0    0    0
C 112.78017730 -5.34281644 10.56351330     2    940   944   945   946
H 113.41145478 -3.46402450 10.76088740     6    943    0    0    0
H 114.07752811 -6.64779994 11.53122498     6    943    0    0    0
C 112.59950261 -6.21553885 7.79362625     2    943   947   948   949
H 112.29906741 -8.29076876 7.58243154     6    946    0    0    0
H 110.85912415 -5.31917743 6.92356514     6    946    0    0    0
C 114.84637344 -5.27755625 5.94769785     2    946   950   951   952
H 115.33588417 -3.29072037 6.27821158     6    949    0    0    0
H 116.46854344 -6.29146965 6.80590685     6    949    0    0    0
C 114.42586976 -6.06354856 3.19826112     2    949   953   954   955
H 114.28825730 -8.10217587 3.23049984     6    952    0    0    0
H 112.50123120 -5.49271160 2.63285744     6    952    0    0    0
C 116.28315817 -4.64825823 1.59442238     2    952   956   957   958
H 115.93692396 -4.97129963 -0.45095710     6    955    0    0    0
H 116.05158136 -2.68950954 2.04378958     6    955    0    0    0
C 119.02156072 -5.59553773 1.99432976     1    955   959   960   961
H 120.19929364 -4.38835606 0.88115574     6    958    0    0    0
H 119.25833763 -7.44126861 1.09229785     6    958    0    0    0
H 119.73833279 -5.52366210 3.81316177     6    958    0    0    0
H 122.22704023 -17.76472430 43.84165051     6     963    0    0    0 
C 120.23155676 -18.34717927 43.45321172     1     962    964    965    966
H 119.93292351 -18.44604541 41.31492771     6     963    0    0    0
H 120.35056213 -20.26290386 44.20241860     6     963    0    0    0
C 118.25070949 -16.91776718 45.18171530     2     963    967    968    969
H 116.28772968 -17.50867862 44.75201777     6     966    0    0    0
H 118.28363585 -17.83709222 47.08590826     6     966    0    0    0
C 118.41618857 -13.92690662 45.28861481     2     966    970   971   972
H 120.37156182 -13.33599933 45.82890001     6     969    0    0    0
H 117.95334386 -12.89479372 43.57559290     6     969    0    0    0
C 116.43579674 -13.26920606 47.36268976     2     969   973   974   975
H 114.53391579 -14.09730836 46.79705418     6    972    0    0    0
H 117.22204983 -14.13794866 49.04671933     6    972    0    0    0
C 116.15260407 -10.44878604 47.86968547     2    972   976   977   978
H 117.88840912 -9.74912758 48.75980558     6    975    0    0    0
H 115.84443482 -9.23994728 46.23182566     6    975    0    0    0
C 114.10778243 -10.25359092 49.79064196     2    975   979   980   981
H 112.45658423 -10.51375057 48.75285218     6    978    0    0    0
H 114.36349378 -11.81882371 51.05909556     6    978    0    0    0
C 114.39480736 -7.75108573 51.30546562     2    978   982   983   984
H 116.28213002 -7.54265915 52.13197602     6    981    0    0    0
H 114.33056163 -6.20915873 49.94266361     6    981    0    0    0
C 112.28409975 -7.24876759 53.19292679     2    981   985   986   987
H 110.32873607 -7.56987118 52.56841911     6    984    0    0    0
H 112.52910671 -8.40197815 54.96295928     6    984    0    0    0
C 112.36325829 -4.69433321 54.43018347     2    984   988   989   990
H 110.98282437 -4.78136182 55.92333704     6    987    0    0    0
H 114.02684013 -4.35237306 55.50336188     6    987    0    0    0
C 111.35197882 -2.51531581 52.77985847     2    987   991   992   993
H 110.62038752 -3.16016881 51.04457691     6    990    0    0    0
H 110.00720511 -1.17110893 53.69413245     6    990    0    0    0
C 113.61931799 -0.92219624 52.01387694     2    990   994   995   996
H 114.57279036 -0.06404801 53.73842987     6    993    0    0    0
H 115.00782060 -2.14984138 51.09209245     6    993    0    0    0
C 112.87288936 1.41981463 50.35614128     1    993   997   998   999
H 112.63350976 1.05834008 48.36320073     6    996    0    0    0
H 114.31023401 2.92394239 50.69991272     6    996    0    0    0
H 111.07720394 2.24635280 51.12813962     6    996    0    0    0
H 130.79523324 -27.65854213 41.90964164     6     1001    0    0    0 
C 129.11318871 -26.55018876 41.54970483     1     1000    1002    1003    1004
H 129.43038316 -25.20020298 40.09723476     6     1001    0    0    0
H 127.62453865 -27.86179909 41.00734221     6     1001    0    0    0
C 128.23126778 -25.24342783 43.96615265     2     1001    1005    1006    1007
H 126.49537158 -24.21013202 43.49392430     6     1004    0    0    0
H 127.84914883 -26.75312585 45.28657639     6     1004    0    0    0
C 130.12067333 -23.31298037 45.06598228     2     1004    1008   1009   1010
H 131.72881919 -24.35992424 45.75754976     6     1007    0    0    0
H 130.83278542 -22.31247314 43.42496220     6     1007    0    0    0
C 128.88493527 -21.49179725 46.96588361     2     1007   1011   1012   1013
H 127.49651268 -20.55026047 45.79278925     6    1010    0    0    0
H 127.67291519 -22.33953270 48.40424823     6    1010    0    0    0
C 130.94032118 -19.84915983 48.21055871     2    1010   1014   1015   1016
H 132.44201874 -20.77754312 49.14172272     6    1013    0    0    0
H 131.76564019 -18.97604715 46.59034119     6    1013    0    0    0
C 129.70426108 -17.93688066 49.99928751     2    1013   1017   1018   1019
H 128.91859028 -16.35863498 48.89483078     6    1016    0    0    0
H 128.36606046 -18.78966572 51.33131025     6    1016    0    0    0
C 131.74468886 -16.74045008 51.62281400     2    1016   1020   1021   1022
H 132.74433041 -18.30799713 52.62034670     6    1019    0    0    0
H 132.96364436 -15.48243261 50.61921569     6    1019    0    0    0
C 130.50292967 -15.20294169 53.73341923     2    1019   1023   1024   1025
H 128.80672711 -16.12471970 54.47242621     6    1022    0    0    0
H 131.70156838 -15.41680339 55.45126591     6    1022    0    0    0
C 130.00786401 -12.55773818 52.61917855     2    1022   1026   1027   1028
H 131.82873192 -11.63356625 52.00730840     6    1025    0    0    0
H 128.59122196 -12.54330350 51.09276691     6    1025    0    0    0
C 128.84687828 -10.80547725 54.71968354     2    1025   1029   1030   1031
H 127.07474305 -11.36210508 55.66327154     6    1028    0    0    0
H 130.27583405 -10.65136218 56.03355524     6    1028    0    0    0
C 128.43977182 -8.21795650 53.63831058     2    1028   1032   1033   1034
H 129.77575533 -7.68839136 52.17354333     6    1031    0    0    0
H 126.59295628 -8.40104675 52.69134771     6    1031    0    0    0
C 127.78725012 -6.24096646 55.70862690     1    1031   1035   1036   1037
H 127.37585323 -4.48434957 54.70762557     6    1034    0    0    0
H 128.98057330 -5.99006332 57.33653607     6    1034    0    0    0
H 126.02445869 -6.81063009 56.65528586     6    1034    0    0    0
H 102.91429473 -22.04786315 31.53579391     6     1039    0    0    0 
C 101.41301479 -22.15253643 30.17054183     1     1038    1040    1041    1042
H 99.69633850 -23.08540112 30.98358662     6     1039    0    0    0
H 100.57435554 -20.48172041 29.52522079     6     1039    0    0    0
C 102.51978109 -23.80335634 28.21120411     2     1039    1043    1044    1045
H 103.88645464 -22.68039796 27.16760735     6     1042    0    0    0
H 103.60092324 -25.35205645 29.04501570     6     1042    0    0    0
C 100.51159648 -24.67331779 26.35715745     2     1042    1046   1047   1048
H 99.21435304 -26.00937220 27.30955908     6     1045    0    0    0
H 99.27197295 -23.16734470 25.70136217     6     1045    0    0    0
C 101.32363863 -26.12000371 24.00609450     2     1045   1049   1050   1051
H 102.73781713 -24.88354956 23.14082156     6    1048    0    0    0
H 102.41930961 -27.85608869 24.38459383     6    1048    0    0    0
C 98.98688404 -26.54806358 22.23480262     2    1048   1052   1053   1054
H 97.88524537 -27.82169637 23.43993943     6    1051    0    0    0
H 98.00866050 -24.79191842 21.98213676     6    1051    0    0    0
C 99.75399387 -27.59216135 19.59224220     2    1051   1055   1056   1057
H 100.76400435 -26.05605003 18.54834884     6    1054    0    0    0
H 101.04458398 -29.07432069 19.83894368     6    1054    0    0    0
C 97.41236032 -28.74181043 18.27122905     2    1054   1058   1059   1060
H 96.62602426 -30.35788555 19.25833345     6    1057    0    0    0
H 95.89785836 -27.23640691 18.25160749     6    1057    0    0    0
C 97.79204548 -29.26595113 15.48213231     2    1057   1061   1062   1063
H 98.80859756 -27.77369394 14.56395184     6    1060    0    0    0
H 99.21742787 -30.72572622 15.09911944     6    1060    0    0    0
C 95.29415752 -29.87696792 14.16804897     2    1060   1064   1065   1066
H 94.10024682 -30.82670679 15.59856564     6    1063    0    0    0
H 94.40323990 -27.97042583 13.76703642     6    1063    0    0    0
C 95.69368901 -31.49673190 11.80834519     2    1063   1067   1068   1069
H 96.47851257 -30.19358979 10.47994092     6    1066    0    0    0
H 97.09861678 -32.76860729 12.22243740     6    1066    0    0    0
C 93.25533802 -32.62647141 10.61327252     2    1066   1070   1071   1072
H 92.27419284 -33.81867304 11.90970782     6    1069    0    0    0
H 91.97083469 -31.13185709 10.08336701     6    1069    0    0    0
C 93.88603453 -34.15061916 8.26447765     1    1069   1073   1074   1075
H 92.46230889 -35.35415457 7.67376706     6    1072    0    0    0
H 95.74729501 -35.06510341 7.99529071     6    1072    0    0    0
H 94.02586356 -32.74824312 6.80885366     6    1072    0    0    0
H 91.54158941 -10.76134215 10.33256316     6     1077    0    0    0 
C 92.03886525 -10.52103690 12.25878781     1     1076    1078    1079    1080
H 92.53924427 -8.46498827 12.69302234     6     1077    0    0    0
H 90.33301093 -11.30039808 13.31586097     6     1077    0    0    0
C 94.26356394 -12.28719825 12.84351195     2     1077    1081    1082    1083
H 94.14060466 -12.74480845 14.87930516     6     1080    0    0    0
H 94.24945522 -14.08993551 11.85998572     6     1080    0    0    0
C 96.94811300 -11.39503589 12.23952425     2     1080    1084   1085   1086
H 97.04838086 -11.33541177 10.16626897     6     1083    0    0    0
[...]
 1619      H      86.4354067900   -25.5623386200    36.4078491200
 1620      H      83.4457672100   -24.5618601500    37.4519359000
 1621      C      85.5523863300   -26.6001434000    39.9678727800
 1622      H      84.0704790700   -27.3346574200    41.1997616800
 1623      H      86.8774617700   -28.0947691800    39.9652349700
 1624      C      86.7318728400   -24.3040848500    41.2711630400
 1625      H      88.4843521700   -23.8167843800    40.3488248200
 1626      H      85.5973986400   -22.6386477900    41.1639657700
 1627      C      87.0630694000   -24.4984965100    44.0826270600
 1628      H      85.4949566100   -25.7858508500    44.8120493000
 1629      H      88.7200171400   -25.6286537800    44.3972868500
 1630      C      86.9586809000   -22.0384256800    45.6007147400
 1631      H      88.7740935300   -21.1247303800    45.2333307100
 1632      H      85.4808274700   -20.6512176100    45.0583054600
 1633      C      86.9306037400   -22.3922620800    48.5008143100
 1634      H      85.2618709700   -23.5928926900    49.0238392400
 1635      H      88.7103414100   -23.2406278300    49.1090353100
 1636      C      86.5757526000   -19.9126074700    49.9895871000
 1637      H      87.9075646600   -18.3912609900    49.4494668700
 1638      H      84.7619016600   -19.0729109700    49.3543383700
 1639      C      86.4882462300   -20.3672487100    52.8600263300
 1640      H      85.1681784600   -21.9953801300    53.1526276500
 1641      H      88.3893188400   -20.9015472800    53.3413418400
 1642      C      85.8624238900   -18.0021533000    54.5683264900
 1643      H      87.0113948700   -16.3657152500    54.2593596900
 1644      H      85.9067601400   -18.5465484500    56.6312435800
 1645      H      83.8923992200   -17.2866392400    54.2891251700
 1646      H     111.9049346500   -44.9169497500    50.0463613100
 1647      C     110.4022936300   -43.8487168400    49.2993524400
 1648      H     110.4058385000   -44.3994753100    47.3330066300
 1649      H     108.6936085800   -44.5587812200    50.2939243400
 1650      C     110.9515204600   -41.0684805800    49.5971897500
 1651      H     109.6503287500   -40.0227577600    48.4157676000
 1652      H     110.4495195900   -40.7696571800    51.4423920800
 1653      C     113.7229354500   -40.2369873800    49.0494677300
 1654      H     115.0528657800   -41.6945586400    48.8631288500
 1655      H     113.6582522600   -39.3755308700    47.2154280600
 1656      C     114.4457823600   -38.0833030400    50.9056548500
 1657      H     114.2564644700   -38.9545773300    52.7542381000
 1658      H     116.5418343800   -37.9361388200    50.5661158000
 1659      C     112.8308673800   -35.7095556500    50.6626440200
 1660      H     113.1107758100   -34.6944697000    48.9247336700
 1661      H     110.8786605900   -36.2164631100    50.6254327200
 1662      C     113.5433312700   -33.8037015900    52.7810158200
 1663      H     113.7017428600   -34.7078375600    54.6230275000
 1664      H     115.4797082000   -33.1879657900    52.3691533400
 1665      C     111.5524782200   -31.5991169900    52.8423573400
 1666      H     111.7559421400   -30.1859642300    51.3348144700
 1667      H     109.7218954600   -32.4738851200    52.7169412300
 1668      C     111.7544255700   -30.2875708100    55.4099512700
 1669      H     111.2016356100   -31.5555928200    56.7700176200
 1670      H     113.5921088000   -29.6236749900    56.0687775700
 1671      C     110.1223830300   -27.9097110400    55.5732059300
 1672      H     110.4274091400   -26.6861158400    53.8373656800
 1673      H     108.2282959000   -28.5187571800    55.3803761500
 1674      C     110.4309639200   -26.4276558300    58.0841214000
 1675      H     110.6645032700   -27.8848347800    59.4932879700
 1676      H     112.0741998600   -25.2973728800    58.1804056900
 1677      C     108.0742508300   -24.9580959000    58.7347486700
 1678      H     107.8003653600   -23.3326297000    57.3486776400
 1679      H     106.3537816200   -26.1041093600    58.5652637300
 1680      C     108.0322265000   -23.9891387300    61.4941545300
 1681      H     106.1738053600   -23.1328261400    62.1324856200
 1682      H     109.5624477900   -22.7084320500    61.8305196600
 1683      H     108.4511492600   -25.7100820100    62.6233252600
 1684      H     122.8582871800   -32.8971712300    37.3728703000
 1685      C     122.1599782500   -31.2968625500    38.5621879500
 1686      H     121.7392201000   -32.1968164100    40.2957944000
 1687      H     123.6563875400   -29.8830326200    38.7845578300
 1688      C     119.7525152400   -30.0740983000    37.3552072200
 1689      H     120.1469759100   -29.2483329100    35.4854383600
 1690      H     118.4790061300   -31.4896428900    36.9722071900
 1691      C     118.5320162600   -28.1406471400    39.1680117300
 1692      H     118.4852757600   -28.6225588900    40.9989661800
 1693      H     120.0218100000   -26.6228096600    39.3442126600
 1694      C     116.1509005600   -26.8886833400    38.1293651000
 1695      H     116.3023422400   -26.3781739700    36.1436368300
 1696      H     114.5653470400   -28.1301131000    38.0482875400
 1697      C     115.3781962400   -24.2983519000    39.2643356100
 1698      H     114.8558898300   -24.5748621700    41.2288810200
 1699      H     116.9336549200   -22.9737328600    39.2091053000
 1700      C     113.2062553600   -23.2569125900    37.7278935100
 1701      H     112.8449556800   -21.1961323500    38.0927875800
 1702      H     113.4834795300   -23.3071824700    35.6038099800
 1703      C     110.6308125300   -24.4103024300    38.3029449000
 1704      H     110.5781612600   -26.2791040900    37.6032569000
 1705      H     110.4968355100   -24.5595978900    40.3165435000
 1706      C     108.3493235300   -22.8352552100    37.2831720100
 1707      H     108.6776422800   -20.9493273600    37.7638790000
 1708      H     108.3723379900   -22.6348582600    35.0945995700
 1709      C     105.8894666400   -23.7595515400    38.4173159000
 1710      H     105.7557690600   -25.8325210000    38.4846769700
 1711      H     106.0719241500   -23.2219038800    40.4020961600
 1712      C     103.4022842500   -22.2705149500    37.3400975700
 1713      H     103.9809936800   -20.2948968400    37.1526587500
 1714      H     103.0545089500   -22.7846634700    35.3831756100
 1715      C     101.2960935700   -22.5135837600    39.1693300300
 1716      H      99.5693086000   -22.6786203600    38.1645345500
 1717      H     101.3798297800   -24.4530136000    40.0696675100
 1718      C     101.3359042000   -20.5781497000    41.1689786800
 1719      H     103.1781779800   -20.2950956100    41.9989659000
 1720      H     100.1267000200   -21.0568030800    42.7579053800
 1721      H     100.7125808900   -18.7191598500    40.4330154000
 1722      H     122.5773166000    -1.9899089600    58.4648868100
 1723      C     120.7463018800    -0.9860632100    58.2805888500
 1724      H     119.4157920900    -2.3188552700    59.0074583900
 1725      H     120.7871468700     0.5416083400    59.5866470900
 1726      C     120.2822470200    -0.2446970900    55.5511681400
 1727      H     118.6671167000     0.8718327100    55.1048584400
 1728      H     121.9364737800     0.9931832600    55.0062572500
 1729      C     120.2826225300    -2.5780277200    53.7528940700
 1730      H     121.6157939000    -3.9453312000    54.3760318400
 1731      H     118.4971195700    -3.4136236900    53.8987214300
 1732      C     120.8017896400    -2.0557870200    50.8993570800
 1733      H     119.5327951500    -0.7838775900    50.0081265700
 1734      H     122.7827967700    -1.2203275700    50.7680584500
 1735      C     120.7379522700    -4.4585826300    49.3881444200
 1736      H     121.6958340400    -6.1011673700    50.3444107200
 1737      H     118.7911477900    -4.9009791400    48.9178441400
 1738      C     122.1130661400    -3.9183087000    46.8379486100
 1739      H     121.3501655800    -2.1737084400    45.8896343900
 1740      H     124.0492861200    -3.9576203600    47.1990963800
 1741      C     121.3721207100    -6.0706912600    44.9604161200
 1742      H     123.0372150300    -7.2976207600    44.8222298800
 1743      H     119.6024180100    -6.9207696400    45.5011667500
 1744      C     120.6189101300    -5.0541345300    42.3996941600
 1745      H     119.0613018300    -3.6405217000    42.7298762600
 1746      H     122.1648402200    -3.8761640800    41.5786867400
 1747      C     119.6326827700    -7.0312537400    40.6824535600
 1748      H     121.0916370000    -8.5037519800    40.6641480500
 1749      H     118.0108386400    -7.7273212600    41.5825610000
 1750      C     119.1079109700    -6.0430067400    38.0006954400
 1751      H     118.0039505300    -4.2975809000    37.7051041900
 1752      H     120.9553522200    -5.1726526800    37.5591705100
 1753      C     118.5544637500    -7.9482849600    36.0310201800
 1754      H     119.9604892000    -9.4140709300    35.9819201300
 1755      H     116.7486404900    -8.8141385800    36.4915330800
 1756      C     118.3406703200    -6.7714834000    33.5175410700
 1757      H     117.7732185100    -8.3926681400    32.2194238900
 1758      H     120.0990003500    -6.0589910400    32.9739798500
 1759      H     117.1074733200    -5.2289404400    33.6857838600
 1760      H     135.4836527300     8.9365571900    31.2748085900
 1761      C     134.0602661100    10.0915706400    32.1240576100
 1762      H     135.1575318400    11.7756616700    32.7458516000
 1763      H     132.8428406200    10.7658742400    30.6126127100
 1764      C     132.4050525000     8.8761233400    34.3917003600
 1765      H     131.2878508100     7.3757013700    33.5454454900
 1766      H     133.7572225500     7.8848134700    35.6319634700
 1767      C     130.6804201100    10.9002567300    35.7631470500
 1768      H     131.5984885700    12.7928490300    35.8818707500
 1769      H     128.9162253500    11.1740801600    34.6198589200
 1770      C     129.6362544900    10.0512049400    38.2821318800
 1771      H     128.9560195400     8.1107553700    38.3062953200
 1772      H     131.1216451000    10.1174442700    39.7903579500
 1773      C     127.6237075400    11.8088911000    39.2241157900
 1774      H     128.7805226700    13.5173180100    39.6602792900
 1775      H     126.3463843100    12.6280473000    37.8259932100
 1776      C     126.2611809500    10.7273810500    41.6415546400
 1777      H     124.8457968500    12.1660622200    42.3235949300
 1778      H     125.1166516300     9.0097801800    41.0680728600
 1779      C     127.7484882500     9.6395435400    43.8099786000
 1780      H     129.5582847200     9.0591051100    43.0100058700
 1781      H     128.2480765000    11.2180340900    45.0516910400
 1782      C     126.3110257700     7.6438946900    45.1947672500
 1783      H     124.3951997000     8.3282765900    45.6707909300
 1784      H     125.9143194700     5.9021053200    44.1634160200
 1785      C     127.8714152600     6.6827945500    47.4932176000
 1786      H     129.4853959000     5.4649270300    46.9754711700
 1787      H     128.7730099800     8.2945283400    48.2742260600
 1788      C     126.2166168300     5.5637946000    49.6415819300
 1789      H     124.7969112400     6.8641171200    50.1840496300
 1790      H     125.3623593600     3.7732986900    49.0665230100
 1791      C     127.7810869700     4.6817176300    51.8577656700
 1792      H     129.5347619900     3.9077555500    51.2159044500
 1793      H     128.2210292400     6.3101897300    53.1156138200
 1794      C     126.4518734700     2.7589738700    53.6410574600
 1795      H     125.5026485400     1.2910332100    52.5042258200
 1796      H     125.0348734000     3.8547236200    54.7799276700
 1797      H     127.7329561500     1.8026113900    54.8006094400
 1798      H      86.2831355700   -12.7209681400    20.8918284900
 1799      C      88.1616870200   -12.8762474300    20.1890448100
 1800      H      88.7494126300   -14.7228582100    20.8374428600
 1801      H      87.9470030200   -12.9014371400    17.9906974600
 1802      C      90.1326307100   -11.0647794600    21.2279885100
 1803      H      90.2038725500    -9.3608929400    20.0842839000
 1804      H      89.8697831100   -10.9220911100    23.2708653100
 1805      C      92.9025683400   -12.0426591900    20.7061797700
 1806      H      93.2091088800   -13.6251020900    21.8919587600
 1807      H      92.8784029700   -12.4502521600    18.7036973500
 1808      C      95.0240292500   -10.1811823300    21.1669874300
 1809      H      94.8285824400    -8.7129166300    19.7957068100
 1810      H      94.8161432700    -9.4362179200    23.1005084000
 1811      C      97.6054145700   -11.3700153200    21.1065503000
 1812      H      97.9408475700   -12.2781879100    22.9219509200
 1813      H      97.6692397500   -12.6136496100    19.4183209500
 1814      C      99.6852750700    -9.3132658500    20.9233990400
 1815      H      99.8198031700    -8.4357983900    19.1145523400
 1816      H      99.1193312000    -7.7190451500    22.1880101900
 1817      C     102.3458867800   -10.0480610600    21.5252435500
 1818      H     102.4903277200   -10.3298144100    23.5216169100
 1819      H     102.5563501200   -11.8822769100    20.6875565700
 1820      C     104.2811195400    -8.2620799400    20.3678887100
 1821      H     103.8959726800    -8.0381119300    18.4575577400
 1822      H     103.8745909400    -6.3924092900    21.1447283700
 1823      C     107.0453448900    -8.9211159900    21.0694471200
 1824      H     107.4698554600    -8.7052606600    23.0293162700
 1825      H     107.0949857000   -11.0411647600    20.6290627900
 1826      C     108.9682962600    -7.4532774800    19.5595829600
 1827      H     108.5858289200    -7.7561683100    17.5100090400
 1828      H     108.8189972700    -5.4437084200    19.7848630500
 1829      C     111.6307981300    -8.2734662500    20.2359433800
 1830      H     112.0060302300    -7.9745267400    22.2108822000
 1831      H     111.6318482600   -10.2543448000    20.0286330000
 1832      C     113.6173202500    -6.8299552100    18.6411585000
 1833      H     113.3297286600    -4.8430242100    18.6681836000
 1834      H     113.2431954100    -7.1986387400    16.7048971300
 1835      H     115.4945156200    -7.5317795400    18.8131282400
 1836      H     111.7420148200    -5.8310019600    28.0713559300
 1837      C     111.0732111200    -4.1130841600    28.8063871700
 1838      H     109.0268834400    -4.3830384600    29.4623929100
 1839      H     112.1114855700    -3.7928155400    30.5468552100
 1840      C     111.0788325600    -1.6027387500    27.2550029800
 1841      H     110.2852998400    -0.0720872600    28.3798105700
 1842      H     113.0536369600    -0.9354587900    26.8038137100
 1843      C     109.6889821700    -1.9187399100    24.6121887600
 1844      H     110.7115100900    -3.2046060400    23.4969779600
 1845      H     107.8310566800    -2.8148320900    24.6909571000
 1846      C     109.7606800300     0.6945605600    22.9799679000
 1847      H     108.5623546400     2.0584786000    23.8873345900
 1848      H     111.6416653800     1.4524141100    22.7032453700
 1849      C     108.9451059300     0.2384549600    20.2512349800
 1850      H     110.2261573700    -1.2852586300    19.3483065600
 1851      H     106.9396183400    -0.5899724700    20.2573376100
 1852      C     108.8920698800     2.6452189700    18.5969212100
 1853      H     109.7302880900     4.3258726500    19.4474546300
 1854      H     109.7611165500     2.1312145900    16.8230927600
 1855      C     106.1367081500     3.2485697500    17.9781980100
 1856      H     105.3775318900     1.7566636100    16.8911155200
 1857      H     105.2580405600     3.5574311500    19.7346758100
 1858      C     105.9461062800     5.5735823700    16.3585295300
 1859      H     104.5884496300     7.0818271700    17.2860191100
 1860      H     107.7479491900     6.3861869400    16.2376190400
 1861      C     104.8544660800     5.3227040400    13.6100166100
 1862      H     105.8365130800     3.7749797500    12.5115024800
 1863      H     102.9553689300     4.6174099900    13.9283876200
 1864      C     105.0297522400     7.9340554300    12.1121231800
 1865      H     104.4915322100     9.3767890100    13.3749000700
 1866      H     106.9120053200     8.4680462200    11.4324836000
 1867      C     103.3723143600     7.6117537500     9.7385133900
 1868      H     104.0861585000     5.9539986900     8.7342684600
 1869      H     101.4381220900     7.1965529200    10.3227080100
 1870      C     103.3005988500     9.6118700300     7.7842910500
 1871      H     102.1102274400     9.1371955800     6.1823593500
 1872      H     105.1918147200     9.9380915800     6.9275204300
 1873      H     102.6505868500    11.4603580800     8.6859894200
 1874      H      98.5964623700     4.0911812900    52.7853576900
 1875      C      98.5061644300     1.9917132200    52.6902330300
 1876      H      98.7506437000     1.1421373200    54.5819131200
 1877      H      96.6711669700     1.5080819700    52.0169282600
 1878      C     100.4201461000     0.7335324800    50.9423549100
 1879      H     100.2877105200     1.7097723000    49.0889011100
 1880      H     102.2588402800     1.2370301200    51.6502036500
 1881      C     100.0944001300    -2.2603444100    50.9881061200
 1882      H     100.2270916200    -2.9699153900    52.8675470800
 1883      H      98.1229006300    -2.7835787300    50.4953368100
 1884      C     101.7285120400    -3.5483491400    49.0949186900
 1885      H     101.5258710200    -2.4716473900    47.3226414200
 1886      H     103.6335721600    -3.4028356800    49.6064237400
 1887      C     101.1876057300    -6.3822553900    48.7527333700
 1888      H     101.5648616200    -7.5378612400    50.4522291900
 1889      H      99.3119089300    -6.9214152500    48.1999566600
 1890      C     103.2470111500    -7.4480682000    46.8680081900
 1891      H     103.4460335300    -6.1903804200    45.2188776300
 1892      H     104.9353550700    -7.3174561500    47.9086750500
 1893      C     102.9652174800   -10.2934420100    46.2818141700
 1894      H     102.2912646700   -11.1326576500    47.9564155100
 1895      H     101.5321674200   -10.8256363000    44.8152536500
 1896      C     105.4725259900   -11.5143226100    45.4670249000
 1897      H     106.2033325200   -10.5412563800    43.9112112000
 1898      H     106.8371399100   -11.1486605900    46.8761349200
 1899      C     105.3523158700   -14.3613453000    44.9439155800
 1900      H     104.7303882600   -15.2262952700    46.7032720000
 1901      H     104.0969042100   -14.5640573300    43.5220997400
 1902      C     108.0124843700   -15.4951486100    44.5465958200
 1903      H     108.7359289800   -14.1682314000    43.0009738300
 1904      H     109.2162796600   -15.4613881000    46.2365300500
 1905      C     108.0431332200   -18.1472246200    43.3042604300
 1906      H     106.9290710700   -19.7673087200    44.2143257800
 1907      H     107.3254114400   -18.0092665300    41.3936312700
 1908      C     110.8266920400   -18.8019086800    43.0924050300
 1909      H     111.7367566600   -18.6054602000    44.8992639800
 1910      H     111.6684669600   -17.6767733500    41.5817922200
 1911      H     110.7400202600   -20.6646515500    42.3529379600
 ----------------------------------------------------------------
 Nuclear Repulsion Energy =           0.00000000 hartrees
 There are       48 alpha and       48 beta electrons
 Total job time:  119.92s(wall), 236.90s(cpu) 
 Wed Jun 22 08:07:41 2022

        *************************************************************
        *                                                           *
        *  Thank you very much for using Q-Chem.  Have a nice day.  *
        *                                                           *
        *************************************************************


