                  Welcome to Q-Chem
     A Quantum Leap Into The Future Of Chemistry


 Q-Chem 5.4 (devel), Q-Chem, Inc., Pleasanton, CA (2021)

 E. Epifanovsky,  A. T. B. Gilbert,  Xintian Feng,  Joonho Lee,  Yuezhi Mao,  
 N. Mardirossian,  P. Pokhilko,  A. White,  M. Wormit,  M. P. Coons,  
 A. L. Dempwolff,  Zhengting Gan,  D. Hait,  P. R. Horn,  L. D. Jacobson,  
 I. Kaliman,  J. Kussmann,  A. W. Lange,  Ka Un Lao,  D. S. Levine,  Jie Liu,  
 S. C. McKenzie,  A. F. Morrison,  K. Nanda,  F. Plasser,  D. R. Rehn,  
 M. L. Vidal,  Zhi-Qiang You,  Ying Zhu,  B. Alam,  B. Albrecht,  
 A. Aldossary,  E. Alguire,  J. H. Andersen,  D. Barton,  K. Begam,  A. Behn,  
 Y. A. Bernard,  E. J. Berquist,  H. Burton,  A. Carreras,  K. Carter-Fenk,  
 R. Chakraborty,  A. D. Chien,  K. D. Closser,  V. Cofer-Shabica,  
 S. Dasgupta,  Jia Deng,  M. de Wergifosse,  M. Diedenhofen,  Hainam Do,  
 S. Ehlert,  Po-Tung Fang,  S. Fatehi,  Qingguo Feng,  T. Friedhoff,  
 J. Gayvert,  Qinghui Ge,  G. Gidofalvi,  M. Goldey,  J. Gomes,  
 C. Gonzalez-Espinoza,  S. Gulania,  A. Gunina,  M. W. D. Hanson-Heine,  
 P. H. P. Harbach,  A. W. Hauser,  M. F. Herbst,  M. Hernandez Vera,  
 M. Hodecker,  Z. C. Holden,  S. Houck,  Xunkun Huang,  Kerwin Hui,  
 B. C. Huynh,  M. Ivanov,  Hyunjun Ji,  Hanjie Jiang,  B. Kaduk,  S. Kaehler,  
 K. Khistyaev,  Jaehoon Kim,  P. Klunzinger,  Z. Koczor-Benda,  
 Joong Hoon Koh,  D. Kosenkov,  L. Koulias,  T. Kowalczyk,  C. M. Krauter,  
 K. Kue,  A. Kunitsa,  T. Kus,  A. Landau,  K. V. Lawler,  D. Lefrancois,  
 S. Lehtola,  Rain Li,  Yi-Pei Li,  Jiashu Liang,  M. Liebenthal,  
 Hung-Hsuan Lin,  You-Sheng Lin,  Fenglai Liu,  Kuan-Yu Liu,  
 M. Loipersberger,  A. Luenser,  A. Manjanath,  P. Manohar,  E. Mansoor,  
 S. F. Manzer,  Shan-Ping Mao,  A. V. Marenich,  T. Markovich,  S. Mason,  
 S. A. Maurer,  P. F. McLaughlin,  M. F. S. J. Menger,  J.-M. Mewes,  
 S. A. Mewes,  P. Morgante,  J. W. Mullinax,  K. J. Oosterbaan,  G. Paran,  
 Alexander C. Paul,  Suranjan K. Paul,  F. Pavosevic,  Zheng Pei,  S. Prager,  
 E. I. Proynov,  E. Ramos,  B. Rana,  A. E. Rask,  A. Rettig,  R. M. Richard,  
 F. Rob,  E. Rossomme,  T. Scheele,  M. Scheurer,  M. Schneider,  
 N. Sergueev,  S. M. Sharada,  W. Skomorowski,  D. W. Small,  C. J. Stein,  
 Yu-Chuan Su,  E. J. Sundstrom,  Zhen Tao,  J. Thirman,  T. Tsuchimochi,  
 N. M. Tubman,  S. P. Veccham,  O. Vydrov,  J. Wenzel,  J. Witte,  A. Yamada,  
 Kun Yao,  S. Yeganeh,  S. R. Yost,  A. Zech,  Igor Ying Zhang,  Xing Zhang,  
 Yu Zhang,  D. Zuev,  A. Aspuru-Guzik,  A. T. Bell,  N. A. Besley,  
 K. B. Bravaya,  B. R. Brooks,  D. Casanova,  Jeng-Da Chai,  S. Coriani,  
 C. J. Cramer,  A. E. DePrince, III,  R. A. DiStasio Jr.,  A. Dreuw,  
 B. D. Dunietz,  T. R. Furlani,  W. A. Goddard III,  S. Grimme,  
 S. Hammes-Schiffer,  T. Head-Gordon,  W. J. Hehre,  Chao-Ping Hsu,  
 T.-C. Jagau,  Yousung Jung,  A. Klamt,  Jing Kong,  D. S. Lambrecht,  
 WanZhen Liang,  N. J. Mayhall,  C. W. McCurdy,  J. B. Neaton,  
 C. Ochsenfeld,  J. A. Parkhill,  R. Peverati,  V. A. Rassolov,  Yihan Shao,  
 L. V. Slipchenko,  T. Stauch,  R. P. Steele,  J. E. Subotnik,  
 A. J. W. Thom,  A. Tkatchenko,  D. G. Truhlar,  T. Van Voorhis,  
 T. A. Wesolowski,  K. B. Whaley,  H. L. Woodcock III,  P. M. Zimmerman,  
 S. Faraji,  P. M. W. Gill,  M. Head-Gordon,  J. M. Herbert,  A. I. Krylov

 Additional authors for Version 5.4.1: 
 S. Kotaru,  Shaozhi Li,  Xiangyuan Li,  F. Matz,  A. Molle,  Haisheng Ren,  
 Yingli Su,  Hung-Yi Tsai,  C. Utku,  Fang Wang

 Contributors to earlier versions of Q-Chem not listed above: 
 R. D. Adamson,  B. Austin,  R. Baer,  J. Baker,  G. J. O. Beran,  
 K. Brandhorst,  S. T. Brown,  E. F. C. Byrd,  A. K. Chakraborty,  
 G. K. L. Chan,  Chun-Min Chang,  Yunqing Chen,  C.-L. Cheng,  
 Siu Hung Chien,  D. M. Chipman,  D. L. Crittenden,  H. Dachsel,  
 R. J. Doerksen,  A. D. Dutoi,  R. G. Edgar,  J. Fosso-Tande,  
 L. Fusti-Molnar,  D. Ghosh,  A. Ghysels,  A. Golubeva-Zadorozhnaya,  
 J. Gonthier,  M. S. Gordon,  S. R. Gwaltney,  G. Hawkins,  J. E. Herr,  
 A. Heyden,  S. Hirata,  E. G. Hohenstein,  G. Kedziora,  F. J. Keil,  
 C. Kelley,  Jihan Kim,  R. A. King,  R. Z. Khaliullin,  P. P. Korambath,  
 W. Kurlancheek,  A. Laurent,  A. M. Lee,  M. S. Lee,  S. V. Levchenko,  
 Ching Yeh Lin,  D. Liotard,  E. Livshits,  R. C. Lochan,  I. Lotan,  
 L. A. Martinez-Martinez,  P. E. Maslen,  N. Nair,  D. P. O'Neill,  
 D. Neuhauser,  E. Neuscamman,  C. M. Oana,  R. Olivares-Amaya,  R. Olson,  
 T. M. Perrine,  B. Peters,  P. A. Pieniazek,  A. Prociuk,  Y. M. Rhee,  
 J. Ritchie,  M. A. Rohrdanz,  E. Rosta,  N. J. Russ,  H. F. Schaefer III,  
 M. W. Schmidt,  N. E. Schultz,  S. Sharma,  N. Shenvi,  C. D. Sherrill,  
 A. C. Simmonett,  A. Sodt,  T. Stein,  D. Stuck,  K. S. Thanthiriwatte,  
 V. Vanovschi,  L. Vogt,  Tao Wang,  A. Warshel,  M. A. Watson,  
 C. F. Williams,  Q. Wu,  X. Xu,  Jun Yang,  W. Zhang,  Yan Zhao

 Please cite Q-Chem as follows:
 Y. Shao et al., Mol. Phys. 113, 184-215 (2015)
 DOI: 10.1080/00268976.2014.952696

 Q-Chem 5.4.1 for Intel X86 EM64T Linux

 Parts of Q-Chem use Armadillo 9.900.5 (Nocturnal Misbehaviour).
 http://arma.sourceforge.net/

 Q-Chem begins on Fri Jul  1 20:00:03 2022  

 Host: p09r14n09.grace.hpc.yale.internal
0

     Scratch files written to /home/tl686/scratch60/qchem_dev/scratch/qchem9024//
 Processing $rem in /home/tl686/qchem_dev/qchem/config/preferences:
 Processing $rem in /home/tl686/.qchemrc:
Applying user defined connections for MM calculations

 Checking the input file for inconsistencies... 	...done.

--------------------------------------------------------------
User input:
--------------------------------------------------------------
$molecule
0   1
 Fe 109.38679868 -5.44472460 37.08472368    -1  0   0   0   0
C 110.29810097 -7.72656094 39.37659656    -2  0   0   0   0 
C 106.62527252 -5.71171394 34.99005791    -2  0   0   0   0
C 111.47460269 -2.83840867 37.03314433    -2  0   0   0   0
C 111.19471299 -7.35292459 35.02383872    -2  0   0   0   0
C 106.99836490 -4.16020556 39.42067360    -2  0   0   0   0
O 110.77433986 -9.16681324 40.93536019    -3  0   0   0   0
O 105.04313306 -5.92555714 33.49482479    -3  0   0   0   0 
O 112.99191930 -1.25611192 37.23464376    -3  0   0   0   0
O 112.32934571 -8.82818199 33.74417808    -3  0   0   0   0 
O 105.41028765 -3.34590676 40.72539941    -3  0   0   0   0
H 138.02150053 -5.54043023 47.65030148      6     13    0    0    0 
C 137.71896208 -6.94293062 49.10403852     1     12    14    15    16
H 139.48170484 -6.66690244 50.28297982     6     13    0    0    0
H 136.39569486 -6.30202663 50.44088380     6     13    0    0    0
C 137.13333578 -9.59246458 48.10468040     2     13    17    18    19
H 138.78769842 -9.99165393 46.90846106     6     16    0    0    0
H 137.07566376 -10.86557846 49.70640292     6     16    0    0    0
C 134.73896193 -9.81668280 46.48085217     2     16    20   21   22
H 132.94400643 -9.46564929 47.43766155     6     19    0    0    0
H 134.92605704 -8.37556000 44.86043933     6     19    0    0    0
C 134.48715935 -12.49486806 45.27667110     2     19   23   24   25
H 136.17819970 -12.93729026 44.11897220     6    22    0    0    0
H 134.54798744 -14.18752477 46.44384333     6    22    0    0    0
C 131.97302215 -12.82355461 43.72724644     2    22   26   27   28
H 130.56675806 -12.59457828 45.17810321     6    25    0    0    0
H 131.87508309 -11.17164826 42.35334387     6    25    0    0    0
C 131.90076975 -15.51144018 42.54016605     2    25   29   30   31
H 133.72917791 -16.17668354 41.86628551     6    28    0    0    0
H 131.53373419 -16.90511420 44.04143533     6    28    0    0    0
C 130.11986110 -15.75261662 40.24331798     2    28   32   33   34
H 128.10468636 -15.13296516 40.67043161     6    31    0    0    0
H 130.69610783 -14.41035962 38.78708918     6    31    0    0    0
C 130.07345808 -18.26440639 39.00175180     2    31   35   36   37
H 131.95486739 -19.05757914 38.42327752     6    34    0    0    0
H 129.44823305 -19.65545861 40.41289770     6    34    0    0    0
C 128.47536848 -18.39418820 36.66951161     2    34   38   39   40
H 126.66298041 -17.94326281 37.26158189     6    37    0    0    0
H 128.95644950 -16.89629265 35.28074889     6    37    0    0    0
C 128.45632916 -20.88744037 35.26134216     2    37   41   42   43
H 130.33137595 -21.20250618 34.37157209     6    40    0    0    0
H 128.21218801 -22.37337658 36.65868404     6    40    0    0    0
C 126.41778185 -20.99264833 33.06970805     2    40   44   45   46
H 124.68332704 -20.45148840 33.99108679     6    43    0    0    0
H 126.90723710 -19.47992519 31.77151397     6    43    0    0    0
C 126.49012050 -23.63293973 31.75991525     1    43   47   48   49
H 128.33351828 -23.95416076 31.03505953     6    46    0    0    0
H 125.11861257 -23.72528062 30.24580709     6    46    0    0    0
H 125.87122336 -25.21979350 33.02099896     6    46    0    0    0
H 116.85707563 -17.41358494 39.15069068     6     51    0    0    0 
C 116.39131963 -15.44350514 39.20543635     1     50    52    53    54
H 114.36483187 -15.38710414 39.11291191     6     51    0    0    0
H 116.72784812 -14.68675135 41.07067890     6     51    0    0    0
C 117.82253230 -13.95943202 37.06197930     2     51    55    56    57
H 117.41512502 -11.88416063 37.27244630     6     54    0    0    0
H 119.96223129 -14.41488498 37.34064299     6     54    0    0    0
C 116.96225807 -14.44113467 34.28962021     2     54    58   59   60
H 114.85972738 -14.22310533 34.24338970     6     57    0    0    0
H 117.73316422 -13.09869942 32.79053545     6     57    0    0    0
C 117.92069036 -17.12656909 33.65782023     2     57   61   62   63
H 119.97015624 -17.46390973 34.11266139     6    60    0    0    0
H 116.88925306 -18.55805476 34.69487300     6    60    0    0    0
C 117.36412257 -17.73319214 30.82157321     2    60   64   65   66
H 115.45715762 -18.07658070 30.45502087     6    63    0    0    0
H 118.12129251 -16.21435634 29.61038219     6    63    0    0    0
C 118.58765555 -20.17275883 30.02960484     2    63   67   68   69
H 118.61035513 -20.26007390 28.05908773     6    66    0    0    0
H 120.58403716 -20.10491650 30.43216634     6    66    0    0    0
C 117.40247309 -22.61306943 31.20332665     2    66   70   71   72
H 117.31828847 -22.49874873 33.26876960     6    69    0    0    0
H 115.34409215 -22.76155421 30.76511490     6    69    0    0    0
C 118.78597353 -25.06345356 30.25512497     2    69   73   74   75
H 119.06135234 -24.76190458 28.16912575     6    72    0    0    0
H 120.68487127 -25.21495259 30.91141447     6    72    0    0    0
C 117.21293222 -27.51673446 30.75232985     2    72   76   77   78
H 116.64729530 -27.95092406 32.71868326     6    75    0    0    0
H 115.43491939 -27.46843571 29.61457424     6    75    0    0    0
C 118.74094145 -29.89086617 29.95870315     2    75   79   80   81
H 119.60474683 -29.59140595 28.13009891     6    78    0    0    0
H 120.35766027 -30.04911224 31.18332497     6    78    0    0    0
C 116.86833010 -32.13551778 30.08384496     2    78   82   83   84
H 116.04724842 -32.22138105 31.93211018     6    81    0    0    0
H 115.35861670 -31.66317342 28.95126802     6    81    0    0    0
C 118.00097950 -34.77565295 29.52841264     1    81   85   86   87
H 116.39433489 -36.15458039 29.29826922     6    84    0    0    0
H 119.10290749 -35.39057891 31.09828534     6    84    0    0    0
H 119.17482408 -34.71021182 27.89225008     6    84    0    0    0
H 142.54155249 0.79439357 30.98476837     6     89    0    0    0 
C 141.50609030 -0.98033043 30.94640486     1     88    90    91    92
H 140.57960131 -0.96083494 32.75471856     6     89    0    0    0
H 140.11748414 -1.29412185 29.45908697     6     89    0    0    0
C 143.59997489 -3.05610652 30.83425155     2     89    93    94    95
H 144.24588059 -2.94083682 28.93280810     6     92    0    0    0
H 145.11491920 -2.54570849 32.15783306     6     92    0    0    0
C 142.54447107 -5.59598690 31.46809538     2     92    96   97   98
H 141.65618936 -5.73813383 33.39366106     6     95    0    0    0
H 141.09706441 -5.91619398 29.93873514     6     95    0    0    0
C 144.44825315 -7.61600816 30.87797658     2     95   99   100   101
H 145.21497823 -7.62612799 29.03491798     6    98    0    0    0
H 145.98564918 -7.47203118 32.27221109     6    98    0    0    0
C 143.53897934 -10.23637627 31.18881764     2    98   102   103   104
H 142.78798058 -10.57309155 33.12305862     6    101    0    0    0
H 141.97513528 -10.62813558 29.86786231     6    101    0    0    0
C 145.37777816 -12.45562116 30.54933167     2    101   105   106   107
H 146.43929850 -12.08442431 28.91048256     6    104    0    0    0
H 146.78296562 -12.78804272 31.96451695     6    104    0    0    0
C 144.13076135 -15.00093934 30.33282476     2    104   108   109   110
H 143.13262139 -15.33871684 32.10768405     6    107    0    0    0
H 142.58745382 -14.88942153 28.86449803     6    107    0    0    0
C 145.74934320 -17.24316965 29.50612767     2    107   111   112   113
H 146.83678656 -16.51209043 28.02500731     6    110    0    0    0
H 147.03617672 -17.96590008 30.97775516     6    110    0    0    0
C 144.30320274 -19.61092092 28.47146578     2    110   114   115   116
H 142.74490837 -19.66129722 29.89697932     6    113    0    0    0
H 143.46938038 -19.26911155 26.62404842     6    113    0    0    0
C 145.68375630 -22.14218400 28.76227663     2    113   117   118   119
H 147.10540387 -22.04594312 27.15921901     6    116    0    0    0
H 146.65587968 -21.95859606 30.46887699     6    116    0    0    0
C 144.03914838 -24.61621959 28.69597217     2    116   120   121   122
H 145.38384829 -26.09695380 29.26829629     6    119    0    0    0
H 142.74506720 -24.45068521 30.22345015     6    119    0    0    0
C 142.87454097 -25.57135945 26.28361329     1    119   123   124   125
H 142.71242011 -27.49255899 26.64726385     6    122    0    0    0
H 144.42762723 -25.53532941 24.85760865     6    122    0    0    0
H 141.10536434 -24.76888280 25.62671117     6    122    0    0    0
H 129.00146543 20.28595635 18.64889452     6     127    0    0    0 
C 127.31069850 19.19337993 18.90850647     1     126    128    129    130
H 125.72966627 20.30710670 18.24486141     6     127    0    0    0
H 127.60151739 17.23078628 18.24311026     6     127    0    0    0
C 127.21997262 18.90276072 21.68189943     2     127    131    132    133
H 129.05614426 18.51662919 22.58098087     6     130    0    0    0
H 126.59869409 20.60497287 22.57667445     6     130    0    0    0
C 125.43037601 16.68254178 22.39382449     2     130    134   135   136
H 123.53537423 16.79055575 21.59162203     6     133    0    0    0
H 126.20895311 14.94384900 21.40259809     6     133    0    0    0
C 125.23476103 16.57997726 25.33807218     2     133   137   138   139
H 127.12602926 16.71921490 26.31748335     6    136    0    0    0
H 124.15986760 18.20981173 25.61743837     6    136    0    0    0
C 123.90054697 14.22631186 26.44496547     2    136   140   141   142
H 122.11739655 13.98909539 25.40407705     6    139    0    0    0
H 125.08842311 12.53426766 26.26801296     6    139    0    0    0
C 123.31533262 14.70937211 29.35585331     2    139   143   144   145
H 125.14253145 15.27845120 30.26073402     6    142    0    0    0
H 122.15596861 16.26112485 29.41452507     6    142    0    0    0
C 122.10750735 12.44362666 30.80723387     2    142   146   147   148
H 120.28342123 12.23696812 29.66244688     6    145    0    0    0
H 123.15609052 10.72391663 30.43851084     6    145    0    0    0
C 121.39888138 13.08911842 33.54826547     2    145   149   150   151
H 122.99377065 13.52952694 34.57819877     6    148    0    0    0
H 120.34056927 14.94252461 33.59919101     6    148    0    0    0
C 119.71145075 11.08405554 34.71534479     2    148   152   153   154
H 118.11050783 10.72957642 33.68875214     6    151    0    0    0
H 120.77633544 9.34584905 34.72569691     6    151    0    0    0
C 119.33428077 11.52492455 37.60893603     2    151   155   156   157
H 117.92607799 10.32649943 38.29158797     6    154    0    0    0
H 121.01084328 11.22518327 38.73556314     6    154    0    0    0
C 118.20969415 14.18997217 38.15992531     2    154   158   159   160
H 119.78219178 15.70128811 37.83478865     6    157    0    0    0
H 116.60443265 14.68575367 36.79126477     6    157    0    0    0
C 116.97582076 14.29737832 40.78063377     1    157   161   162   163
H 116.32387503 16.28032372 41.19995275     6    160    0    0    0
H 118.12672917 13.64066023 42.29588787     6    160    0    0    0
H 115.24640694 13.13018549 40.70125803     6    160    0    0    0
H 125.59301299 -12.04953541 3.72028686     6     165    0    0    0 
C 127.30049601 -10.84393596 3.84765038     1     164    166    167    168
H 128.22730608 -11.27372313 5.59531114     6     165    0    0    0
H 128.55061497 -11.24803753 2.29463645     6     165    0    0    0
C 126.97877904 -8.02922823 3.90723629     2     165    169    170    171
H 126.51385891 -7.29360359 1.93492212     6     168    0    0    0
H 125.54465566 -7.51674333 5.17607186     6     168    0    0    0
C 129.34584082 -6.59274572 4.73486743     2     168    172   173   174
H 130.35984143 -7.53348158 6.46417839     6     171    0    0    0
H 130.77491368 -6.57756055 3.25375248     6     171    0    0    0
C 128.75638943 -3.92672135 5.46263735     2     171   175   176   177
H 127.34487286 -3.14166898 4.37516229     6    174    0    0    0
H 127.93074450 -4.04618967 7.29476256     6    174    0    0    0
C 131.13882236 -2.52419281 5.82095754     2    174   178   179   180
H 132.38462720 -3.22872554 7.32679008     6    177    0    0    0
H 132.45915614 -2.75423537 4.14569529     6    177    0    0    0
C 130.70857168 0.30921561 6.51933368     2    177   181   182   183
H 129.34089579 0.99798607 5.15286017     6    180    0    0    0
H 129.68174561 0.29302661 8.20945891     6    180    0    0    0
C 133.09423356 1.97781130 6.57229216     2    180   184   185   186
H 134.29699277 1.39747183 8.13252848     6    183    0    0    0
H 134.15592662 1.93558786 4.89905773     6    183    0    0    0
C 132.34942442 4.79738839 6.75286541     2    183   187   188   189
H 131.29066970 5.12259983 4.96577794     6    186    0    0    0
H 131.04494668 5.08011129 8.37504450     6    186    0    0    0
C 134.67999717 6.68011949 7.16292506     2    186   190   191   192
H 135.93048792 6.20830469 8.74793546     6    189    0    0    0
H 135.70360719 6.34784857 5.46494648     6    189    0    0    0
C 133.59255650 9.37345397 7.25692933     2    189   193   194   195
H 132.20719786 9.52745757 5.73815298     6    192    0    0    0
H 132.56607843 9.84209189 9.03557377     6    192    0    0    0
C 135.76503180 11.40120968 7.04498990     2    192   196   197   198
H 137.31145798 11.21947310 8.47046219     6    195    0    0    0
H 136.77952150 11.02199183 5.25580940     6    195    0    0    0
C 134.61658222 14.08521116 6.94513214     1    195   199   200   201
H 135.96872126 15.55398172 6.93401339     6    198    0    0    0
H 133.38163117 14.37619907 8.52922300     6    198    0    0    0
H 133.59014659 14.52369641 5.12826093     6    198    0    0    0
H 121.07957186 -10.85137480 13.50934729     6     203    0    0    0 
C 121.71304450 -9.18639702 12.51035800     1     202    204    205    206
H 120.17206325 -7.81435968 12.23759246     6     203    0    0    0
H 123.05384474 -8.39539289 13.79453968     6     203    0    0    0
C 122.71640081 -9.89599866 9.79299849     2     203    207    208    209
H 122.89940829 -8.23679811 8.77839224     6     206    0    0    0
H 124.73511193 -10.52837719 9.94878537     6     206    0    0    0
C 121.29742439 -11.90928096 8.30150709     2     206    210   211   212
H 122.02736460 -11.96207587 6.35867351     6     209    0    0    0
H 121.60303107 -13.77715453 9.08598544     6     209    0    0    0
C 118.42446459 -11.42262423 7.75392993     2     209   213   214   215
H 117.44125413 -10.89942867 9.51924958     6    212    0    0    0
H 118.47058837 -9.84963765 6.38930134     6    212    0    0    0
C 117.07043021 -13.68145426 6.71963279     2    212   216   217   218
H 117.60163262 -13.91314075 4.72656808     6    215    0    0    0
H 117.65229070 -15.42672167 7.73429166     6    215    0    0    0
C 114.19946717 -13.48005929 6.97022476     2    215   219   220   221
H 113.95855389 -13.13741253 8.80821553     6    218    0    0    0
H 113.57016297 -11.88805987 5.76363986     6    218    0    0    0
C 112.77027552 -15.78101182 5.94096001     2    218   222   223   224
H 113.40647009 -16.24176091 3.92924963     6    221    0    0    0
H 113.42257279 -17.38296589 7.08405902     6    221    0    0    0
C 109.93870232 -15.26548744 6.27262648     2    221   225   226   227
H 109.79330546 -14.20067998 8.07538143     6    224    0    0    0
H 109.20012770 -14.02567009 4.81561361     6    224    0    0    0
C 108.29262901 -17.69669112 6.46375223     2    224   228   229   230
H 108.94372094 -19.02341599 5.02759065     6    227    0    0    0
H 108.80938529 -18.47389309 8.24945631     6    227    0    0    0
C 105.41403468 -17.34335680 6.45649846     2    227   231   232   233
H 104.95330367 -15.83756010 7.83738162     6    230    0    0    0
H 104.63327391 -16.60152719 4.61517592     6    230    0    0    0
C 103.74249426 -19.60795074 6.99775671     2    230   234   235   236
H 103.90655968 -21.17430239 5.62645192     6    233    0    0    0
H 104.30542777 -20.21651320 8.87066236     6    233    0    0    0
C 100.93758478 -18.91305451 7.25121560     1    233   237   238   239
H 99.63261806 -20.60282139 6.80570475     6    236    0    0    0
H 100.32217005 -17.57521032 5.65654332     6    236    0    0    0
H 100.45458037 -18.02783839 9.13886107     6    236    0    0    0
H 128.56769522 -34.69659158 26.13228526     6     241    0    0    0 
C 129.27013273 -33.52565251 24.49328103     1     240    242    243    244
H 130.81447461 -34.43771758 23.63934293     6     241    0    0    0
H 127.66044101 -33.29933755 23.23728225     6     241    0    0    0
C 129.84852006 -30.83099607 25.42887093     2     241    245    246    247
H 131.48948377 -30.61720154 26.80607714     6     244    0    0    0
H 130.59986599 -29.99948194 23.83377946     6     244    0    0    0
C 127.61525464 -29.22726216 26.27746526     2     244    248   249   250
H 128.35408587 -27.45327254 26.90475151     6     247    0    0    0
H 126.57610881 -28.99461749 24.58471283     6     247    0    0    0
C 126.13000402 -30.49583234 28.47435768     2     247   251   252   253
H 124.75994875 -29.08551518 29.26129951     6    250    0    0    0
H 125.20224335 -32.22964331 27.76675666     6    250    0    0    0
C 127.67328188 -31.23053050 30.69687497     2    250   254   255   256
H 129.19359158 -32.49912216 30.20239191     6    253    0    0    0
H 128.76563436 -29.56449937 31.32029161     6    253    0    0    0
C 126.42831086 -32.56991522 32.89906044     2    253   257   258   259
H 128.01805677 -32.71417089 34.17493909     6    256    0    0    0
H 124.82422937 -31.47677026 33.86542151     6    256    0    0    0
C 125.83649983 -35.35183747 32.45438846     2    256   260   261   262
H 124.08151712 -35.70154040 31.33737018     6    259    0    0    0
H 127.27787383 -36.32883264 31.36497646     6    259    0    0    0
C 125.38848541 -36.69168902 35.07671552     2    259   263   264   265
H 127.08076408 -36.83292593 36.25387121     6    262    0    0    0
H 124.13325320 -35.60455295 36.15583462     6    262    0    0    0
C 124.17708941 -39.39944739 34.51505566     2    262   266   267   268
H 123.22296915 -40.01893052 36.17846875     6    265    0    0    0
H 122.52152118 -39.20264203 33.21642365     6    265    0    0    0
C 126.02986581 -41.40827866 33.49026401     2    265   269   270   271
H 126.56727151 -40.97837673 31.41072149     6    268    0    0    0
H 127.63355692 -41.58419722 34.90429372     6    268    0    0    0
C 125.08365171 -44.11948491 33.11229905     2    268   272   273   274
H 124.91752522 -44.84585280 35.01511350     6    271    0    0    0
H 123.24899191 -43.90016175 32.19261524     6    271    0    0    0
C 126.88935729 -45.83593362 31.62019739     1    271   275   276   277
H 127.18677640 -44.87525779 29.83215168     6    274    0    0    0
H 126.13375824 -47.65022788 31.12595002     6    274    0    0    0
H 128.73649441 -46.23217617 32.50462860     6    274    0    0    0
H 132.40424256 -8.50490951 18.16943395     6     279    0    0    0 
C 133.78405578 -9.98831786 17.77144165     1     278    280    281    282
H 135.53131125 -8.71508655 17.34551343     6     279    0    0    0
H 134.09677914 -11.20723560 19.45096636     6     279    0    0    0
C 133.04548340 -11.46093260 15.50420439     2     279    283    284    285
H 132.70068342 -10.16826318 14.06056837     6     282    0    0    0
H 134.77921778 -12.56975468 15.15469146     6     282    0    0    0
C 130.74468927 -13.08414576 15.99095760     2     282    286   287   288
H 131.32888118 -14.16753201 17.60599536     6     285    0    0    0
H 129.09328332 -11.95565004 16.45922806     6     285    0    0    0
C 130.14967813 -14.90257090 13.93136884     2     285   289   290   291
H 129.63431988 -14.05091554 12.14545187     6    288    0    0    0
H 131.87630257 -15.88568487 13.25963753     6    288    0    0    0
C 127.98420712 -16.65041306 14.66697670     2    288   292   293   294
H 128.35575274 -17.48675579 16.49562925     6    291    0    0    0
H 126.32626518 -15.48907895 14.99888550     6    291    0    0    0
C 127.35323201 -18.73895674 12.80648261     2    291   295   296   297
H 127.02586874 -18.04123046 10.93875120     6    294    0    0    0
H 128.97866418 -19.81826903 12.62608294     6    294    0    0    0
C 125.02681146 -20.55114164 13.29269856     2    294   298   299   300
H 125.11087869 -21.02448428 15.28372246     6    297    0    0    0
H 123.38040239 -19.51026094 13.04614521     6    297    0    0    0
C 124.96563715 -23.00314140 11.54984162     2    297   301   302   303
H 124.99242604 -22.57602554 9.56784568     6    300    0    0    0
H 126.74451227 -23.78914890 11.75135721     6    300    0    0    0
C 122.87401249 -24.87505918 12.25618697     2    300   304   305   306
H 123.49660168 -26.19087580 13.73181210     6    303    0    0    0
H 121.17960809 -23.96748442 13.15364661     6    303    0    0    0
C 122.11726807 -26.76417258 10.19635513     2    303   307   308   309
H 121.28740280 -25.59591997 8.74586299     6    306    0    0    0
H 123.75885703 -27.80238872 9.58465628     6    306    0    0    0
C 120.19089267 -28.71562465 11.03186672     2    306   310   311   312
H 120.87891671 -29.64311498 12.73761969     6    309    0    0    0
H 118.51934777 -27.72917162 11.49026945     6    309    0    0    0
C 119.78553304 -30.82191229 8.85972448     1    309   313   314   315
H 121.68308218 -31.85916781 8.38049108     6    312    0    0    0
H 119.07398554 -29.93668119 7.13829360     6    312    0    0    0
H 118.39446222 -32.26740986 9.35213016     6    312    0    0    0
H 135.40887955 -1.24171938 34.68053150     6     317    0    0    0 
C 135.58235887 -0.46661483 36.57800501     1     316    318    319    320
H 135.48609399 -2.15571281 37.89769680     6     317    0    0    0
H 137.29687339 0.65276373 36.85218465     6     317    0    0    0
C 133.58075076 1.42831517 37.17220950     2     317    321    322    323
H 133.93266955 2.59896361 38.88021967     6     320    0    0    0
H 133.69188400 2.84395808 35.60162024     6     320    0    0    0
C 131.04827542 0.22290550 37.19499394     2     320    324   325   326
H 130.68698010 -0.59585083 35.42631498     6     323    0    0    0
H 131.03201109 -1.07574397 38.72792030     6     323    0    0    0
C 128.83743413 2.12895053 37.85341615     2     323   327   328   329
H 129.17415262 2.83754530 39.66827591     6    326    0    0    0
H 129.03386618 3.74516938 36.51667496     6    326    0    0    0
C 126.24898421 1.07759996 37.32905937     2    326   330   331   332
H 126.11581422 0.70183033 35.24297720     6    329    0    0    0
H 125.95911638 -0.58528268 38.27559087     6    329    0    0    0
C 123.94234593 2.73419642 37.86247524     2    329   333   334   335
H 123.71696141 4.33417567 36.66134842     6    332    0    0    0
H 122.18120480 1.64214360 37.35247133     6    332    0    0    0
C 123.80889598 3.41794761 40.63639809     2    332   336   337   338
H 124.39749667 1.79295048 41.84674129     6    335    0    0    0
H 125.27053440 4.67676466 40.98472670     6    335    0    0    0
C 121.56868635 5.05246784 41.49381094     2    335   339   340   341
H 122.01755514 6.10143657 43.16036327     6    338    0    0    0
H 120.80629101 6.06966222 39.89481322     6    338    0    0    0
C 119.49198971 3.23256171 42.49577256     2    338   342   343   344
H 119.18345649 1.68309991 41.19430070     6    341    0    0    0
H 120.22360255 2.53005935 44.26572174     6    341    0    0    0
C 117.07101186 4.72416637 43.24582302     2    341   345   346   347
H 116.29341143 3.45824517 44.79517381     6    344    0    0    0
H 117.54280291 6.53340382 44.01625223     6    344    0    0    0
C 115.14603980 5.46626556 41.12379767     2    344   348   349   350
H 116.20873897 6.04750939 39.53378007     6    347    0    0    0
H 114.05038162 3.87001364 40.55747597     6    347    0    0    0
C 113.24594993 7.51402812 41.77496416     1    347   351   352   353
H 111.81436192 7.66424592 40.21293225     6    350    0    0    0
H 114.35942305 9.24518858 42.08759696     6    350    0    0    0
H 112.03094857 7.07197996 43.37455560     6    350    0    0    0
H 127.86934513 -24.29580264 20.58847161     6     355    0    0    0 
C 128.15222442 -23.31710954 22.35118196     1     354    356    357    358
H 126.37410573 -23.28659277 23.43697673     6     355    0    0    0
H 129.79157701 -24.36350143 23.18016391     6     355    0    0    0
C 129.05011891 -20.63586112 21.65382596     2     355    359    360    361
H 130.69609644 -20.83440566 20.35298944     6     358    0    0    0
H 127.49533457 -19.81626006 20.64478967     6     358    0    0    0
C 129.65173498 -18.88232515 23.92426280     2     358    362   363   364
H 127.86537703 -18.52927923 24.97256015     6     361    0    0    0
H 130.97432424 -19.68355326 25.28157887     6     361    0    0    0
C 130.79249362 -16.27245367 23.15250504     2     361   365   366   367
H 132.68068523 -16.68783743 22.51658396     6    364    0    0    0
H 129.65900495 -15.38839359 21.59900979     6    364    0    0    0
C 130.55673870 -14.48712122 25.42877563     2    364   368   369   370
H 128.74061569 -14.48860705 26.27062433     6    367    0    0    0
H 131.60358426 -15.43136875 26.85427473     6    367    0    0    0
C 131.39873046 -11.83354183 24.65570070     2    367   371   372   373
H 133.34013838 -11.36125372 25.16739532     6    370    0    0    0
H 131.49598965 -11.76439742 22.49778695     6    370    0    0    0
C 129.82690243 -9.56761350 25.66633710     2    370   374   375   376
H 128.11432795 -9.55695884 24.47740990     6    373    0    0    0
H 129.31836354 -9.97738304 27.60471680     6    373    0    0    0
C 131.06867614 -6.91460337 25.43479952     2    373   377   378   379
H 132.69017267 -6.66019837 26.65666123     6    376    0    0    0
H 131.61603473 -6.62743956 23.41770353     6    376    0    0    0
C 129.44785834 -4.80290567 26.60133105     2    376   380   381   382
H 127.72728657 -4.62328415 25.58249219     6    379    0    0    0
H 129.11132094 -5.17162391 28.72724251     6    379    0    0    0
C 130.86600313 -2.29053378 26.42191511     2    379   383   384   385
H 132.75908064 -2.55253618 27.21698800     6    382    0    0    0
H 131.21172279 -1.96073822 24.37712103     6    382    0    0    0
C 129.30292211 -0.14125207 27.48262868     2    382   386   387   388
H 130.43324019 1.53204574 27.00463939     6    385    0    0    0
H 127.48791081 0.15062676 26.60591792     6    385    0    0    0
C 128.65312458 -0.34089399 30.28097105     1    385   389   390   391
H 129.74702218 -1.69894796 31.26558978     6    388    0    0    0
H 126.82930124 -1.26800436 30.53899180     6    388    0    0    0
H 128.73030073 1.54272224 31.36509595     6    388    0    0    0
H 102.83493355 4.47081812 60.24471873     6     393    0    0    0 
C 101.79390536 3.04467752 59.22472671     1     392    394    395    396
H 99.98883680 3.81608400 59.12286784     6     393    0    0    0
H 102.60825988 2.87931515 57.43636667     6     393    0    0    0
C 102.13087742 0.68781234 60.73576207     2     393    397    398    399
H 104.24601057 0.43251223 61.14340389     6     396    0    0    0
H 101.50162809 0.92208346 62.63652680     6     396    0    0    0
C 101.03707277 -1.61187812 59.38846360     2     396    400   401   402
H 99.08931384 -1.72007314 59.48553383     6     399    0    0    0
H 101.18517550 -1.33949537 57.33567006     6     399    0    0    0
C 102.36392047 -4.01347510 60.20454214     2     399   403   404   405
H 104.43574424 -3.70408428 59.98881002     6    402    0    0    0
H 101.89435171 -4.40780627 62.18369145     6    402    0    0    0
C 101.70187641 -6.35883319 58.58743287     2    402   406   407   408
H 99.76059268 -6.83385645 58.98258130     6    405    0    0    0
H 102.04073607 -5.82480630 56.47983051     6    405    0    0    0
C 103.20115424 -8.79715283 58.80985841     2    405   409   410   411
H 105.06399646 -8.67980049 57.81560698     6    408    0    0    0
H 103.88150217 -9.21146763 60.69212694     6    408    0    0    0
C 101.95874752 -10.99811374 57.47947121     2    408   412   413   414
H 100.71312004 -12.00017136 58.80254640     6    411    0    0    0
H 100.63753250 -10.17488734 56.07850325     6    411    0    0    0
C 103.66852298 -12.69904446 55.88760158     2    411   415   416   417
H 104.94602610 -11.63914688 54.55071162     6    414    0    0    0
H 105.07138071 -13.69357206 57.07972035     6    414    0    0    0
C 102.18547593 -14.59305883 54.40785101     2    414   418   419   420
H 100.90514194 -15.37093415 55.92986497     6    417    0    0    0
H 101.16120632 -13.59669950 52.99609888     6    417    0    0    0
C 103.98119600 -16.66524804 53.29569584     2    417   421   422   423
H 105.56015264 -15.87588297 52.15796974     6    420    0    0    0
H 104.75189647 -17.72461614 54.91854470     6    420    0    0    0
C 102.53668218 -18.57098955 51.61555128     2    420   424   425   426
H 100.98561182 -19.58179493 52.42496508     6    423    0    0    0
H 101.59993332 -17.61839289 50.00725696     6    423    0    0    0
C 104.28040061 -20.65567545 50.67571730     1    423   427   428   429
H 103.46680955 -21.60909691 49.01522595     6    426    0    0    0
H 104.29197661 -22.01790151 52.20931813     6    426    0    0    0
H 106.11343151 -19.94578614 50.22196455     6    426    0    0    0
H 122.43945643 -18.05854020 51.79672019     6     431    0    0    0 
C 123.24347867 -17.38327518 53.52381947     1     430    432    433    434
H 123.52679879 -19.16317402 54.66485845     6     431    0    0    0
H 125.03771347 -16.35355252 52.99075717     6     431    0    0    0
C 121.59441575 -15.54492641 54.71142858     2     431    435    436    437
H 121.30816044 -13.78610696 53.58013893     6     434    0    0    0
H 119.75371135 -16.46498425 54.75763167     6     434    0    0    0
C 122.43476526 -15.01209814 57.46073426     2     434    438   439   440
H 122.40511546 -16.80318421 58.54516205     6     437    0    0    0
H 124.37490002 -14.46189603 57.39000325     6     437    0    0    0
C 120.94917448 -13.02486932 58.70634067     2     437   441   442   443
H 121.57378199 -12.65675656 60.63931032     6    440    0    0    0
H 121.12633611 -11.05758359 57.85899539     6    440    0    0    0
C 118.01899155 -13.36074267 59.11366723     2    440   444   445   446
H 117.40969033 -13.76710490 57.19666598     6    443    0    0    0
H 117.81845300 -15.03995438 60.32142584     6    443    0    0    0
C 116.74948931 -11.07755970 60.37101637     2    443   447   448   449
H 118.27864450 -9.94082966 61.16255583     6    446    0    0    0
H 115.92672673 -9.87508361 58.89365844     6    446    0    0    0
C 114.74651627 -11.63912147 62.34318987     2    446   450   451   452
H 113.16842628 -12.51123670 61.20737529     6    449    0    0    0
H 115.22785745 -12.99367092 63.70403683     6    449    0    0    0
C 113.88086013 -9.26218294 63.85684700     2    449   453   454   455
H 115.32657105 -8.69084073 65.32980395     6    452    0    0    0
H 113.62233861 -7.65945561 62.51717635     6    452    0    0    0
C 111.39474125 -9.87919015 65.12991264     2    452   456   457   458
H 109.90374002 -10.39745433 63.80041448     6    455    0    0    0
H 111.50167260 -11.54447826 66.38256262     6    455    0    0    0
C 110.40865578 -7.89898671 66.84179650     2    455   459   460   461
H 111.97202554 -7.44879482 68.29061048     6    458    0    0    0
H 109.99884401 -6.16841814 65.79174327     6    458    0    0    0
C 108.07734982 -8.62478342 68.30726354     2    458   462   463   464
H 106.98963656 -10.20721156 67.37508980     6    461    0    0    0
H 108.55645648 -9.53156905 70.03495491     6    461    0    0    0
C 106.19099209 -6.41028814 68.83759353     1    461   465   466   467
H 105.13697838 -6.00916516 67.07476786     6    464    0    0    0
H 107.05471264 -4.91281558 70.02225678     6    464    0    0    0
H 104.64732436 -7.20701873 69.95458232     6    464    0    0    0
H 139.31043950 -5.75294087 23.08058818     6     469    0    0    0 
C 140.83235078 -6.38130601 24.11996894     1     468    470    471    472
H 142.59023175 -6.07445458 23.06010655     6     469    0    0    0
H 140.98520390 -4.92664005 25.52354700     6     469    0    0    0
C 140.50986774 -9.22049991 24.82229034     2     469    473    474    475
H 142.09230962 -9.78969919 25.92476978     6     472    0    0    0
H 138.99231459 -9.50702585 26.05753424     6     472    0    0    0
C 140.23025812 -10.66187110 22.36123882     2     472    476   477   478
H 138.64895205 -9.72628812 21.58161436     6     475    0    0    0
H 141.67294615 -10.41532367 20.82298736     6     475    0    0    0
C 139.51936274 -13.46852082 22.86385094     2     475   479   480   481
H 141.12421986 -14.22503466 24.11184090     6    478    0    0    0
H 137.98741314 -13.66540107 24.35178528     6    478    0    0    0
C 138.85926366 -15.13097795 20.58995801     2    478   482   483   484
H 137.41652054 -14.21578045 19.44129056     6    481    0    0    0
H 140.50992157 -15.12040750 19.39977184     6    481    0    0    0
C 138.09636266 -17.91728883 21.40050270     2    481   485   486   487
H 139.77583734 -18.70706594 22.40381522     6    484    0    0    0
H 136.64460560 -18.07465140 22.79114597     6    484    0    0    0
C 137.39092153 -19.68836638 19.16619866     2    484   488   489   490
H 135.92340192 -18.91159335 18.02573399     6    487    0    0    0
H 138.98824005 -19.39935991 17.89576913     6    487    0    0    0
C 136.88217601 -22.46831560 19.71598912     2    487   491   492   493
H 138.08389241 -22.98135188 21.19250876     6    490    0    0    0
H 135.07371420 -22.49436382 20.46932047     6    490    0    0    0
C 137.12228278 -24.29608899 17.51975060     2    490   494   495   496
H 135.93481573 -23.68050696 15.97069631     6    493    0    0    0
H 138.95852534 -24.24916805 16.69192695     6    493    0    0    0
C 136.53790801 -27.16317472 18.17226274     2    493   497   498   499
H 138.33593413 -28.32865377 18.36697371     6    496    0    0    0
H 135.73496944 -27.35472202 20.01908878     6    496    0    0    0
C 134.65301236 -28.36484071 16.24602760     2    496   500   501   502
H 132.76025030 -27.60362468 16.28118198     6    499    0    0    0
H 135.29063742 -27.81948608 14.31721395     6    499    0    0    0
C 134.44647014 -31.14995057 16.70856754     1    499   503   504   505
H 133.66849987 -31.92683722 15.02502860     6    502    0    0    0
H 133.71701272 -31.69028771 18.51402048     6    502    0    0    0
H 136.29107521 -31.89872165 16.62215975     6    502    0    0    0
H 128.43809138 -36.34054397 42.37452454     6     507    0    0    0 
C 126.56995176 -35.95344714 43.07273512     1     506    508    509    510
H 125.28524157 -36.17611569 41.41124748     6     507    0    0    0
H 126.39626903 -37.64033340 44.26287896     6     507    0    0    0
C 126.40484256 -33.44068098 44.52733222     2     507    511    512    513
H 128.04670628 -33.36733832 45.90235218     6     510    0    0    0
H 126.76715936 -31.96455447 43.18681278     6     510    0    0    0
C 123.81921385 -33.12532898 45.65196362     2     510    514   515   516
H 122.34089787 -33.23814729 44.14727545     6     513    0    0    0
H 123.53678302 -34.93796849 46.86204835     6     513    0    0    0
C 123.53745500 -30.46722621 46.88278801     2     513   517   518   519
H 124.80057855 -30.27584609 48.50868532     6    516    0    0    0
H 124.06786486 -29.27025004 45.37407331     6    516    0    0    0
C 120.77903462 -29.69475898 47.55847239     2    516   520   521   522
H 119.71197950 -29.79420036 45.89208257     6    519    0    0    0
H 119.86428014 -31.00401605 49.07860590     6    519    0    0    0
C 120.75258995 -26.95293314 48.61075393     2    519   523   524   525
H 122.29601558 -26.68017042 50.07290558     6    522    0    0    0
H 121.37580962 -25.71119026 47.09227518     6    522    0    0    0
C 118.21678154 -26.01704376 49.79427460     2    522   526   527   528
H 116.74747899 -26.30615513 48.33378520     6    525    0    0    0
H 117.57840777 -27.21093805 51.40923541     6    525    0    0    0
C 118.40405272 -23.31561228 50.99156634     2    525   529   530   531
H 120.15492372 -22.70820649 51.86298808     6    528    0    0    0
H 118.47057248 -22.08942997 49.46551141     6    528    0    0    0
C 115.98961751 -22.87288113 52.75829474     2    528   532   533   534
H 114.27559733 -23.48289147 51.82049576     6    531    0    0    0
H 115.92375180 -24.33082665 54.27401919     6    531    0    0    0
C 115.90775330 -20.17752269 53.83230366     2    531   535   536   537
H 117.65833145 -20.11906653 54.72397557     6    534    0    0    0
H 115.94514532 -18.61593547 52.51569091     6    534    0    0    0
C 113.67585208 -19.86439010 55.65304308     2    534   538   539   540
H 111.96043352 -20.03668720 54.48170060     6    537    0    0    0
H 113.30371232 -21.32551046 57.06016415     6    537    0    0    0
C 113.37426688 -17.19697061 56.98973394     1    537   541   542   543
H 111.39654580 -17.00502576 57.61883755     6    540    0    0    0
H 113.72643684 -15.75328885 55.60054533     6    540    0    0    0
H 114.77862705 -17.03323356 58.52178784     6    540    0    0    0
H 115.66569120 -4.60570577 45.38146256     6     545    0    0    0 
C 114.12760599 -3.44012873 46.05294463     1     544    546    547    548
H 112.67081744 -4.71557602 46.71867227     6     545    0    0    0
H 114.60502195 -2.12287610 47.53786222     6     545    0    0    0
C 112.71927420 -1.88749638 44.01451219     2     545    549    550    551
H 114.05432317 -0.62423497 43.13185756     6     548    0    0    0
H 112.17635988 -3.34802963 42.71265907     6     548    0    0    0
C 110.35924340 -0.46780009 44.89038557     2     548    552   553   554
H 109.01840358 -1.97366717 45.21554925     6     551    0    0    0
H 110.76857567 0.58418290 46.53061821     6     551    0    0    0
C 109.45402446 1.44300283 43.05462933     2     551   555   556   557
H 110.97692519 2.77996290 42.89853413     6    554    0    0    0
H 109.41048637 0.40383216 41.23168834     6    554    0    0    0
C 107.00000334 2.85282160 43.84676040     2    554   558   559   560
H 105.57578310 1.55554945 44.34852552     6    557    0    0    0
H 107.50769231 3.67438396 45.69959500     6    557    0    0    0
C 106.13514467 5.00504187 42.20179750     2    557   561   562   563
H 106.91178806 6.66939458 43.01041352     6    560    0    0    0
H 107.24152681 4.76483593 40.53035066     6    560    0    0    0
C 103.12862196 5.22520423 41.80338673     2    560   564   565   566
H 102.57175660 3.65475982 40.72501404     6    563    0    0    0
H 102.29139225 5.14716128 43.64617113     6    563    0    0    0
C 102.38758219 7.68088642 40.71619733     2    563   567   568   569
H 102.78040829 9.18764324 41.96920259     6    566    0    0    0
H 103.35369717 8.28884491 38.96660407     6    566    0    0    0
C 99.54432692 7.84907391 40.00852900     2    566   570   571   572
H 99.12076863 6.49390251 38.62732745     6    569    0    0    0
H 98.23681249 7.40491248 41.63183687     6    569    0    0    0
C 99.16959757 10.56950514 38.98094133     2    569   573   574   575
H 99.92827711 12.11464967 40.19787185     6    572    0    0    0
H 100.17797601 10.64966478 37.15165231     6    572    0    0    0
C 96.45036192 11.32553031 38.28086259     2    572   576   577   578
H 95.34884496 11.27532646 40.06708900     6    575    0    0    0
H 96.49808572 13.30500269 37.67927946     6    575    0    0    0
C 95.34501042 9.77385274 36.10384413     1    575   579   580   581
H 96.57722661 9.60550605 34.47704639     6    578    0    0    0
H 93.58638929 10.45747416 35.43053538     6    578    0    0    0
H 94.83706918 7.90390469 36.72195175     6    578    0    0    0
H 130.63393831 -5.75166979 15.30888705     6     583    0    0    0 
C 129.06761640 -4.57371494 14.42885094     1     582    584    585    586
H 129.57176730 -3.79284667 12.61144784     6     583    0    0    0
H 127.42881246 -5.73532243 13.88148573     6     583    0    0    0
C 128.48059399 -2.34530382 16.13903017     2     583    587    588    589
H 127.31662838 -3.03824075 17.85461553     6     586    0    0    0
H 130.39381565 -1.56993989 16.64846664     6     586    0    0    0
C 127.05232520 -0.24913114 14.75423898     2     586    590   591   592
H 128.17658711 0.55213695 13.19631919     6     589    0    0    0
H 125.11870226 -0.73196230 13.89668422     6     589    0    0    0
C 126.63372251 2.02265384 16.53117467     2     589   593   594   595
H 125.65079370 1.62389488 18.29098849     6    592    0    0    0
H 128.62562303 2.71727564 17.09364852     6    592    0    0    0
C 125.37750971 4.21128359 15.12660677     2    592   596   597   598
H 126.01799488 4.67409608 13.15808089     6    595    0    0    0
H 123.46034050 3.49864600 14.66557311     6    595    0    0    0
C 125.09405819 6.67329723 16.68736845     2    595   599   600   601
H 124.68363082 6.28110532 18.63007034     6    598    0    0    0
H 126.92475280 7.68270247 16.74571003     6    598    0    0    0
C 123.09966223 8.46605864 15.48452670     2    598   602   603   604
H 123.60960577 8.90569468 13.60337147     6    601    0    0    0
H 121.21370655 7.71296016 15.49732180     6    601    0    0    0
C 123.14315521 10.98844345 16.96500829     2    601   605   606   607
H 123.10047695 10.63662701 18.89630153     6    604    0    0    0
H 124.91745502 11.86474415 16.24144303     6    604    0    0    0
C 121.00053074 12.75109822 16.16281805     2    604   608   609   610
H 120.89888565 12.35063119 14.06611398     6    607    0    0    0
H 119.34681276 11.79335973 16.86451504     6    607    0    0    0
C 121.13884540 15.62172759 16.59746465     2    607   611   612   613
H 120.85276119 16.17984770 18.60342703     6    610    0    0    0
H 122.85262810 16.31190138 15.79080665     6    610    0    0    0
C 119.13946517 16.81875903 14.89304314     2    610   614   615   616
H 119.40619667 16.18485936 13.00823144     6    613    0    0    0
H 117.39051908 16.21678325 15.66027860     6    613    0    0    0
C 119.17542683 19.72378816 14.98000158     1    613   617   618   619
H 120.89054695 20.72669189 14.51191749     6    616    0    0    0
H 118.34268983 20.57304997 16.78870588     6    616    0    0    0
H 117.89117929 20.16069518 13.38301937     6    616    0    0    0
H 94.02096500 -16.29557103 28.66606845     6     621    0    0    0 
C 95.35931431 -14.98162638 27.99441914     1     620    622    623    624
H 94.28616708 -13.45349070 27.10660976     6     621    0    0    0
H 96.55699543 -14.32377958 29.55068935     6     621    0    0    0
C 97.03098204 -16.19967943 26.06957276     2     621    625    626    627
H 98.57897365 -14.85445439 25.36261646     6     624    0    0    0
H 98.00205015 -17.80497271 26.96200329     6     624    0    0    0
C 95.54178138 -17.63880067 23.94587258     2     624    628   629   630
H 94.29421697 -19.04183370 24.72041356     6     627    0    0    0
H 94.21751983 -16.38769751 23.06315717     6     627    0    0    0
C 97.08298205 -19.10199168 22.08715757     2     627   631   632   633
H 98.09117716 -17.71121542 20.94913605     6    630    0    0    0
H 98.53305760 -20.21690065 22.86835996     6    630    0    0    0
C 95.42385155 -19.96973085 19.93227014     2    630   634   635   636
H 94.19752071 -21.29552905 20.81130908     6    633    0    0    0
H 94.22792493 -18.47480246 19.42718207     6    633    0    0    0
C 96.84561922 -20.97507894 17.56823091     2    633   637   638   639
H 98.15346828 -19.70991037 16.88603288     6    636    0    0    0
H 97.88352856 -22.54985957 18.29661076     6    636    0    0    0
C 95.13328764 -21.80004885 15.41928637     2    636   640   641   642
H 93.58800343 -22.76735015 16.28037703     6    639    0    0    0
H 94.25836494 -20.13065781 14.67877421     6    639    0    0    0
C 96.27330557 -23.68618444 13.43072967     2    639   643   644   645
H 97.93628939 -22.60774111 12.66700064     6    642    0    0    0
H 96.91662482 -25.38982721 14.34105548     6    642    0    0    0
C 94.52982546 -24.17603807 11.25469847     2    642   646   647   648
H 92.61646279 -24.47393642 11.88575813     6    645    0    0    0
H 94.37359325 -22.53625804 10.00357656     6    645    0    0    0
C 95.37038647 -26.16253354 9.40924030     2    645   649   650   651
H 97.29090340 -25.84495635 8.55611949     6    648    0    0    0
H 95.64471651 -27.98925700 10.31086810     6    648    0    0    0
C 93.57283602 -26.43043812 7.15973150     2    648   652   653   654
H 91.89679229 -27.59369873 7.52852288     6    651    0    0    0
H 93.02491601 -24.63631375 6.37738192     6    651    0    0    0
C 94.83258690 -28.27006889 5.21259726     1    651   655   656   657
H 96.26927611 -27.17319795 3.97067821     6    654    0    0    0
H 93.38358857 -29.14601643 3.90017741     6    654    0    0    0
H 95.77888635 -29.86559101 6.21751290     6    654    0    0    0
H 122.76124037 -4.35522665 15.84217604     6     659    0    0    0 
C 121.63642263 -3.48931535 17.35267143     1     658    660    661    662
H 120.59933864 -4.75317668 18.46870209     6     659    0    0    0
H 122.85513190 -2.43490276 18.79460665     6     659    0    0    0
C 119.83740836 -1.68812231 15.98750217     2     659    663    664    665
H 121.07916428 -0.26094353 15.08413781     6     662    0    0    0
H 118.86873990 -2.66694286 14.48571518     6     662    0    0    0
C 117.82000025 -0.19000055 17.54146694     2     662    666   667   668
H 116.09695452 0.12059194 16.48780818     6     665    0    0    0
H 117.27356422 -1.26043572 19.17192015     6     665    0    0    0
C 118.62782227 2.43939819 18.43626381     2     665   669   670   671
H 120.50604729 2.58456259 19.41179953     6    668    0    0    0
H 119.05131722 3.69964469 16.83977887     6    668    0    0    0
C 116.68956026 3.60424464 20.10651924     2    668   672   673   674
H 114.86061131 3.73808560 19.10371131     6    671    0    0    0
H 116.40064346 2.50731631 21.79780453     6    671    0    0    0
C 117.62472609 6.30310150 20.86824301     2    671   675   676   677
H 119.33735937 5.94774164 21.95176496     6    674    0    0    0
H 118.13590887 7.34447118 19.18788544     6    674    0    0    0
C 115.68888896 7.99088301 22.40886606     2    674   678   679   680
H 116.55288715 9.73871520 22.72877011     6    677    0    0    0
H 113.99090243 8.45810956 21.26772985     6    677    0    0    0
C 115.32963506 7.14633568 25.12149806     2    677   681   682   683
H 114.31280606 5.31835935 25.23597609     6    680    0    0    0
H 117.11284299 6.89117379 25.85484283     6    680    0    0    0
C 113.45019522 9.04801825 26.47126456     2    680   684   685   686
H 111.93861472 9.81477309 25.28368793     6    683    0    0    0
H 112.24873061 7.97148634 27.77351847     6    683    0    0    0
C 114.82118942 10.99787521 28.08710217     2    683   687   688   689
H 116.18688624 10.07900934 29.23604068     6    686    0    0    0
H 115.86609398 12.20955754 26.96745235     6    686    0    0    0
C 112.96084576 12.79196221 29.32285090     2    686   690   691   692
H 111.76430965 13.58843507 27.85217875     6    689    0    0    0
H 111.60724809 11.75518831 30.64929916     6    689    0    0    0
C 114.08270251 15.21072212 30.66198818     1    689   693   694   695
H 112.42502736 16.40364292 31.29029078     6    692    0    0    0
H 115.10516237 16.24602361 29.14345165     6    692    0    0    0
H 115.47248001 14.95846798 32.06301469     6    692    0    0    0
H 98.12252126 14.05916205 43.92911903     6     697    0    0    0 
C 98.43310066 13.84259370 45.99388849     1     696    698    699    700
H 98.87368759 15.63322193 46.75466445     6     697    0    0    0
H 96.68963648 13.25287396 47.00302710     6     697    0    0    0
C 100.47482459 12.03687850 46.48489922     2     697    701    702    703
H 99.95306555 10.14907598 45.72895232     6     700    0    0    0
H 102.25526953 12.69681489 45.45300100     6     700    0    0    0
C 101.17489964 11.61794144 49.29378787     2     700    704   705   706
H 101.02888966 13.56117013 50.22654344     6     703    0    0    0
H 99.66249556 10.62275145 50.23207569     6     703    0    0    0
C 103.65448850 9.95222678 49.68995427     2     703   707   708   709
H 103.24323910 8.09236193 48.77318754     6    706    0    0    0
H 105.26092756 10.60328143 48.69689190     6    706    0    0    0
C 104.19836391 9.59310181 52.56544016     2    706   710   711   712
H 104.45990594 11.41885008 53.50299669     6    709    0    0    0
H 102.56764158 8.60193518 53.59738063     6    709    0    0    0
C 106.58414711 7.99068859 53.13936813     2    709   713   714   715
H 106.22726660 6.09692580 52.44862572     6    712    0    0    0
H 108.10802021 8.62869080 52.01270725     6    712    0    0    0
C 107.32952671 7.73955443 55.97451426     2    712   716   717   718
H 108.00915012 9.51386568 56.51362570     6    715    0    0    0
H 105.45141858 7.37068865 56.87064021     6    715    0    0    0
C 109.16536935 5.60701930 56.42028008     2    715   719   720   721
H 108.08037474 3.86244739 56.42010700     6    718    0    0    0
H 110.53497904 5.50695693 54.85852825     6    718    0    0    0
C 110.48900682 5.71031727 59.00201592     2    718   722   723   724
H 111.44439349 7.51861951 59.05167532     6    721    0    0    0
H 109.07325354 5.52223316 60.60943101     6    721    0    0    0
C 112.30941718 3.58111471 59.21896684     2    721   725   726   727
H 111.47805261 1.87315821 58.44453130     6    724    0    0    0
H 113.90105010 3.95762785 57.99586204     6    724    0    0    0
C 113.16493285 3.29814950 62.01171585     2    724   728   729   730
H 111.50015978 3.54562560 63.31495771     6    727    0    0    0
H 113.96779348 1.36329603 62.45982575     6    727    0    0    0
C 115.10080625 5.39023343 62.63144843     1    727   731   732   733
H 114.89486161 5.83388132 64.59100161     6    730    0    0    0
H 114.90573803 7.18261641 61.56348556     6    730    0    0    0
H 117.11577146 4.67305816 62.64610418     6    730    0    0    0
H 145.89249266 -7.86149786 40.97776182     6     735    0    0    0 
C 145.05691310 -6.10601680 40.29927143     1     734    736    737    738
H 146.08801561 -4.54504165 41.13475126     6     735    0    0    0
H 145.35549670 -6.11721071 38.25672210     6     735    0    0    0
C 142.28341324 -6.00697148 40.83087857     2     735    739    740    741
H 142.06209319 -6.52842501 42.80335779     6     738    0    0    0
H 141.58447899 -4.08025301 40.87555961     6     738    0    0    0
C 140.87997664 -7.88766298 39.12839256     2     738    742   743   744
H 141.52427407 -7.76942445 37.31889482     6     741    0    0    0
H 141.50715619 -9.72270263 39.81432275     6     741    0    0    0
C 138.00885687 -7.38989555 38.99531589     2     741   745   746   747
H 137.37280206 -6.79334730 40.85613786     6    744    0    0    0
H 137.60912089 -5.75939798 37.75327221     6    744    0    0    0
C 136.57493439 -9.84289938 38.23910625     2    744   748   749   750
H 137.07637880 -11.50773552 39.46016579     6    747    0    0    0
H 134.63659011 -9.86884205 38.85343639     6    747    0    0    0
C 136.75540168 -10.60471999 35.43460338     2    747   751   752   753
H 136.46951273 -9.15071820 33.96873209     6    750    0    0    0
H 138.68955881 -11.27281104 35.19434076     6    750    0    0    0
C 134.93740798 -12.90776248 34.88259585     2    750   754   755   756
H 134.58460168 -14.00020113 36.71053023     6    753    0    0    0
H 132.94368204 -12.36544488 34.66835518     6    753    0    0    0
C 135.96143212 -14.60178471 32.88826931     2    753   757   758   759
H 137.05361628 -13.52644944 31.47462480     6    756    0    0    0
H 137.43065320 -15.65643296 33.85819889     6    756    0    0    0
C 134.24688817 -16.59145615 31.78143877     2    756   760   761   762
H 133.93216792 -17.92919590 33.30880728     6    759    0    0    0
H 132.41566952 -15.73069660 31.12024192     6    759    0    0    0
C 135.42530206 -18.04548308 29.62778240     2    759   763   764   765
H 135.07452880 -16.88450013 28.01430276     6    762    0    0    0
H 137.42108306 -18.07426490 29.74337753     6    762    0    0    0
C 134.42843452 -20.65081925 28.99969597     2    762   766   767   768
H 134.30691257 -21.72478103 30.76851355     6    765    0    0    0
H 132.34547544 -20.63437770 28.41813205     6    765    0    0    0
C 136.22063824 -22.12825602 27.12892565     1    765   769   770   771
H 138.28722885 -21.90857878 27.60115811     6    768    0    0    0
H 136.23089366 -21.13959502 25.33765271     6    768    0    0    0
H 135.85220906 -24.09617407 26.88663603     6    768    0    0    0
H 96.86095357 -22.48407830 28.02617329     6     773    0    0    0 
C 94.83527337 -22.92287897 28.24298700     1     772    774    775    776
H 93.77812760 -21.27010508 28.25646692     6     773    0    0    0
H 94.13537139 -23.96983519 26.57113292     6     773    0    0    0
C 94.50036260 -24.55903522 30.60872820     2     773    777    778    779
H 92.65834972 -25.43517485 30.77519017     6     776    0    0    0
H 95.81490520 -26.15433471 30.39414612     6     776    0    0    0
C 95.13443974 -23.24084758 33.10298434     2     776    780   781   782
H 97.10934580 -22.47313881 32.82481427     6     779    0    0    0
H 94.02244520 -21.49677889 33.47732778     6     779    0    0    0
C 94.87699798 -24.82162387 35.52695321     2     779   783   784   785
H 92.86691717 -25.46445041 35.40185258     6    782    0    0    0
H 96.15529115 -26.49914712 35.14377494     6    782    0    0    0
C 95.60160415 -23.57465469 37.92352391     2    782   786   787   788
H 97.35242686 -22.67396439 38.06376715     6    785    0    0    0
H 94.20632549 -22.14424250 38.31476633     6    785    0    0    0
C 95.54118976 -25.36954717 40.14535801     2    785   789   790   791
H 93.96045493 -26.66240310 39.87452277     6    788    0    0    0
H 97.30684067 -26.46296064 40.00692499     6    788    0    0    0
C 95.56389994 -23.84786476 42.69040152     2    788   792   793   794
H 97.12074885 -22.52905250 42.95716059     6    791    0    0    0
H 94.02962884 -22.45829988 42.74810577     6    791    0    0    0
C 95.51863861 -25.42556118 44.97310514     2    791   795   796   797
H 94.14458392 -26.87946871 44.83430423     6    794    0    0    0
H 97.31707312 -26.31081611 45.33202504     6    794    0    0    0
C 95.40587476 -23.71932809 47.46977811     2    794   798   799   800
H 96.68820922 -22.11592719 47.31780447     6    797    0    0    0
H 93.45310876 -23.14856617 47.66551965     6    797    0    0    0
C 96.22407711 -25.18359201 49.75204233     2    797   801   802   803
H 95.12822313 -26.94049729 50.20274082     6    800    0    0    0
H 98.19259343 -25.95851416 49.64290280     6    800    0    0    0
C 96.39564991 -23.57973880 52.16961926     2    800   804   805   806
H 97.52711828 -21.87169580 51.92169691     6    803    0    0    0
H 94.46930626 -22.99531598 52.54384927     6    803    0    0    0
C 97.31124937 -25.34435902 54.48630298     1    803   807   808   809
H 96.59447078 -24.78441134 56.30637507     6    806    0    0    0
H 99.41927716 -25.44216778 54.45575708     6    806    0    0    0
H 96.63391784 -27.30378803 54.31171145     6    806    0    0    0
H 124.85255890 -7.62953058 20.27735479     6     811    0    0    0 
C 125.91222439 -8.86727056 19.09283308     1     810    812    813    814
H 126.46804445 -7.76180821 17.37673444     6     811    0    0    0
H 127.77091922 -9.36368049 19.80573912     6     811    0    0    0
C 124.41090832 -11.34027388 18.72672470     2     811    815    816    817
H 122.48365513 -10.66775574 18.17681635     6     814    0    0    0
H 125.24528326 -12.44708983 17.19163147     6     814    0    0    0
C 124.00995362 -12.94407966 21.01031753     2     814    818   819   820
H 125.75664524 -13.75546306 21.59815638     6     817    0    0    0
H 123.31083320 -11.72968360 22.63765233     6     817    0    0    0
C 122.30769684 -15.21544098 20.39548053     2     817   821   822   823
H 120.85849288 -14.60488547 19.18477675     6    820    0    0    0
H 123.53947167 -16.28717738 19.20564178     6    820    0    0    0
C 121.32192966 -16.58545074 22.75024308     2    820   824   825   826
H 122.73904372 -17.07103471 24.02985837     6    823    0    0    0
H 120.23604777 -15.21436569 23.84354910     6    823    0    0    0
C 119.73826356 -18.94625649 22.23162535     2    823   827   828   829
H 118.11459158 -18.98610737 23.78173849     6    826    0    0    0
H 118.63890149 -18.93423538 20.41735573     6    826    0    0    0
C 121.32263450 -21.49344246 22.20735493     2    826   830   831   832
H 122.79760209 -21.41083713 20.71210109     6    829    0    0    0
H 122.06185415 -21.48506149 24.13178444     6    829    0    0    0
C 119.56336658 -23.75193739 21.95667291     2    829   833   834   835
H 118.37218501 -23.68116528 23.65504360     6    832    0    0    0
H 118.28363243 -23.69188671 20.37309938     6    832    0    0    0
C 121.23013508 -26.07426347 21.64776425     2    832   836   837   838
H 122.44652922 -25.79744440 19.97813264     6    835    0    0    0
H 122.76544643 -26.24678086 23.03527714     6    835    0    0    0
C 119.60540948 -28.56002352 21.49404902     2    835   839   840   841
H 118.17716101 -28.86519247 23.14155286     6    838    0    0    0
H 118.37124247 -28.27892636 19.83689263     6    838    0    0    0
C 121.22884415 -31.07747908 21.29937173     2    838   842   843   844
H 122.45778199 -30.84309985 19.70509562     6    841    0    0    0
H 122.52722148 -31.30071738 22.82734504     6    841    0    0    0
C 119.55118725 -33.47771384 21.00035386     1    841   845   846   847
H 117.89588497 -33.42428834 22.13620449     6    844    0    0    0
H 120.42195706 -35.34336523 21.24501294     6    844    0    0    0
H 118.90168642 -33.47404376 19.02718469     6    844    0    0    0
H 113.40102845 19.93265876 15.19440496     6     849    0    0    0 
C 111.95835698 19.44967120 16.59094254     1     848    850    851    852
H 111.91526775 20.81346003 18.20328998     6     849    0    0    0
H 110.20869483 19.84145604 15.57825541     6     849    0    0    0
C 112.32545848 16.69925859 17.54405049     2     849    853    854    855
H 114.22952666 16.40076330 18.20665428     6     852    0    0    0
H 110.95657473 16.42511994 19.11042756     6     852    0    0    0
C 111.81027263 14.81386874 15.37323802     2     852    856   857   858
H 109.81357616 14.56792796 14.87445768     6     855    0    0    0
H 112.71746213 15.61069811 13.64026791     6     855    0    0    0
C 113.00712505 12.19384670 15.65666215     2     855   859   860   861
H 114.85701775 12.17834698 16.60050767     6    858    0    0    0
H 111.82157492 11.13857783 16.95488420     6    858    0    0    0
C 112.84349208 10.74472810 13.09886583     2    858   862   863   864
H 111.02937607 11.05957493 12.14030863     6    861    0    0    0
H 114.29161631 11.51200452 11.93748334     6    861    0    0    0
C 113.22567598 7.89839508 13.71345557     2    861   865   866   867
H 114.99917771 7.54805971 14.75335163     6    864    0    0    0
H 111.80479124 7.15439557 14.98542413     6    864    0    0    0
C 113.38762493 6.15265602 11.52960813     2    864   868   869   870
H 111.64785581 6.10282503 10.66126303     6    867    0    0    0
H 114.72854841 7.04238186 10.24806206     6    867    0    0    0
C 113.86384947 3.44439163 12.32113536     2    867   871   872   873
H 115.43354273 3.39843692 13.71262659     6    870    0    0    0
H 112.36467363 2.25964814 13.34629083     6    870    0    0    0
C 114.45407261 1.81391247 9.98858987     2    870   874   875   876
H 114.01060767 -0.14690855 10.33803874     6    873    0    0    0
H 113.17685900 2.30127158 8.47269957     6    873    0    0    0
C 117.32072356 1.82578803 9.19495569     2    873   877   878   879
H 117.97184619 3.64843701 9.03449400     6    876    0    0    0
H 118.28315833 0.62158739 10.71013843     6    876    0    0    0
C 117.97703971 0.27460391 6.76970341     2    876   880   881   882
H 117.22443129 -1.62218327 6.70278139     6    879    0    0    0
H 117.06121596 1.16527437 5.11293698     6    879    0    0    0
C 120.84677530 0.23689146 6.39502241     1    879   883   884   885
H 121.84701652 -0.63952575 7.80746849     6    882    0    0    0
H 121.53128148 2.14352859 6.23472321     6    882    0    0    0
H 121.51632971 -0.68382075 4.66222522     6    882    0    0    0
H 113.25349490 -20.17146947 24.89785429     6     887    0    0    0 
C 112.33396950 -18.90734802 23.61438899     1     886    888    889    890
H 113.25586149 -18.98993403 21.77460125     6     887    0    0    0
H 110.44135151 -19.57173868 23.22765016     6     887    0    0    0
C 112.19950824 -16.15641556 24.60358671     2     887    891    892    893
H 110.88326148 -15.07076188 23.42469596     6     890    0    0    0
H 111.53236070 -16.00115535 26.65153405     6     890    0    0    0
C 114.67047164 -14.78408971 24.40117105     2     890    894   895   896
H 116.04188486 -15.77970791 25.53637702     6     893    0    0    0
H 115.35186129 -15.10014030 22.46970349     6     893    0    0    0
C 114.45372442 -12.03772872 25.09503102     2     893   897   898   899
H 113.39665364 -11.06048461 23.59607418     6    896    0    0    0
H 113.55198080 -11.80950050 26.91417651     6    896    0    0    0
C 116.96812562 -10.47725146 25.03174325     2    896   900   901   902
H 118.56132679 -11.48200671 26.04108986     6    899    0    0    0
H 117.40359000 -10.46402556 22.95278720     6    899    0    0    0
C 116.62339641 -7.97481670 26.36008913     2    899   903   904   905
H 115.15159637 -7.00151376 25.24532344     6    902    0    0    0
H 115.85899334 -7.98662426 28.36447330     6    902    0    0    0
C 118.87509353 -6.20138450 26.43233596     2    902   906   907   908
H 119.92766575 -7.03202451 28.02379233     6    905    0    0    0
H 120.00433759 -6.37922158 24.85982404     6    905    0    0    0
C 118.23884291 -3.35812136 26.98687100     2    905   909   910   911
H 117.54164819 -2.38542845 25.35201771     6    908    0    0    0
H 116.77064692 -3.16414561 28.50076584     6    908    0    0    0
C 120.77685280 -1.82839733 27.53608474     2    908   912   913   914
H 121.60035630 -2.52286009 29.26878647     6    911    0    0    0
H 122.13100455 -2.44917078 26.14756225     6    911    0    0    0
C 120.14248455 0.95027678 28.02506628     2    911   915   916   917
H 119.21172235 1.99047267 26.55348692     6    914    0    0    0
H 118.77644067 0.81412531 29.57813706     6    914    0    0    0
C 122.50393222 2.51519892 28.78983286     2    914   918   919   920
H 123.57280704 1.64543497 30.39009230     6    917    0    0    0
H 123.81890073 2.24433618 27.27261454     6    917    0    0    0
C 121.90470189 5.22901705 29.23565518     1    917   921   922   923
H 120.93371164 5.47227909 31.11236206     6    920    0    0    0
H 120.88915917 6.10872552 27.68964307     6    920    0    0    0
H 123.62367402 6.37445716 29.37296729     6    920    0    0    0
H 99.69290304 -3.07304273 15.67562811     6     925    0    0    0 
C 101.09416140 -3.01670400 14.02565122     1     924    926    927    928
H 102.22687852 -4.71534200 13.96612687     6     925    0    0    0
H 99.88056810 -2.50490569 12.41565072     6     925    0    0    0
C 103.03825695 -0.90707313 14.06783326     2     925    929    930    931
H 102.19191973 1.07325800 13.94116394     6     928    0    0    0
H 103.81999822 -1.31687813 15.92469818     6     928    0    0    0
C 105.06308830 -1.14261958 12.03061762     2     928    932   933   934
H 104.37791532 -1.12768365 10.08708939     6     931    0    0    0
H 106.37987590 0.56859125 12.05672182     6     931    0    0    0
C 106.72100512 -3.42015127 12.36418393     2     931   935   936   937
H 107.03860595 -3.62768303 14.43623900     6    934    0    0    0
H 105.60793986 -5.21586742 11.96424556     6    934    0    0    0
C 109.05805803 -3.52817678 10.53793209     2    934   938   939   940
H 108.17194009 -3.08368089 8.74731873     6    937    0    0    0
H 110.22627461 -1.90866872 11.01597182     6    937    0    0    0
C 110.43381723 -6.02818714 10.63850539     2    937   941   942   943
H 111.42044162 -6.37408299 12.38139237     6    940    0    0    0
H 109.03551605 -7.71094349 10.53668812     6    940    0    0    0
C 112.59352709 -6.47808934 8.57714579     2    940   944   945   946
H 114.26181853 -5.49002418 9.19391231     6    943    0    0    0
H 112.92975162 -8.46630968 8.65010988     6    943    0    0    0
C 112.22182516 -5.66313927 5.76422747     2    943   947   948   949
H 110.65757809 -6.71092297 4.94748155     6    946    0    0    0
H 111.69485095 -3.76954980 5.70919683     6    946    0    0    0
C 114.67815634 -6.07114798 4.01137388     2    946   950   951   952
H 116.43858895 -5.55865040 4.94970903     6    949    0    0    0
H 114.74435962 -8.10680213 3.90193082     6    949    0    0    0
C 114.47036035 -5.10767587 1.26783358     2    949   953   954   955
H 112.75923874 -5.90019772 0.25382118     6    952    0    0    0
H 114.53662762 -3.03572357 1.35829668     6    952    0    0    0
C 116.81731192 -6.03324924 -0.35533801     2    952   956   957   958
H 116.49098199 -5.01952281 -2.12967893     6    955    0    0    0
H 118.65086529 -5.30169964 0.40649915     6    955    0    0    0
C 117.06716550 -8.82197357 -0.64601143     1    955   959   960   961
H 118.56077482 -9.16251348 -1.93422589     6    958    0    0    0
H 115.39957656 -9.50647473 -1.44598561     6    958    0    0    0
H 117.38433041 -9.73410886 1.19617230     6    958    0    0    0
H 124.24260783 -17.76174848 46.93783020     6     963    0    0    0 
C 123.58889155 -17.55417434 45.06822471     1     962    964    965    966
H 124.33173459 -15.80615826 44.21072097     6     963    0    0    0
H 124.28096754 -19.16151912 44.02184705     6     963    0    0    0
C 120.65161911 -17.12721052 44.86060405     2     963    967    968    969
H 119.97097731 -17.25441624 42.92866962     6     966    0    0    0
H 119.65939616 -18.53571416 45.92766565     6     966    0    0    0
C 119.82034800 -14.56452880 45.99416920     2     966    970   971   972
H 120.77147939 -14.26425988 47.73901459     6     969    0    0    0
H 120.39584187 -13.01907891 44.78659713     6     969    0    0    0
C 117.04877309 -14.19801543 46.77495554     2     969   973   974   975
H 115.84701513 -13.83698409 45.18379384     6    972    0    0    0
H 116.48558540 -15.97209202 47.77372124     6    972    0    0    0
C 116.81995759 -11.96650284 48.71330826     2    972   976   977   978
H 117.93118345 -12.28148887 50.44157442     6    975    0    0    0
H 117.59359727 -10.18157201 48.19291740     6    975    0    0    0
C 114.07410107 -11.53381648 49.45923694     2    975   979   980   981
H 113.24698892 -10.17242414 48.05985193     6    978    0    0    0
H 112.99152346 -13.24949732 49.28439136     6    978    0    0    0
C 113.81557823 -10.56937240 52.24319059     2    978   982   983   984
H 114.64803259 -11.83441441 53.68186928     6    981    0    0    0
H 114.57276677 -8.70189947 52.61336500     6    981    0    0    0
C 110.92132980 -10.26144976 53.02871366     2    981   985   986   987
H 109.82176499 -9.63641595 51.45975270     6    984    0    0    0
H 110.39534368 -12.11064850 53.54716420     6    984    0    0    0
C 110.42878279 -8.62620055 55.46309578     2    984   988   989   990
H 108.97959081 -9.58988107 56.64733995     6    987    0    0    0
H 112.28038962 -8.69193118 56.13372709     6    987    0    0    0
C 109.46656821 -5.83060566 54.84868529     2    987   991   992   993
H 107.75615381 -5.84941446 53.67354808     6    990    0    0    0
H 108.83374018 -4.81664593 56.57358969     6    990    0    0    0
C 111.56534719 -4.28267020 53.38280130     2    990   994   995   996
H 113.30125409 -4.44278887 54.43055855     6    993    0    0    0
H 111.83324635 -5.30496628 51.53841651     6    993    0    0    0
C 110.51019286 -1.58740616 52.95687353     1    993   997   998   999
H 108.68219367 -1.75686065 51.90753488     6    996    0    0    0
H 111.76896015 -0.25370133 51.94634328     6    996    0    0    0
H 110.21584213 -0.75075003 54.83974078     6    996    0    0    0
H 129.21449225 -28.21188562 45.02239114     6     1001    0    0    0 
C 128.47581512 -26.69171025 44.04148253     1     1000    1002    1003    1004
H 129.99193192 -26.06313640 42.93342127     6     1001    0    0    0
H 126.95891157 -27.29519521 42.95713548     6     1001    0    0    0
C 127.73426737 -24.39472295 45.54289778     2     1001    1005    1006    1007
H 126.92509372 -22.83468515 44.44664115     6     1004    0    0    0
H 126.35459530 -24.91071303 46.97435838     6     1004    0    0    0
C 130.04642173 -23.47183112 46.99955693     2     1004    1008   1009   1010
H 130.50312594 -24.56183945 48.60612875     6     1007    0    0    0
H 131.71038875 -23.29360980 45.85699394     6     1007    0    0    0
C 129.49904329 -20.85870068 48.24360194     2     1007   1011   1012   1013
H 129.04060934 -19.52919884 46.76392432     6    1010    0    0    0
H 127.91494400 -21.23788280 49.55146148     6    1010    0    0    0
C 131.89471587 -19.77871710 49.52970485     2    1010   1014   1015   1016
H 132.61007929 -20.88537615 51.12562893     6    1013    0    0    0
H 133.38345849 -19.56703657 48.21426684     6    1013    0    0    0
C 131.35598776 -17.14181029 50.42455789     2    1013   1017   1018   1019
H 131.16890145 -15.88304303 48.78071555     6    1016    0    0    0
H 129.65273092 -17.28310204 51.54949552     6    1016    0    0    0
C 133.65882321 -16.11881228 51.83019489     2    1016   1020   1021   1022
H 134.82044917 -17.49295004 52.79826204     6    1019    0    0    0
H 135.16056565 -15.48555108 50.44566370     6    1019    0    0    0
C 133.04151243 -14.06302699 53.84810799     2    1019   1023   1024   1025
H 131.76501955 -15.12333979 55.21139626     6    1022    0    0    0
H 134.77061165 -13.33430106 54.75216319     6    1022    0    0    0
C 131.62973799 -11.77456095 52.69883847     2    1022   1026   1027   1028
H 132.43783769 -10.79963725 51.09667972     6    1025    0    0    0
H 130.07648780 -12.82955998 51.96737166     6    1025    0    0    0
C 131.11463105 -9.76319553 54.65742365     2    1025   1029   1030   1031
H 129.75228244 -10.57555046 56.00975213     6    1028    0    0    0
H 132.99536732 -9.51636551 55.69322161     6    1028    0    0    0
C 130.06028271 -7.25430880 53.38926416     2    1028   1032   1033   1034
H 131.54325041 -6.25759986 52.25389507     6    1031    0    0    0
H 128.60882352 -7.78258545 51.97895178     6    1031    0    0    0
C 128.77732147 -5.40397211 55.19259008     1    1031   1035   1036   1037
H 128.59636336 -3.49795598 54.34437691     6    1034    0    0    0
H 129.66217513 -5.33778081 57.08680608     6    1034    0    0    0
H 126.94028612 -6.17844434 55.53772759     6    1034    0    0    0
H 104.49684909 -22.28561342 29.26733519     6     1039    0    0    0 
C 102.64733816 -22.86696105 28.52068260     1     1038    1040    1041    1042
H 102.18987099 -24.41475438 29.69618501     6     1039    0    0    0
H 101.05652727 -21.51238043 28.81828066     6     1039    0    0    0
C 102.61772690 -23.76666298 25.64949173     2     1039    1043    1044    1045
H 102.14575748 -21.99155710 24.66089139     6     1042    0    0    0
H 104.37534748 -24.37020541 24.88899664     6     1042    0    0    0
C 100.48872321 -25.49829732 24.89804455     2     1042    1046   1047   1048
H 100.46228258 -27.27195905 26.02619175     6     1045    0    0    0
H 98.77851169 -24.65249520 25.49840373     6     1045    0    0    0
C 100.24129780 -26.25438639 22.11841265     2     1045   1049   1050   1051
H 100.53181088 -24.62171907 20.80816232     6    1048    0    0    0
H 101.90302536 -27.45239654 21.87470040     6    1048    0    0    0
C 97.74879699 -27.73853752 21.40216949     2    1048   1052   1053   1054
H 97.58885694 -29.28088002 22.75023140     6    1051    0    0    0
H 96.11137193 -26.39160618 21.79596551     6    1051    0    0    0
C 98.05406391 -28.69193161 18.68530831     2    1051   1055   1056   1057
H 97.83000373 -27.19620487 17.37449082     6    1054    0    0    0
H 99.98970694 -29.43812781 18.56157761     6    1054    0    0    0
C 96.17196315 -30.71802540 17.84914190     2    1054   1058   1059   1060
H 96.05685726 -32.45612663 18.93084816     6    1057    0    0    0
H 94.29881540 -30.10834742 17.84753344     6    1057    0    0    0
C 96.47712583 -31.90610008 15.12763370     2    1057   1061   1062   1063
H 97.26022699 -30.64190943 13.69207180     6    1060    0    0    0
H 97.90292591 -33.33478951 15.16278478     6    1060    0    0    0
C 94.07601069 -33.09275704 13.89170560     2    1060   1064   1065   1066
H 93.52673139 -34.70662507 15.07566840     6    1063    0    0    0
H 92.52918415 -31.76292799 13.81555240     6    1063    0    0    0
C 94.67899426 -34.07079685 11.12718032     2    1063   1067   1068   1069
H 95.89419146 -32.66795573 10.09181053     6    1066    0    0    0
H 96.03770231 -35.79148020 11.13553140     6    1066    0    0    0
C 92.51178410 -34.72940618 9.44209676     2    1066   1070   1071   1072
H 90.95973565 -36.00482937 10.33572817     6    1069    0    0    0
H 91.48045747 -32.92491275 9.13262546     6    1069    0    0    0
C 93.16875258 -35.98196237 6.92789875     1    1069   1073   1074   1075
H 91.44269726 -36.65735806 5.87966134     6    1072    0    0    0
H 94.30230754 -37.58599607 7.24210672     6    1072    0    0    0
H 94.21985331 -34.75754897 5.70792338     6    1072    0    0    0
H 90.98415600 -11.27455043 11.24985508     6     1077    0    0    0 
C 91.41471323 -9.57007442 12.40983551     1     1076    1078    1079    1080
H 91.96026674 -8.27763736 11.08613565     6     1077    0    0    0
H 89.62711123 -9.35545226 13.26018466     6     1077    0    0    0
C 93.67951110 -10.12243314 13.93991931     2     1077    1081    1082    1083
H 93.92181637 -8.55247536 15.29564097     6     1080    0    0    0
H 93.22143336 -11.74872468 15.13768900     6     1080    0    0    0
C 96.15624060 -10.94627571 12.67022812     2     1080    1084   1085   1086
[...]
 1803      H      92.8781910700    -8.7382261500    19.8402752300
 1804      H      92.9305501400    -8.1923584900    23.1689836500
 1805      C      95.9082359000   -10.6315903900    21.7028735600
 1806      H      96.2655054200   -11.4515515400    23.5202336900
 1807      H      96.0696768800   -12.0549567000    20.2948355100
 1808      C      97.8401143700    -8.4524778500    21.3907694200
 1809      H      97.6619411000    -7.7328162700    19.4342250000
 1810      H      97.5129113900    -6.8908069500    22.5943524000
 1811      C     100.6010711900    -9.3521151400    21.8919308400
 1812      H     100.8869695900    -8.9485694200    23.8477342200
 1813      H     100.9159390500   -11.2915010600    21.8728067700
 1814      C     102.4116399100    -7.8709464700    20.3585452900
 1815      H     101.8774452300    -8.2888266600    18.4378566600
 1816      H     102.0463704400    -5.8138790800    20.3029716500
 1817      C     105.0568394400    -8.7774208700    20.8893680500
 1818      H     105.6722132200    -8.2809241400    22.7435907500
 1819      H     105.0723937900   -10.7533066800    20.7750649400
 1820      C     106.9623587000    -7.8228835000    19.1134135400
 1821      H     106.1309553600    -8.5279144500    17.3237983400
 1822      H     107.0173456500    -5.8852465700    19.1730889100
 1823      C     109.5551346800    -8.8539321100    19.7326998700
 1824      H     110.0945162400    -8.1703171800    21.7528148400
 1825      H     109.3348760800   -10.8996634200    19.6264524700
 1826      C     111.5013922900    -8.1377554100    17.7679393800
 1827      H     111.0722026700    -9.0986671900    16.0219050100
 1828      H     111.1811559500    -6.1256826100    17.3483125700
 1829      C     114.2148312500    -8.5643581000    18.7337099200
 1830      H     114.3321353900    -7.8549758000    20.5548290000
 1831      H     114.5579989300   -10.5900448400    19.0594149300
 1832      C     116.0583548500    -7.3722101100    16.9047252700
 1833      H     115.7189416200    -5.3761759500    16.7161278200
 1834      H     115.9990391900    -8.1514938400    15.0801589700
 1835      H     118.0623277300    -7.5760124700    17.2443323800
 1836      H     111.0190962700    -6.7400882600    26.9057507200
 1837      C     109.8570978600    -5.2172311300    27.5331558100
 1838      H     107.7839851300    -5.6846732800    27.2039688800
 1839      H     110.1050693100    -5.2455582700    29.6193912200
 1840      C     110.4118262900    -2.7505162400    26.2289010000
 1841      H     109.3623372400    -1.2121439200    27.2388613500
 1842      H     112.4103022200    -2.3646288900    26.3886402700
 1843      C     109.5326102500    -2.9242330000    23.5152962900
 1844      H     110.8437173000    -4.1590513400    22.5792863800
 1845      H     107.6608620500    -3.7838519200    23.4077871600
 1846      C     109.4384698400    -0.2445858600    22.4585829300
 1847      H     107.9912767200     0.8484024600    23.4629996500
 1848      H     111.1729142900     0.6991246400    23.1166401900
 1849      C     108.8093058000    -0.1458395300    19.5712794500
 1850      H     110.0455032200    -1.3192910200    18.4199478600
 1851      H     106.9763652600    -0.9297371200    19.2018888400
 1852      C     108.7521280000     2.5435808000    18.2338253200
 1853      H     110.6112909200     3.3047317100    18.2284766900
 1854      H     108.1469555800     2.4130721900    16.2823914400
 1855      C     106.7486959400     4.2916519600    19.4277847300
 1856      H     104.9138809100     3.3055236400    19.8679872700
 1857      H     107.4387367600     4.8620198700    21.2037044100
 1858      C     106.2764016200     6.7453832500    17.8669456000
 1859      H     105.1554399200     7.8686385700    18.9122941000
 1860      H     108.1075139700     7.7581472900    17.8389012000
 1861      C     105.1357054100     6.2545728500    15.2591696400
 1862      H     106.4745921600     4.9849435700    14.3064420200
 1863      H     103.1335073200     5.5681043900    15.3206132900
 1864      C     104.8489148600     8.6099868100    13.6319911900
 1865      H     103.2586724500     9.6973270700    13.9828029000
 1866      H     106.3155994800     9.9109972300    14.0381201300
 1867      C     104.9076163500     7.8657393100    10.7874638900
 1868      H     106.9127170800     7.6248882600    10.1524928800
 1869      H     103.8750260000     6.1078864800    10.2175066800
 1870      C     103.7635406800    10.0988935400     9.1815353300
 1871      H     103.7390338900     9.6273070400     7.1841996500
 1872      H     105.0595134200    11.6642567700     9.1866038300
 1873      H     101.9754281100    10.7984069600     9.6879586500
 1874      H      98.2722157300     5.2683364300    47.4013799100
 1875      C      98.4329294600     3.6510917200    48.6276124600
 1876      H      98.5005811600     4.4456337000    50.5190408600
 1877      H      96.6715576800     2.5696632100    48.4654441700
 1878      C     100.9703977800     2.1047498000    47.9772627300
 1879      H     101.1230887200     1.8495832000    45.9394831700
 1880      H     102.6862347800     3.2802490600    48.5705976100
 1881      C     101.1852708600    -0.5064724500    49.1127175200
 1882      H     101.4725953600    -0.4213190800    51.2078287100
 1883      H      99.3551949600    -1.2051426700    48.7958349000
 1884      C     103.3538252400    -2.1632395400    47.9350397900
 1885      H     103.0478494500    -2.0838991700    45.9562681700
 1886      H     105.2061803100    -1.3050695100    48.1098670000
 1887      C     103.4406823300    -4.9318055000    48.8116211800
 1888      H     104.4013014100    -4.7271721800    50.5787941400
 1889      H     101.5410012800    -5.8208764900    49.1561157200
 1890      C     105.2678916100    -6.5144813500    47.0968480800
 1891      H     104.5811846500    -6.6022991000    45.1781540600
 1892      H     107.1543454400    -5.7340644500    46.7790951400
 1893      C     105.5701254300    -9.2431847500    47.8416145200
 1894      H     106.3881328600    -9.1900418600    49.8282850600
 1895      H     103.6500128400    -9.9653918100    47.8348444600
 1896      C     107.1964468800   -10.7971711000    45.7942187700
 1897      H     106.2746672300   -10.6134708300    43.9382778500
 1898      H     109.0101059600    -9.8946563900    45.6773428900
 1899      C     107.5876829400   -13.6676429200    46.4918909700
 1900      H     108.3248485600   -13.6654241900    48.3735210700
 1901      H     105.8507323500   -14.6577185500    46.5767199900
 1902      C     109.5055389600   -15.0510950600    44.8309135400
 1903      H     109.1395324800   -14.6851557300    42.8083066400
 1904      H     111.3133025200   -14.1061741600    45.3887267900
 1905      C     109.9561563100   -17.7561157700    45.6976088000
 1906      H     110.8954996900   -17.8028353600    47.6032187200
 1907      H     108.2456707400   -18.9943063800    45.9054391800
 1908      C     111.7964920100   -19.3880736100    44.1549117900
 1909      H     113.6387287700   -18.4741062700    43.8999738600
 1910      H     111.0761233700   -19.8239011900    42.2975612300
 1911      H     111.9207857000   -21.2390289600    45.1399823800
 ----------------------------------------------------------------
 Nuclear Repulsion Energy =           0.00000000 hartrees
 There are     2498 alpha and     2498 beta electrons

 Total QAlloc Memory Limit   2000 MB
 Mega-Array Size       204 MB
 MEM_STATIC part       192 MB
   **** Step 1: MM calculation on the entire system **** 
 OPLSAA force field loaded.
Reading user-defined FF parameters...
 Reading user defined atom types.
 Found 3 user defined AtomTypes
finished.
Determining angles, torsions, etc. from user defined input
Determining VDW/Coulomb pairs... (useList = 0)

 Time req'd to get MM system information: 0.2 s (CPU) 0.5 s (wall)

 ------ MM Energies ------
   Ebond:           559.689578716302
   Eangle:          845.948125924448
   EUreyBrad:         0.000000000000
   Eimptors:          0.000000000000
   Etorsion:        216.243649350163
   Evdw:        1095227.859423227375
   Ecoulomb:        185.546515469955
   Etot:        1097035.287292688154 Kcal/mol (   1748.237019505779 hartree)
 -------------------------
 Time req'd to calc MM energy: 0.1 s (CPU) 0.1 s (wall)
 OPLSAA force field loaded.
Reading user-defined FF parameters...
 Reading user defined atom types.
 Found 3 user defined AtomTypes
finished.
 Time req'd to get MM system information: 0.0 s (CPU) 0.0 s (wall)
 Time req'd to calc MM gradient: 0.2 s (CPU) 0.2 s (wall)
   **** Step 2: MM calculation on the model system **** 
 Reading user defined atom types.
 Found 3 user defined AtomTypes
 ----------------------------------------------------------------
             Standard Nuclear Orientation (Bohr)
    I     Atom           X                Y                Z
 ----------------------------------------------------------------
    1      Fe    109.3867986800    -5.4447246000    37.0847236800
    2      C     110.2981009700    -7.7265609400    39.3765965600
    3      C     106.6252725200    -5.7117139400    34.9900579100
    4      C     111.4746026900    -2.8384086700    37.0331443300
    5      C     111.1947129900    -7.3529245900    35.0238387200
    6      C     106.9983649000    -4.1602055600    39.4206736000
    7      O     110.7743398600    -9.1668132400    40.9353601900
    8      O     105.0431330600    -5.9255571400    33.4948247900
    9      O     112.9919193000    -1.2561119200    37.2346437600
   10      O     112.3293457100    -8.8281819900    33.7441780800
   11      O     105.4102876500    -3.3459067600    40.7253994100
 ----------------------------------------------------------------
 Nuclear Repulsion Energy =         799.58813848 hartrees
 There are       48 alpha and       48 beta electrons
 OPLSAA force field loaded.
Reading user-defined FF parameters...
 Reading user defined atom types.
 Found 3 user defined AtomTypes
finished.
Determining VDW/Coulomb pairs... (useList = 0)

 No MM bonds in system. Return all possible pairs.
 Time req'd to get MM system information: 0.0 s (CPU) 0.0 s (wall)

 ------ MM Energies ------
   Ebond:             0.000000000000
   Eangle:            0.000000000000
   EUreyBrad:         0.000000000000
   Eimptors:          0.000000000000
   Etorsion:          0.000000000000
   Evdw:        1095667.653282552026
   Ecoulomb:         -6.469895579485
   Etot:        1095661.183386972640 Kcal/mol (   1746.047245535475 hartree)
 -------------------------
 Eold: 1748.2370195 mm_energy: 1746.0472455 Enew:    2.1897740
 Time req'd to calc MM energy: 0.0 s (CPU) 0.0 s (wall)
 OPLSAA force field loaded.
Reading user-defined FF parameters...
 Reading user defined atom types.
 Found 3 user defined AtomTypes
finished.
Determining VDW/Coulomb pairs... (useList = 0)

 No MM bonds in system. Return all possible pairs.
 Time req'd to get MM system information: 0.0 s (CPU) 0.0 s (wall)
 Number of fixed atoms: 0
 Time req'd to calc MM gradient: 0.0 s (CPU) 0.0 s (wall)
   **** Step 3: QM calculation on the model system **** 
 Requested basis set is def2-mSVP
 There are 80 shells and 174 basis functions

                       Distance Matrix (Bohrs)
             Fe(  1)   C (  2)   C (  3)   C (  4)   C (  5)   C (  6)
   C (  2)  3.360049
   C (  3)  3.476339  6.065558
   C (  4)  3.339831  5.547067  5.995506
   C (  5)  3.340214  4.459823  4.855358  4.949394
   C (  6)  3.579283  4.858919  4.709218  5.242533  6.865490
   O (  7)  5.532325  2.175057  8.031133  7.467688  6.197822  6.451231
   O (  8)  5.655617  8.090336  2.187377  7.963290  6.497476  6.484989
   O (  9)  5.528458  7.328801  8.088556  2.201480  6.729690  7.009649
   O ( 10)  5.591566  6.087993  6.618235  6.886601  2.258607  9.079205
   O ( 11)  5.785516  6.700755  6.321975  7.118021  9.056686  2.210742
             O (  7)   O (  8)   O (  9)   O ( 10)
   O (  8)  9.935494
   O (  9)  9.010669  9.948526
   O ( 10)  7.365176  7.847057  8.364126
   O ( 11)  7.918339  7.685741  8.604287 11.254606

 A cutoff of  1.0D-11 yielded   2486 shell pairs
 There are     12838 function pairs (     14692 Cartesian)
 Smallest overlap matrix eigenvalue = 2.33E-03
 Guess MOs from SCF MO coefficient file
 Reading MOs from coefficient file
 Reading MOs from coefficient file
 A restricted Kohn-Sham SCF calculation will be
 performed using Pulay DIIS extrapolation
 Exchange:  B88      Correlation:  P86
 Using SG-1 standard quadrature grid
 SCF converges when DIIS error is below 1.0E-08
 Using Q-Chem read-in guess as SCF_GUESS READ specified.

 using 2 threads for integral computing
 -------------------------------------------------------
 OpenMP Integral computing Module                
 Release: version 1.0, May 2013, Q-Chem Inc. Pittsburgh 
 -------------------------------------------------------
 ---------------------------------------
  Cycle       Energy         DIIS Error
 ---------------------------------------
    1   -1830.5194170454      1.76E-09
    2   -1830.5194170453      1.10E-08
    3   -1830.5194170458      5.77E-09 Convergence criterion met
 ---------------------------------------
 SCF time:  CPU 3.98 s  wall 2.10 s
 E(QM + QM/MM):    -1830.5194170458 E(MM):    2.1897740 E(Tot): -1828.329643075481 
 SCF   energy in the final basis set = -1828.32964308
 Total energy in the final basis set = -1828.32964308

 --------------------------------------------------------------

                    Orbital Energies (a.u.)
 --------------------------------------------------------------

 Alpha MOs
 -- Occupied --
******** -29.6377 -25.5973 -25.5851 -25.5809 -18.8975 -18.8826 -18.8787
-18.8786 -18.8663 -10.0662 -10.0558 -10.0475 -10.0455 -10.0314  -3.3226
 -2.1569  -2.1342  -2.1268  -1.0649  -1.0595  -1.0579  -1.0390  -1.0357
 -0.5763  -0.5328  -0.5220  -0.5148  -0.5109  -0.4566  -0.4465  -0.4432
 -0.4350  -0.4317  -0.4273  -0.4245  -0.4221  -0.4169  -0.4107  -0.4055
 -0.4044  -0.3963  -0.3930  -0.3816  -0.2790  -0.2710  -0.2358  -0.2245
 -- Virtual --
 -0.1053  -0.0913  -0.0908  -0.0835  -0.0807  -0.0679  -0.0598  -0.0549
 -0.0457  -0.0389  -0.0245   0.0111   0.1867   0.2135   0.2222   0.2553
  0.2965   0.3222   0.3608   0.3895   0.4072   0.4203   0.4225   0.4332
  0.4515   0.4757   0.4960   0.5064   0.5258   0.5580   0.5619   0.5972
  0.6127   0.6183   0.6302   0.6458   0.7379   0.7521   0.7575   0.7709
  0.7805   0.8289   0.8404   0.8643   0.8797   0.9061   0.9439   0.9542
  0.9728   0.9819   0.9856   0.9985   1.0107   1.0239   1.0306   1.0754
  1.1818   1.2530   1.2725   1.3307   1.3983   1.4059   1.4113   1.4125
  1.4197   1.4220   1.4308   1.4339   1.4563   1.4577   1.4688   1.4873
  1.5114   1.5317   1.5401   1.5494   1.6049   1.6447   1.6640   1.6763
  1.6816   1.8210   1.8290   1.8323   1.8381   1.8441   1.8487   1.8513
  1.8638   1.8709   1.8754   1.8780   1.8871   1.8995   1.9143   1.9520
  2.3391   2.4189   2.4218   2.4528   2.4606   2.4644   2.4727   2.4804
  2.5073   2.5133   2.6326   2.6424   2.6590   2.6675   2.6748   2.8013
  2.8235   2.9080   2.9166   2.9433  13.2595  13.2804  13.3134  13.3582
 13.4447  24.9111  24.9408  24.9508  24.9646  25.0149
 --------------------------------------------------------------

          Ground-State Mulliken Net Atomic Charges

     Atom                 Charge (a.u.)
  ----------------------------------------
      1 Fe                   -0.479949
      2 C                     0.212524
      3 C                     0.208918
      4 C                     0.225160
      5 C                     0.189695
      6 C                     0.222548
      7 O                    -0.103046
      8 O                    -0.101868
      9 O                    -0.126169
     10 O                    -0.145592
     11 O                    -0.102222
  ----------------------------------------
  Sum of atomic charges =     0.000000

 -----------------------------------------------------------------
                    Cartesian Multipole Moments
 -----------------------------------------------------------------
    Charge (ESU x 10^10)
                -0.0000
    Dipole Moment (Debye)
         X      -0.6068135576      Y      -0.0384868221      Z       0.3496775974
       Tot       0.7014116846
    Quadrupole Moments (Debye-Ang)
        XX    -139.8975     XY      -0.8804     YY     -69.9979
        XZ       7.9260     YZ      -2.0215     ZZ     -55.4605
    Octopole Moments (Debye-Ang^2)
       XXX  -18186.9253    XXY     229.5336    XYY   -4060.7079
       YYY     621.0838    XXZ   -1621.0083    XYZ     -89.1100
       YYZ   -1373.6156    XZZ   -3455.9576    YZZ     145.5958
       ZZZ   -3677.6403
    Hexadecapole Moments (Debye-Ang^3)
      XXXX ************   XXXY   41256.2987   XXYY -236401.6949
      XYYY   36040.7259   YYYY   -4306.2304   XXXZ -293187.3024
      XXYZ     407.4052   XYYZ  -79680.6565   YYYZ   12174.2023
      XXZZ -241353.2034   XYZZ    9017.7860   YYZZ  -27822.1404
      XZZZ -217681.2919   YZZZ   10602.6444   ZZZZ -150649.4997
 -----------------------------------------------------------------
 Calculating MO derivatives via CPSCF
 Full subspace dimension requested for CIS/TDDFT
 MAX_CIS_SUBSPACE fits in available memory
    1     0    36    0.0399622  
    2     0    36    0.0059947  
    3     0    36    0.0006159  
    4     1    35    0.0000459  
    5    34     2    0.0000015  
    6    36     0    0.0000000  Converged
 Time for AOints: 6.5 s (CPU) 3.3 s (wall)
 ------------------------------------------------------------------------------
                     AOints        : Timing summary (seconds)
 ------------------------------------------------------------------------------
     job step          cpu (% of tot)      sys (% of tot)     wall (% of tot)
 ------------------------------------------------------------------------------
  AOints            0.6484E+01 ( 3.6)   0.1300E-04 (10.3)   0.3307E+01 ( 3.6)
 ------------------------------------------------------------------------------
   Grand Totals     0.1822E+03          0.1260E-03          0.9181E+02
 ------------------------------------------------------------------------------
 Polarizability Matrix (a.u.)
            1           2           3
    1 -97.3214309   6.1091895   2.7951199
    2   6.1091895 -86.4569882  -6.8353886
    3   2.7951199  -6.8353886 -91.1983361
 Derivative of Dipole Moment Matrix (a.u.)
            1           2           3
    1  -1.8468403   0.0258985  -0.0579461
    2  -0.0221107  -1.8479973  -0.0107472
    3   0.0678662  -0.0856454  -1.9172286
    4   0.5343290  -0.3054639   0.3696128
    5  -0.3303599   1.2266771  -0.9300037
    6   0.3775608  -0.9161256   1.3397981
    7   1.4763586   0.1229678   0.9780585
    8   0.1988318   0.4187314   0.1095736
    9   1.0326832   0.0809282   1.2401266
   10   1.3305776   1.0910629  -0.0045089
   11   0.8646512   1.5926402  -0.0119021
   12   0.0713400   0.1249453   0.4547456
   13   0.9155950  -0.5069381  -0.5962739
   14  -0.5757486   1.0632404   0.7311756
   15  -0.5734899   0.5787490   1.0764627
   16   1.2142071  -0.5038146  -0.8195677
   17  -0.3819142   0.6740411   0.4071754
   18  -0.7463292   0.4551120   1.1126532
   19  -0.2568526   0.2189513  -0.2569402
   20   0.2642354  -0.8346143   0.7171311
   21  -0.3108283   0.7421794  -0.9152341
   22  -1.0360652  -0.0843380  -0.7523785
   23  -0.1519184  -0.1731579  -0.0990341
   24  -0.8497287  -0.0594969  -0.8464641
   25  -0.9050986  -0.8753969  -0.0032292
   26  -0.7092523  -1.0624163   0.0088388
   27  -0.1030617  -0.1229432  -0.1885913
   28  -0.5574411   0.4018736   0.4453408
   29   0.5011556  -0.7086860  -0.5877600
   30   0.4348272  -0.4546800  -0.6530330
   31  -0.8687696   0.4151974   0.6978324
   32   0.3424301  -0.3484583  -0.3344474
   33   0.5991602  -0.3430227  -0.7032351
 -----------------------------------------
 Net:  -0.00000  -0.00000  -0.00000
 -----------------------------------------

 Calculating analytic Hessian of the SCF energy
