                  Welcome to Q-Chem
     A Quantum Leap Into The Future Of Chemistry


 Q-Chem 5.4 (devel), Q-Chem, Inc., Pleasanton, CA (2021)

 E. Epifanovsky,  A. T. B. Gilbert,  Xintian Feng,  Joonho Lee,  Yuezhi Mao,  
 N. Mardirossian,  P. Pokhilko,  A. White,  M. Wormit,  M. P. Coons,  
 A. L. Dempwolff,  Zhengting Gan,  D. Hait,  P. R. Horn,  L. D. Jacobson,  
 I. Kaliman,  J. Kussmann,  A. W. Lange,  Ka Un Lao,  D. S. Levine,  Jie Liu,  
 S. C. McKenzie,  A. F. Morrison,  K. Nanda,  F. Plasser,  D. R. Rehn,  
 M. L. Vidal,  Zhi-Qiang You,  Ying Zhu,  B. Alam,  B. Albrecht,  
 A. Aldossary,  E. Alguire,  J. H. Andersen,  D. Barton,  K. Begam,  A. Behn,  
 Y. A. Bernard,  E. J. Berquist,  H. Burton,  A. Carreras,  K. Carter-Fenk,  
 R. Chakraborty,  A. D. Chien,  K. D. Closser,  V. Cofer-Shabica,  
 S. Dasgupta,  Jia Deng,  M. de Wergifosse,  M. Diedenhofen,  Hainam Do,  
 S. Ehlert,  Po-Tung Fang,  S. Fatehi,  Qingguo Feng,  T. Friedhoff,  
 J. Gayvert,  Qinghui Ge,  G. Gidofalvi,  M. Goldey,  J. Gomes,  
 C. Gonzalez-Espinoza,  S. Gulania,  A. Gunina,  M. W. D. Hanson-Heine,  
 P. H. P. Harbach,  A. W. Hauser,  M. F. Herbst,  M. Hernandez Vera,  
 M. Hodecker,  Z. C. Holden,  S. Houck,  Xunkun Huang,  Kerwin Hui,  
 B. C. Huynh,  M. Ivanov,  Hyunjun Ji,  Hanjie Jiang,  B. Kaduk,  S. Kaehler,  
 K. Khistyaev,  Jaehoon Kim,  P. Klunzinger,  Z. Koczor-Benda,  
 Joong Hoon Koh,  D. Kosenkov,  L. Koulias,  T. Kowalczyk,  C. M. Krauter,  
 K. Kue,  A. Kunitsa,  T. Kus,  A. Landau,  K. V. Lawler,  D. Lefrancois,  
 S. Lehtola,  Rain Li,  Yi-Pei Li,  Jiashu Liang,  M. Liebenthal,  
 Hung-Hsuan Lin,  You-Sheng Lin,  Fenglai Liu,  Kuan-Yu Liu,  
 M. Loipersberger,  A. Luenser,  A. Manjanath,  P. Manohar,  E. Mansoor,  
 S. F. Manzer,  Shan-Ping Mao,  A. V. Marenich,  T. Markovich,  S. Mason,  
 S. A. Maurer,  P. F. McLaughlin,  M. F. S. J. Menger,  J.-M. Mewes,  
 S. A. Mewes,  P. Morgante,  J. W. Mullinax,  K. J. Oosterbaan,  G. Paran,  
 Alexander C. Paul,  Suranjan K. Paul,  F. Pavosevic,  Zheng Pei,  S. Prager,  
 E. I. Proynov,  E. Ramos,  B. Rana,  A. E. Rask,  A. Rettig,  R. M. Richard,  
 F. Rob,  E. Rossomme,  T. Scheele,  M. Scheurer,  M. Schneider,  
 N. Sergueev,  S. M. Sharada,  W. Skomorowski,  D. W. Small,  C. J. Stein,  
 Yu-Chuan Su,  E. J. Sundstrom,  Zhen Tao,  J. Thirman,  T. Tsuchimochi,  
 N. M. Tubman,  S. P. Veccham,  O. Vydrov,  J. Wenzel,  J. Witte,  A. Yamada,  
 Kun Yao,  S. Yeganeh,  S. R. Yost,  A. Zech,  Igor Ying Zhang,  Xing Zhang,  
 Yu Zhang,  D. Zuev,  A. Aspuru-Guzik,  A. T. Bell,  N. A. Besley,  
 K. B. Bravaya,  B. R. Brooks,  D. Casanova,  Jeng-Da Chai,  S. Coriani,  
 C. J. Cramer,  A. E. DePrince, III,  R. A. DiStasio Jr.,  A. Dreuw,  
 B. D. Dunietz,  T. R. Furlani,  W. A. Goddard III,  S. Grimme,  
 S. Hammes-Schiffer,  T. Head-Gordon,  W. J. Hehre,  Chao-Ping Hsu,  
 T.-C. Jagau,  Yousung Jung,  A. Klamt,  Jing Kong,  D. S. Lambrecht,  
 WanZhen Liang,  N. J. Mayhall,  C. W. McCurdy,  J. B. Neaton,  
 C. Ochsenfeld,  J. A. Parkhill,  R. Peverati,  V. A. Rassolov,  Yihan Shao,  
 L. V. Slipchenko,  T. Stauch,  R. P. Steele,  J. E. Subotnik,  
 A. J. W. Thom,  A. Tkatchenko,  D. G. Truhlar,  T. Van Voorhis,  
 T. A. Wesolowski,  K. B. Whaley,  H. L. Woodcock III,  P. M. Zimmerman,  
 S. Faraji,  P. M. W. Gill,  M. Head-Gordon,  J. M. Herbert,  A. I. Krylov

 Additional authors for Version 5.4.1: 
 S. Kotaru,  Shaozhi Li,  Xiangyuan Li,  F. Matz,  A. Molle,  Haisheng Ren,  
 Yingli Su,  Hung-Yi Tsai,  C. Utku,  Fang Wang

 Contributors to earlier versions of Q-Chem not listed above: 
 R. D. Adamson,  B. Austin,  R. Baer,  J. Baker,  G. J. O. Beran,  
 K. Brandhorst,  S. T. Brown,  E. F. C. Byrd,  A. K. Chakraborty,  
 G. K. L. Chan,  Chun-Min Chang,  Yunqing Chen,  C.-L. Cheng,  
 Siu Hung Chien,  D. M. Chipman,  D. L. Crittenden,  H. Dachsel,  
 R. J. Doerksen,  A. D. Dutoi,  R. G. Edgar,  J. Fosso-Tande,  
 L. Fusti-Molnar,  D. Ghosh,  A. Ghysels,  A. Golubeva-Zadorozhnaya,  
 J. Gonthier,  M. S. Gordon,  S. R. Gwaltney,  G. Hawkins,  J. E. Herr,  
 A. Heyden,  S. Hirata,  E. G. Hohenstein,  G. Kedziora,  F. J. Keil,  
 C. Kelley,  Jihan Kim,  R. A. King,  R. Z. Khaliullin,  P. P. Korambath,  
 W. Kurlancheek,  A. Laurent,  A. M. Lee,  M. S. Lee,  S. V. Levchenko,  
 Ching Yeh Lin,  D. Liotard,  E. Livshits,  R. C. Lochan,  I. Lotan,  
 L. A. Martinez-Martinez,  P. E. Maslen,  N. Nair,  D. P. O'Neill,  
 D. Neuhauser,  E. Neuscamman,  C. M. Oana,  R. Olivares-Amaya,  R. Olson,  
 T. M. Perrine,  B. Peters,  P. A. Pieniazek,  A. Prociuk,  Y. M. Rhee,  
 J. Ritchie,  M. A. Rohrdanz,  E. Rosta,  N. J. Russ,  H. F. Schaefer III,  
 M. W. Schmidt,  N. E. Schultz,  S. Sharma,  N. Shenvi,  C. D. Sherrill,  
 A. C. Simmonett,  A. Sodt,  T. Stein,  D. Stuck,  K. S. Thanthiriwatte,  
 V. Vanovschi,  L. Vogt,  Tao Wang,  A. Warshel,  M. A. Watson,  
 C. F. Williams,  Q. Wu,  X. Xu,  Jun Yang,  W. Zhang,  Yan Zhao

 Please cite Q-Chem as follows:
 Y. Shao et al., Mol. Phys. 113, 184-215 (2015)
 DOI: 10.1080/00268976.2014.952696

 Q-Chem 5.4.1 for Intel X86 EM64T Linux

 Parts of Q-Chem use Armadillo 9.900.5 (Nocturnal Misbehaviour).
 http://arma.sourceforge.net/

 Q-Chem begins on Wed Jun 22 16:41:24 2022  

 Host: p09r14n13.grace.hpc.yale.internal
0

     Scratch files written to /home/tl686/scratch60/qchem_dev/scratch/qchem247285//
 Processing $rem in /home/tl686/qchem_dev/qchem/config/preferences:
 Processing $rem in /home/tl686/.qchemrc:
Applying user defined connections for MM calculations

 Checking the input file for inconsistencies... 	...done.

--------------------------------------------------------------
User input:
--------------------------------------------------------------
$molecule
0   1
 Fe -23.14340987 18.94896772 40.66993025    -1  0   0   0   0
C -21.50572634 15.98155208 41.13569713    -2  0   0   0   0 
C -24.32180308 22.16370012 40.75561572    -2  0   0   0   0
C -22.20833690 19.37395278 43.93958619    -2  0   0   0   0
C -21.04185952 19.68843367 38.29695998    -2  0   0   0   0
C -25.86566767 17.05001090 39.68900818    -2  0   0   0   0
O -20.44340376 14.13769148 41.85435804    -3  0   0   0   0
O -24.92500800 24.29766259 40.86522400    -3  0   0   0   0 
O -21.92057410 19.89499645 46.03482376    -3  0   0   0   0
O -19.81487498 20.42358785 36.59290362    -3  0   0   0   0 
O -27.85635189 16.16130648 38.96942632    -3  0   0   0   0
H 0.99547879 -0.04575289 45.40148806      6     13    0    0    0 
C -0.51490406 -1.37460033 44.82443384     1     12    14    15    16
H -0.24758156 -3.33390182 45.13742420     6     13    0    0    0
H -2.00292159 -0.59521036 45.90483309     6     13    0    0    0
C -0.92034942 -1.10581053 41.99228477     2     13    17    18    19
H 0.88562290 -1.50986253 40.91006481     6     16    0    0    0
H -2.29133183 -2.54230757 41.46790658     6     16    0    0    0
C -1.92783588 1.31909503 41.01437266     2     16    20   21   22
H -3.64749591 1.51070385 42.05729354     6     19    0    0    0
H -0.65460886 2.77496142 41.51832428     6     19    0    0    0
C -2.54894572 1.28218750 38.15037739     2     19   23   24   25
H -0.77003123 1.67404802 37.22710236     6    22    0    0    0
H -3.25562084 -0.56440239 37.56508948     6    22    0    0    0
C -4.42128244 3.31576226 37.20897098     2    22   26   27   28
H -5.81941546 3.70965346 38.62033992     6    25    0    0    0
H -3.49232894 5.22302551 36.97221014     6    25    0    0    0
C -5.67367530 2.48127906 34.69535143     2    25   29   30   31
H -4.24629667 1.63947517 33.41090718     6    28    0    0    0
H -6.99532793 1.01443199 35.19655251     6    28    0    0    0
C -6.91751418 4.83133257 33.60488251     2    28   32   33   34
H -8.08272889 5.74507506 35.06215994     6    31    0    0    0
H -5.68778030 6.29655848 32.94271071     6    31    0    0    0
C -8.51925369 4.07081004 31.41442590     2    31   35   36   37
H -7.21027953 2.92864529 30.33109267     6    34    0    0    0
H -9.96216745 2.63892690 31.95136604     6    34    0    0    0
C -9.31192400 6.31084517 29.81708830     2    34   38   39   40
H -10.10587152 7.94532182 30.80441167     6    37    0    0    0
H -7.40563327 6.99501292 29.04427586     6    37    0    0    0
C -10.98134567 5.26234098 27.75552711     2    37   41   42   43
H -10.04125362 3.62872330 26.64645711     6    40    0    0    0
H -12.64473174 4.28136474 28.57334874     6    40    0    0    0
C -11.94981878 7.28387407 26.05139427     2    40   44   45   46
H -12.58587580 8.77599530 27.40465064     6    43    0    0    0
H -10.30863061 7.96409385 25.14453673     6    43    0    0    0
C -13.68421909 6.17340702 24.00386625     1    43   47   48   49
H -12.65426323 4.78464581 22.80645071     6    46    0    0    0
H -14.24920423 7.63014170 22.70637591     6    46    0    0    0
H -15.22687827 5.04518319 24.68632015     6    46    0    0    0
H -22.65323300 10.64916567 33.84574016     6     51    0    0    0 
C -22.59280561 12.50084033 34.66238986     1     50    52    53    54
H -23.73866006 13.87412909 33.52378003     6     51    0    0    0
H -23.08975577 12.18537445 36.57561015     6     51    0    0    0
C -19.84183097 13.62036249 34.60099452     2     51    55    56    57
H -19.56299091 14.68842744 36.33873965     6     54    0    0    0
H -18.43704743 12.11131575 34.83298379     6     54    0    0    0
C -19.16050936 15.02244776 32.15044440     2     54    58   59   60
H -20.40444047 16.61378891 32.13313793     6     57    0    0    0
H -17.24621491 15.55498005 32.25954424     6     57    0    0    0
C -19.71012542 13.26613002 29.79209304     2     57   61   62   63
H -19.27987489 11.38807583 30.35889239     6    60    0    0    0
H -21.66532113 13.56105967 29.21477641     6    60    0    0    0
C -17.95912188 14.04850588 27.62348851     2    60   64   65   66
H -18.03415982 16.00857933 26.71737961     6    63    0    0    0
H -16.04863072 14.14849186 28.44415262     6    63    0    0    0
C -18.12251448 12.25396502 25.31782309     2    63   67   68   69
H -16.62558242 12.76458266 23.95424947     6    66    0    0    0
H -17.76375604 10.38742276 26.04894603     6    66    0    0    0
C -20.56243936 12.47956766 23.71959990     2    66   70   71   72
H -22.40922036 12.33647122 24.78624230     6    69    0    0    0
H -20.53516315 14.42396484 22.97003931     6    69    0    0    0
C -20.51985739 10.65909025 21.36698989     2    69   73   74   75
H -19.27911953 11.60810928 20.01856448     6    72    0    0    0
H -19.56471467 8.91022173 21.87880214     6    72    0    0    0
C -23.25036364 10.21521449 20.48553964     2    72   76   77   78
H -24.70884917 9.67316402 21.93499716     6    75    0    0    0
H -23.85810597 12.15585834 19.99834046     6    75    0    0    0
C -23.36938534 8.45660806 18.21368494     2    75   79   80   81
H -21.97378641 9.34195743 16.75727145     6    78    0    0    0
H -22.86029482 6.62730743 18.75809592     6    78    0    0    0
C -26.02207281 8.49761592 17.22027031     2    78   82   83   84
H -27.41941444 7.50770014 18.51497875     6    81    0    0    0
H -26.75364799 10.42783066 16.94512190     6    81    0    0    0
C -26.16973122 7.52823911 14.48891668     1    81   85   86   87
H -28.15223855 7.05051280 13.95698039     6    84    0    0    0
H -25.24397582 5.68570832 14.20383491     6    84    0    0    0
H -25.33023182 8.61183612 12.97426662     6    84    0    0    0
H 9.80315587 13.77522625 30.13943542     6     89    0    0    0 
C 9.56977421 12.12412415 28.96030447     1     88    90    91    92
H 11.34005892 11.92843891 27.92813163     6     89    0    0    0
H 9.17613042 10.60965619 30.38917272     6     89    0    0    0
C 7.23391264 12.77648712 27.47724129     2     89    93    94    95
H 5.53891292 12.61230813 28.59784136     6     92    0    0    0
H 7.28346854 14.79174010 27.04697267     6     92    0    0    0
C 7.06983829 11.30672224 25.05297234     2     92    96   97   98
H 8.98477672 11.10998050 24.26608883     6     95    0    0    0
H 6.12068323 9.46423333 25.12391607     6     95    0    0    0
C 5.56132538 12.73144163 23.00231184     2     95   99   100   101
H 3.70520538 13.21363653 23.75257096     6    98    0    0    0
H 6.78232535 14.41858592 22.55871233     6    98    0    0    0
C 5.52570998 11.02472181 20.56075188     2    98   102   103   104
H 7.47338784 10.54657815 19.82438874     6    101    0    0    0
H 4.57959764 9.18561941 21.02848657     6    101    0    0    0
C 3.83242910 12.03650118 18.44174760     2    101   105   106   107
H 1.86170515 11.93080135 19.06733385     6    104    0    0    0
H 4.54967759 13.95120193 18.33938102     6    104    0    0    0
C 4.27675968 10.64356579 15.77592390     2    104   108   109   110
H 2.98430269 11.70313526 14.48107943     6    107    0    0    0
H 6.24099262 10.71328920 15.11557211     6    107    0    0    0
C 3.12548338 7.95343186 15.71006648     2    107   111   112   113
H 4.25542979 6.84114197 16.80639655     6    110    0    0    0
H 1.20539998 7.87409956 16.48697209     6    110    0    0    0
C 2.93612312 6.93329151 13.02819855     2    110   114   115   116
H 1.50376478 7.92039574 11.82025065     6    113    0    0    0
H 4.59622676 7.43321438 11.90847287     6    113    0    0    0
C 2.49391337 3.94397015 13.16021015     2    113   117   118   119
H 3.33400384 2.72196643 14.58158213     6    116    0    0    0
H 0.50782504 3.54994229 13.55586331     6    116    0    0    0
C 3.37844776 2.71874940 10.60769184     2    116   120   121   122
H 2.57639071 0.79341538 10.22195718     6    119    0    0    0
H 2.89541592 3.97753674 9.06038117     6    119    0    0    0
C 6.28107338 2.30784590 10.14028686     1    119   123   124   125
H 6.52774222 1.59527754 8.22304955     6    122    0    0    0
H 6.89133690 1.09707281 11.65603762     6    122    0    0    0
H 7.28386248 4.03789969 10.27475249     6    122    0    0    0
H 1.73648984 28.87156329 41.49275668     6     127    0    0    0 
C 2.52953782 27.19996151 42.40772028     1     126    128    129    130
H 2.93889479 25.46480345 41.18589782     6     127    0    0    0
H 4.02942110 27.99703635 43.32442412     6     127    0    0    0
C 0.57464980 26.26901679 44.27705903     2     127    131    132    133
H -0.40322590 24.66898256 43.25226094     6     130    0    0    0
H 1.51237906 25.22195173 45.80391364     6     130    0    0    0
C -1.24287833 28.23108245 45.62188755     2     130    134   135   136
H -0.29343605 29.97156272 46.35031798     6     133    0    0    0
H -2.39546837 29.06158555 44.12763913     6     133    0    0    0
C -2.96062751 27.13370772 47.66451809     2     133   137   138   139
H -4.30768514 25.89372375 46.70085318     6    136    0    0    0
H -1.86322219 26.26916353 49.07077093     6    136    0    0    0
C -4.52156911 29.05227043 49.31504217     2    136   140   141   142
H -3.58148802 30.82506944 49.81578058     6    139    0    0    0
H -6.06693109 29.72093468 48.08692610     6    139    0    0    0
C -5.41673438 28.02566059 51.92826643     2    139   143   144   145
H -6.31083437 26.15370734 51.93640648     6    142    0    0    0
H -3.77835824 27.78722149 53.12412406     6    142    0    0    0
C -7.09280813 30.12266096 53.17576023     2    142   146   147   148
H -6.22275597 31.93441518 53.33764013     6    145    0    0    0
H -8.81243453 30.63290040 52.23897512     6    145    0    0    0
C -7.97972879 29.19284077 55.76240375     2    145   149   150   151
H -9.11329928 27.60026949 55.40199286     6    148    0    0    0
H -6.39423463 28.43805916 56.73281618     6    148    0    0    0
C -9.49514427 31.24119190 57.27138098     2    148   152   153   154
H -8.02139631 32.72775222 57.65447582     6    151    0    0    0
H -11.11327720 31.70574395 55.94681936     6    151    0    0    0
C -10.48199985 30.28185941 59.82881221     2    151   155   156   157
H -11.25949691 28.42315953 59.51371967     6    154    0    0    0
H -8.85662143 30.13519601 61.06380938     6    154    0    0    0
C -12.55671068 31.94925929 60.89625205     2    154   158   159   160
H -11.69566648 33.71428306 61.20128844     6    157    0    0    0
H -14.21278082 32.06067635 59.49637403     6    157    0    0    0
C -13.54281486 31.16071238 63.47034103     1    157   161   162   163
H -14.87751231 32.44668739 64.27476263     6    160    0    0    0
H -11.97167859 30.85854205 64.71760461     6    160    0    0    0
H -14.81880950 29.52941543 63.35514404     6    160    0    0    0
H 0.54629064 45.42825052 33.07290316     6     165    0    0    0 
C 1.23902659 44.83337043 34.84597516     1     164    166    167    168
H 1.81403464 42.92536593 34.50533380     6     165    0    0    0
H 2.86432411 45.99540083 35.35882951     6     165    0    0    0
C -0.30720729 45.06337810 37.24180793     2     165    169    170    171
H -0.97237759 46.97410750 37.27338966     6     168    0    0    0
H -1.82542094 43.61710929 37.02672209     6     168    0    0    0
C 1.33290708 44.24010722 39.58215309     2     168    172   173   174
H 2.22732213 42.37508991 39.37529432     6     171    0    0    0
H 2.85377884 45.63756889 39.62379568     6     171    0    0    0
C 0.03535931 44.46059823 42.20922706     2     171   175   176   177
H -0.44324690 46.42319834 42.38092197     6    174    0    0    0
H -1.65851312 43.30329837 41.97528898     6    174    0    0    0
C 1.58565770 43.48043420 44.33180071     2    174   178   179   180
H 1.77557401 41.52483323 43.84565939     6    177    0    0    0
H 3.41296123 44.36039260 44.49620539     6    177    0    0    0
C 0.13153612 43.69607389 46.79206714     2    177   181   182   183
H 0.19121197 45.74013618 47.07393989     6    180    0    0    0
H -1.73056340 42.81100320 46.40129339     6    180    0    0    0
C 1.50752248 42.50751165 49.06427100     2    180   184   185   186
H 1.32516104 40.47687687 48.92887560     6    183    0    0    0
H 3.41908470 43.15162575 49.35619507     6    183    0    0    0
C 0.00701834 43.02502747 51.46869298     2    183   187   188   189
H -0.24527579 44.87751173 51.98066024     6    186    0    0    0
H -1.78033376 42.43044818 51.12131559     6    186    0    0    0
C 1.15306057 41.68478239 53.89059765     2    186   190   191   192
H 1.80251397 39.73518924 53.76413008     6    189    0    0    0
H 2.65425998 43.10733474 54.50705707     6    189    0    0    0
C -0.91391138 41.44322433 55.94020420     2    189   193   194   195
H -1.45759578 43.35007732 56.76972154     6    192    0    0    0
H -2.57178962 40.39563001 55.30684333     6    192    0    0    0
C 0.04351654 40.02835163 58.18936074     2    192   196   197   198
H 0.63914649 38.19668291 57.34323729     6    195    0    0    0
H 1.85442219 40.66131156 59.12266161     6    195    0    0    0
C -2.03399349 39.42744047 60.13447245     1    195   199   200   201
H -1.31530076 38.26765036 61.76176648     6    198    0    0    0
H -3.40135064 38.28052549 59.25378965     6    198    0    0    0
H -3.08582472 40.94261489 60.92955300     6    198    0    0    0
H -10.77029881 35.30045091 27.69686433     6     203    0    0    0 
C -10.70393519 33.29732357 27.66737012     1     202    204    205    206
H -10.77921861 32.59497892 29.63249193     6     203    0    0    0
H -12.20211616 32.63216895 26.34791338     6     203    0    0    0
C -8.16187110 32.69644563 26.33724486     2     203    207    208    209
H -6.85162958 34.34301577 26.81802063     6     206    0    0    0
H -7.39312463 31.19254712 27.31395314     6     206    0    0    0
C -8.06538807 32.15785913 23.43478373     2     206    210   211   212
H -6.06957516 32.15000606 23.00709057     6     209    0    0    0
H -8.82845901 30.29282914 23.17327891     6     209    0    0    0
C -9.74495883 33.68498125 21.69580697     2     209   213   214   215
H -11.64556386 33.79336278 22.42021646     6    212    0    0    0
H -9.14838880 35.52122962 21.72948121     6    212    0    0    0
C -9.95128187 32.63221084 18.96524169     2    212   216   217   218
H -8.00076903 32.10075570 18.54770166     6    215    0    0    0
H -11.20585820 31.06059486 18.75225997     6    215    0    0    0
C -10.97221570 34.56656081 17.17929521     2    215   219   220   221
H -12.74439883 35.07552466 18.11264056     6    218    0    0    0
H -9.63569118 36.17682665 17.17152989     6    218    0    0    0
C -11.38017942 33.64890084 14.49647124     2    218   222   223   224
H -9.71415401 32.95993254 13.53972020     6    221    0    0    0
H -12.53998155 32.03378382 14.52453483     6    221    0    0    0
C -12.34866042 35.75656921 12.71349453     2    221   225   226   227
H -11.12329192 37.51679552 12.66359897     6    224    0    0    0
H -12.22858127 34.97629970 10.79747598     6    224    0    0    0
C -14.93728820 36.88714232 13.30252740     2    224   228   229   230
H -16.18625163 35.26401252 13.74098842     6    227    0    0    0
H -14.72239474 38.06393563 15.04060818     6    227    0    0    0
C -16.11780369 38.58027015 11.36550722     2    227   231   232   233
H -15.03746523 40.10462560 10.82546467     6    230    0    0    0
H -16.53855321 37.31840777 9.67145028     6    230    0    0    0
C -18.57734152 39.80717824 12.37003043     2    230   234   235   236
H -19.94024601 38.59859271 13.26234739     6    233    0    0    0
H -17.84630369 41.27860260 13.74738010     6    233    0    0    0
C -19.93888634 41.09592836 10.17601379     1    233   237   238   239
H -18.54064624 41.72822258 8.69328950     6    236    0    0    0
H -21.07964077 42.63216772 10.74744140     6    236    0    0    0
H -21.36498357 39.68347898 9.18139561     6    236    0    0    0
H -16.54583236 11.05900145 14.54682179     6     241    0    0    0 
C -14.83602859 11.59014761 15.43051517     1     240    242    243    244
H -14.23801049 13.45638175 14.66928085     6     241    0    0    0
H -15.22376291 11.79820989 17.48770327     6     241    0    0    0
C -12.77591452 9.58866746 15.06770463     2     241    245    246    247
H -12.37520211 9.17299251 13.01705120     6     244    0    0    0
H -10.90339587 10.32954294 15.55149201     6     244    0    0    0
C -13.21190951 7.08322300 16.36979037     2     244    248   249   250
H -11.46651878 6.05838704 16.49334183     6     247    0    0    0
H -13.43697102 7.26978272 18.43420852     6     247    0    0    0
C -15.14321251 5.19825616 15.21404000     2     247   251   252   253
H -14.75008326 3.54703295 16.12630445     6    250    0    0    0
H -17.11689630 5.72089505 15.89588188     6    250    0    0    0
C -15.05827923 4.57944881 12.30790208     2    250   254   255   256
H -14.62003351 6.25636212 11.17318170     6    253    0    0    0
H -13.45245887 3.33987403 12.10601353     6    253    0    0    0
C -17.30547695 3.25736635 11.26365910     2    253   257   258   259
H -16.56276203 2.43232203 9.49259134     6    256    0    0    0
H -17.81119929 1.80603283 12.62244571     6    256    0    0    0
C -19.69613897 5.00402525 10.61519940     2    256   260   261   262
H -20.61620419 5.71871699 12.21274093     6    259    0    0    0
H -18.88493776 6.60661347 9.56136109     6    259    0    0    0
C -21.58739826 3.46829232 9.17326406     2    259   263   264   265
H -20.67922119 2.57648260 7.60460919     6    262    0    0    0
H -22.31530739 1.83565080 10.29171088     6    262    0    0    0
C -23.82886101 5.00854224 8.14357885     2    262   266   267   268
H -25.39665697 5.36953677 9.51864324     6    265    0    0    0
H -23.14802419 6.85268095 7.63068300     6    265    0    0    0
C -25.12251210 3.87881130 5.80751575     2    265   269   270   271
H -23.85036853 3.43539900 4.22536526     6    268    0    0    0
H -26.05632994 2.07184207 6.15598076     6    268    0    0    0
C -26.94280791 5.77364216 4.64070149     2    268   272   273   274
H -28.63500463 5.90677568 5.84396152     6    271    0    0    0
H -26.20988140 7.69126808 4.69358545     6    271    0    0    0
C -27.73242003 4.88694117 1.92382981     1    271   275   276   277
H -26.72720427 5.41170843 0.24313402     6    274    0    0    0
H -29.35373324 6.04623825 1.46872787     6    274    0    0    0
H -28.30249147 2.82215366 1.88906127     6    274    0    0    0
H -2.09623687 31.43340562 19.78239152     6     279    0    0    0 
C -2.51759290 29.83555594 18.56683030     1     278    280    281    282
H -3.68489554 30.53662240 17.06319484     6     279    0    0    0
H -0.61313649 29.40753705 17.73257647     6     279    0    0    0
C -3.55708924 27.66972351 20.18920672     2     279    283    284    285
H -2.00732265 26.65224067 20.85677906     6     282    0    0    0
H -4.67244596 28.35223547 21.72908830     6     282    0    0    0
C -5.03895580 25.79420186 18.46639856     2     282    286   287   288
H -3.97440683 25.43812103 16.71964788     6     285    0    0    0
H -5.15951700 23.86701720 19.35118836     6     285    0    0    0
C -7.59827516 26.81734123 17.68536443     2     285   289   290   291
H -8.60906878 27.37306007 19.28406020     6    288    0    0    0
H -7.06487936 28.37376362 16.60252818     6    288    0    0    0
C -8.84119327 25.17914028 15.82592806     2    288   292   293   294
H -7.71207516 24.65372763 14.18164395     6    291    0    0    0
H -9.22643909 23.23936753 16.51768194     6    291    0    0    0
C -11.40094972 26.37987230 15.11385663     2    291   295   296   297
H -12.43104477 26.55181977 16.91804111     6    294    0    0    0
H -11.22019463 28.24939794 14.46350884     6    294    0    0    0
C -13.12976638 24.81926981 13.36805648     2    294   298   299   300
H -12.36987352 24.66301910 11.40261993     6    297    0    0    0
H -13.20476312 22.85375505 13.90816782     6    297    0    0    0
C -15.74229844 25.95272836 13.28226225     2    297   301   302   303
H -16.65176989 25.98493987 15.26062982     6    300    0    0    0
H -15.62802229 27.88608170 12.77825628     6    300    0    0    0
C -17.55396574 24.49762954 11.42657168     2    300   304   305   306
H -16.92278071 24.82058999 9.51801283     6    303    0    0    0
H -17.33760998 22.42052743 11.69801505     6    303    0    0    0
C -20.36257456 25.25761762 11.48787530     2    303   307   308   309
H -21.46008570 24.26324474 12.96145238     6    306    0    0    0
H -20.49883070 27.16952557 12.07064801     6    306    0    0    0
C -21.63323216 24.83897962 8.92922113     2    306   310   311   312
H -20.42772953 25.86749628 7.51720628     6    309    0    0    0
H -21.80738864 22.77554123 8.62072091     6    309    0    0    0
C -24.37305429 26.19111837 8.89553772     1    309   313   314   315
H -24.12628794 28.14465913 9.66109231     6    312    0    0    0
H -25.78352755 25.03314728 9.83755175     6    312    0    0    0
H -24.78416491 26.28364952 6.99600611     6    312    0    0    0
H -0.80048522 19.94120545 32.55089100     6     317    0    0    0 
C -2.27177199 18.51833892 32.57764932     1     316    318    319    320
H -4.01587680 19.74610573 32.58980450     6     317    0    0    0
H -2.20007876 17.58292058 30.72082457     6     317    0    0    0
C -2.33675615 16.73217654 35.00671085     2     317    321    322    323
H -3.97029649 15.64771306 34.83777094     6     320    0    0    0
H -0.71240680 15.42315126 35.07805273     6     320    0    0    0
C -2.54734717 18.23149592 37.61072111     2     320    324   325   326
H -0.67967823 18.85018484 38.27688841     6     323    0    0    0
H -3.74958392 19.91921847 37.32169239     6     323    0    0    0
C -3.76256601 16.97563854 39.92286657     2     323   327   328   329
H -5.59274089 16.10585911 39.41545397     6    326    0    0    0
H -2.62614294 15.48842256 40.84045769     6    326    0    0    0
C -4.33979848 19.06083942 41.96175907     2    326   330   331   332
H -2.93854736 20.49004285 42.30485691     6    329    0    0    0
H -6.22417725 19.88320917 41.37256797     6    329    0    0    0
C -4.83395737 17.80799650 44.52206055     2    329   333   334   335
H -3.40944624 16.51284624 45.26878106     6    332    0    0    0
H -4.71573082 19.38926739 45.87605989     6    332    0    0    0
C -7.44010511 16.57637137 44.86553523     2    332   336   337   338
H -8.86009739 17.97158647 44.09738620     6    335    0    0    0
H -7.57221839 14.86288123 43.73924215     6    335    0    0    0
C -7.89424137 15.91025698 47.49903971     2    335   339   340   341
H -9.38307837 14.53634568 47.65444870     6    338    0    0    0
H -6.21680776 15.14729504 48.33043289     6    338    0    0    0
C -9.02648139 18.21307398 48.89028761     2    338   342   343   344
H -7.94967032 19.94403718 48.47887083     6    341    0    0    0
H -11.03489697 18.41668918 48.29423135     6    341    0    0    0
C -8.85593316 17.40679980 51.70983192     2    341   345   346   347
H -10.27313127 15.91501568 51.98582417     6    344    0    0    0
H -6.91215587 16.63617215 52.14296796     6    344    0    0    0
C -9.31754905 19.77312551 53.39387310     2    344   348   349   350
H -7.62436721 21.03156224 53.26502022     6    347    0    0    0
H -10.97562661 20.80711065 52.69510041     6    347    0    0    0
C -9.57208557 19.10589473 56.18024037     1    347   351   352   353
H -10.00538912 20.79944747 57.30862652     6    350    0    0    0
H -7.61838331 18.47212888 56.79877283     6    350    0    0    0
H -11.05620237 17.64392372 56.53494117     6    350    0    0    0
H -10.43801368 11.99991714 19.96206993     6     355    0    0    0 
C -10.07168601 13.29995699 21.37672233     1     354    356    357    358
H -11.71712203 14.32565912 21.67575804     6     355    0    0    0
H -9.90673416 11.92299777 22.94607502     6     355    0    0    0
C -7.49223059 14.57501717 21.03522064     2     355    359    360    361
H -6.25891598 13.07014598 20.27169957     6     358    0    0    0
H -7.59903487 16.10772327 19.63941625     6     358    0    0    0
C -6.45783660 15.56080266 23.50679554     2     358    362   363   364
H -7.85201555 16.67861895 24.68292653     6     361    0    0    0
H -5.94696335 13.84119472 24.59148102     6     361    0    0    0
C -4.03213334 17.07231157 23.07566698     2     361   365   366   367
H -2.88303407 15.95023747 21.88310111     6    364    0    0    0
H -4.46076292 18.88357826 22.23523353     6    364    0    0    0
C -2.65303492 17.67825160 25.45649966     2    364   368   369   370
H -3.77516408 19.05525892 26.54628180     6    367    0    0    0
H -2.52673229 15.88687345 26.43581731     6    367    0    0    0
C -0.01887552 18.88336390 24.81055478     2    367   371   372   373
H 1.22510593 17.84890782 23.56617148     6    370    0    0    0
H -0.31838433 20.52642700 23.47030333     6    370    0    0    0
C 1.33306385 20.05945897 27.05835942     2    370   374   375   376
H 0.16613460 21.49143348 27.89508617     6    373    0    0    0
H 1.58473502 18.63536829 28.52463431     6    373    0    0    0
C 3.86321375 21.34551313 26.25076010     2    373   377   378   379
H 5.08560749 19.71674257 25.78643335     6    376    0    0    0
H 3.72005994 22.69683836 24.70379381     6    376    0    0    0
C 5.19027404 22.62934341 28.65598951     2    376   380   381   382
H 5.49516625 21.22733204 30.06233624     6    379    0    0    0
H 7.09003145 23.13826512 28.12541178     6    379    0    0    0
C 3.91016216 24.98865683 29.65008812     2    379   383   384   385
H 4.17383801 26.68541354 28.33290720     6    382    0    0    0
H 1.87274897 24.58456037 30.01478517     6    382    0    0    0
C 4.89611204 25.70654307 32.26417185     2    382   386   387   388
H 3.60270166 26.99005302 33.14547594     6    385    0    0    0
H 5.06496293 24.14046324 33.40163711     6    385    0    0    0
C 7.49526062 27.12009954 32.12411967     1    385   389   390   391
H 7.08240128 28.98300001 31.52678890     6    388    0    0    0
H 8.95203436 26.15520116 30.95620560     6    388    0    0    0
H 8.28799582 27.56367869 33.99246575     6    388    0    0    0
H -28.88576374 13.85383353 62.35911961     6     393    0    0    0 
C -30.41802556 12.73747346 61.57862302     1     392    394    395    396
H -31.39719100 11.66266093 63.03806691     6     393    0    0    0
H -31.79193599 14.15006803 60.83494526     6     393    0    0    0
C -29.37095604 11.08198309 59.51883379     2     393    397    398    399
H -27.90528006 12.17050613 58.52615246     6     396    0    0    0
H -28.30436070 9.47355139 60.24700984     6     396    0    0    0
C -31.22417244 10.06824398 57.59810426     2     396    400   401   402
H -32.76288185 9.19895262 58.73325549     6     399    0    0    0
H -32.05013602 11.72453006 56.50758181     6     399    0    0    0
C -30.49371524 8.16308492 55.39096506     2     399   403   404   405
H -28.90888331 9.14210555 54.45757348     6    402    0    0    0
H -29.94944976 6.28332544 55.93429262     6    402    0    0    0
C -32.32528212 7.73447429 53.26605152     2    402   406   407   408
H -34.23089790 7.15960767 54.03335022     6    405    0    0    0
H -32.81604448 9.48368721 52.32019031     6    405    0    0    0
C -31.17060877 5.86016782 51.22391646     2    405   409   410   411
H -29.35437543 6.62568054 50.46871578     6    408    0    0    0
H -31.09332429 3.90724866 52.12225457     6    408    0    0    0
C -33.03454579 5.57752656 48.99994807     2    408   412   413   414
H -34.77032329 4.57177832 49.62485380     6    411    0    0    0
H -33.74534381 7.58610981 48.46355662     6    411    0    0    0
C -31.74242113 4.48082204 46.47162548     2    411   415   416   417
H -30.19866440 5.55789532 45.78586431     6    414    0    0    0
H -31.13674497 2.49926574 46.74508554     6    414    0    0    0
C -33.65183920 4.49836761 44.38791697     2    414   418   419   420
H -35.20772939 3.29551945 44.88470809     6    417    0    0    0
H -34.60654430 6.31613954 44.21887952     6    417    0    0    0
C -32.71844728 3.57844904 41.80362223     2    417   421   422   423
H -31.33506781 4.87885724 41.22724267     6    420    0    0    0
H -31.76108778 1.79815740 41.88648952     6    420    0    0    0
C -34.90442096 3.28422964 39.99718511     2    420   424   425   426
H -34.52896657 1.80010603 38.48117837     6    423    0    0    0
H -36.55917742 2.46594614 40.99005844     6    423    0    0    0
C -35.77179488 5.86368222 38.59955972     1    423   427   428   429
H -37.69732590 5.87432037 37.66668971     6    426    0    0    0
H -34.40016194 6.42311313 37.36514488     6    426    0    0    0
H -35.78234237 7.33357421 40.03613557     6    426    0    0    0
H -21.12873983 -10.68781630 29.55286371     6     431    0    0    0 
C -19.72794575 -10.73953945 31.03817511     1     430    432    433    434
H -19.96294469 -12.62623502 31.74279821     6     431    0    0    0
H -17.95282904 -10.90951789 30.13239265     6     431    0    0    0
C -20.15920037 -8.68330857 32.96223559     2     431    435    436    437
H -19.81320485 -6.95159799 31.80484121     6     434    0    0    0
H -22.16028773 -8.80263107 33.55849212     6     434    0    0    0
C -18.18461280 -8.95428995 35.08960400     2     434    438   439   440
H -18.08409627 -10.75604093 36.07694037     6     437    0    0    0
H -16.39727888 -8.83855666 34.08862441     6     437    0    0    0
C -18.39972288 -7.14991381 37.27256123     2     437   441   442   443
H -16.67868661 -7.01091061 38.22344759     6    440    0    0    0
H -18.85067414 -5.30407668 36.64534541     6    440    0    0    0
C -20.27412693 -8.02654935 39.32126510     2    440   444   445   446
H -22.25357666 -8.40802188 38.83490627     6    443    0    0    0
H -19.42142541 -9.73053146 40.03217195     6    443    0    0    0
C -20.32244554 -6.24219513 41.54588920     2    443   447   448   449
H -18.54024561 -5.89210075 42.51622617     6    446    0    0    0
H -20.93140896 -4.32169855 41.06880804     6    446    0    0    0
C -22.21207235 -7.38390050 43.49071947     2    446   450   451   452
H -23.99157131 -7.57648363 42.43577350     6    449    0    0    0
H -21.59793075 -9.17409369 44.30240707     6    449    0    0    0
C -22.73509133 -5.49242831 45.65249106     2    449   453   454   455
H -21.01937854 -5.40584721 46.94981016     6    452    0    0    0
H -22.88131270 -3.65581121 45.00223451     6    452    0    0    0
C -24.90262785 -6.27717069 47.38811599     2    452   456   457   458
H -26.74628555 -5.59283017 46.58549320     6    455    0    0    0
H -24.82517065 -8.32502295 47.49950094     6    455    0    0    0
C -24.69767503 -5.03327107 50.00086113     2    455   459   460   461
H -26.20959505 -5.69723444 51.25385136     6    458    0    0    0
H -22.80680205 -5.35491792 50.86012582     6    458    0    0    0
C -24.83807581 -2.13094280 50.03850004     2    458   462   463   464
H -23.07639124 -1.32956632 49.44112250     6    461    0    0    0
H -26.41091308 -1.54583110 48.82657956     6    461    0    0    0
C -25.59284941 -1.17019735 52.59662217     1    461   465   466   467
H -24.82006328 -2.31389904 54.22923498     6    464    0    0    0
H -27.60834954 -1.41766627 52.88511999     6    464    0    0    0
H -25.00362139 0.88139415 52.88446333     6    464    0    0    0
H 5.87963259 27.28076506 19.15408498     6     469    0    0    0 
C 4.07889221 27.90850350 18.28782511     1     468    470    471    472
H 2.51693759 28.25076628 19.66857989     6     469    0    0    0
H 4.46273106 29.73040525 17.47748568     6     469    0    0    0
C 3.45664805 26.00581123 16.11801037     2     469    473    474    475
H 2.11159194 26.99104472 14.94464806     6     472    0    0    0
H 5.14870472 25.75138540 15.00909922     6     472    0    0    0
C 2.47728115 23.49814793 17.29686338     2     472    476   477   478
H 4.12023443 22.78666290 18.49073904     6     475    0    0    0
H 1.15415465 23.96470546 18.81473595     6     475    0    0    0
C 1.44244856 21.65070606 15.44438286     2     475   479   480   481
H -0.21295473 22.55681916 14.52741614     6    478    0    0    0
H 2.89079014 21.47674194 13.97362838     6    478    0    0    0
C 0.86661830 19.14732252 16.68246712     2    478   482   483   484
H 2.69354401 18.39809519 17.30067850     6    481    0    0    0
H -0.38058202 19.53927845 18.09343542     6    481    0    0    0
C -0.17789990 17.20473054 14.76854787     2    481   485   486   487
H -1.31797824 18.02825759 13.28757664     6    484    0    0    0
H 1.29427590 15.96817964 13.80393724     6    484    0    0    0
C -2.13029320 15.39982217 16.15621753     2    484   488   489   490
H -1.40848223 14.60072235 17.87257245     6    487    0    0    0
H -3.56971738 16.62116114 16.92579951     6    487    0    0    0
C -3.10056046 13.34947410 14.35975938     2    487   491   492   493
H -4.14898130 14.09381352 12.75879279     6    490    0    0    0
H -1.20447066 12.60249767 13.69292382     6    490    0    0    0
C -4.60994020 11.24829255 15.76163276     2    490   494   495   496
H -3.73903148 11.18793370 17.64451483     6    493    0    0    0
H -6.51776564 11.87550330 15.93931510     6    493    0    0    0
C -4.29249612 8.79310152 14.25585845     2    493   497   498   499
H -2.47060121 8.50082288 13.78001285     6    496    0    0    0
H -4.80144606 7.17674929 15.45661211     6    496    0    0    0
C -6.00185642 8.68279339 11.81758833     2    496   500   501   502
H -8.08193715 8.78924960 12.28080880     6    499    0    0    0
H -5.32935231 10.03231278 10.32928225     6    499    0    0    0
C -5.50880129 6.20333974 10.44382969     1    499   503   504   505
H -7.05469806 6.25198280 9.04006997     6    502    0    0    0
H -5.50277374 4.39734180 11.52969374     6    502    0    0    0
H -3.79003301 6.44591217 9.44857630     6    502    0    0    0
H -25.58979607 -9.94117452 16.02639879     6     507    0    0    0 
C -26.67152861 -10.17667190 17.71327600     1     506    508    509    510
H -28.43458436 -9.07003098 17.37020118     6     507    0    0    0
H -27.11028763 -12.11914514 18.00891302     6     507    0    0    0
C -25.01847342 -9.00993554 19.80287128     2     507    511    512    513
H -23.40176702 -10.33375666 20.15905765     6     510    0    0    0
H -24.13659157 -7.16676150 19.33397608     6     510    0    0    0
C -26.39878368 -8.51852066 22.36080168     2     510    514   515   516
H -28.24139167 -7.47904828 22.17205070     6     513    0    0    0
H -27.18339905 -10.30748706 23.14754499     6     513    0    0    0
C -24.70980555 -7.40496140 24.46799991     2     513   517   518   519
H -22.93906514 -8.48668693 24.77797756     6    516    0    0    0
H -24.32487078 -5.47969154 23.92977423     6    516    0    0    0
C -26.13203198 -7.23115525 26.86016617     2    516   520   521   522
H -27.97962760 -6.44235319 26.37317128     6    519    0    0    0
H -26.45165555 -9.18550050 27.58437526     6    519    0    0    0
C -25.06584803 -5.45817308 28.90332175     2    519   523   524   525
H -23.03575154 -5.82412800 29.17071597     6    522    0    0    0
H -25.22199759 -3.52857926 28.21366296     6    522    0    0    0
C -26.48677699 -5.41828948 31.41672459     2    522   526   527   528
H -28.60057393 -4.96610547 31.50727580     6    525    0    0    0
H -26.22191902 -7.26229510 32.12435501     6    525    0    0    0
C -25.34256563 -3.34551335 33.37043117     2    525   529   530   531
H -23.31551774 -3.78985393 33.51801831     6    528    0    0    0
H -25.46376424 -1.37611146 32.65759407     6    528    0    0    0
C -26.87293813 -3.30497852 35.88158212     2    528   532   533   534
H -28.74907216 -2.44981073 35.46057415     6    531    0    0    0
H -27.24349489 -5.29328829 36.60037908     6    531    0    0    0
C -25.29026344 -1.60001360 37.64038214     2    531   535   536   537
H -23.34726553 -2.33956152 37.95006884     6    534    0    0    0
H -24.97726283 0.22634222 36.44541507     6    534    0    0    0
C -26.55706291 -0.95843275 40.21116991     2    534   538   539   540
H -28.56289932 -0.56394129 39.88477812     6    537    0    0    0
H -26.72080097 -2.45589002 41.65252558     6    537    0    0    0
C -25.47506758 1.44506504 41.47573188     1    537   541   542   543
H -24.38699295 2.84968487 40.37704533     6    540    0    0    0
H -24.19968270 0.71827340 42.92501855     6    540    0    0    0
H -27.03274200 2.39532425 42.57234740     6    540    0    0    0
H -21.16904466 14.10585691 51.75706763     6     545    0    0    0 
C -22.39934468 15.72181257 52.13831743     1     544    546    547    548
H -22.70271760 16.53065534 50.33023996     6     545    0    0    0
H -24.12684224 14.98721296 52.86588402     6     545    0    0    0
C -20.93648222 17.52044774 54.13996578     2     545    549    550    551
H -21.05887061 16.56676720 55.96620811     6     548    0    0    0
H -18.96856050 17.49698107 53.67456747     6     548    0    0    0
C -22.05881453 20.24212819 53.98060544     2     548    552   553   554
H -21.51909988 21.03296309 52.15738689     6     551    0    0    0
H -24.14983342 20.08820326 54.12372840     6     551    0    0    0
C -20.88965612 21.77120492 56.27207571     2     551   555   556   557
H -21.04329320 20.84986137 58.07893937     6    554    0    0    0
H -18.76015837 21.85825949 55.84507400     6    554    0    0    0
C -22.11431989 24.47959233 56.63784307     2    554   558   559   560
H -22.03135661 25.32402788 54.77002439     6    557    0    0    0
H -23.96267767 24.30366967 57.62672613     6    557    0    0    0
C -20.61614257 26.32671245 58.52922967     2    557   561   562   563
H -20.72571402 25.11387775 60.34961859     6    560    0    0    0
H -18.64763045 26.51321912 58.01365047     6    560    0    0    0
C -21.49652396 29.10810356 58.79870167     2    560   564   565   566
H -21.04848795 30.00557221 56.91320531     6    563    0    0    0
H -23.45353574 29.58503017 59.00578592     6    563    0    0    0
C -20.12286119 30.58671665 60.83087074     2    563   567   568   569
H -19.98281436 29.70733585 62.73118157     6    566    0    0    0
H -18.20787183 30.99037200 60.26291141     6    566    0    0    0
C -21.07250403 33.30165408 61.25393739     2    566   570   571   572
H -21.45774663 34.19672177 59.38370772     6    569    0    0    0
H -22.88552714 33.34378128 62.06271738     6    569    0    0    0
C -19.45103167 35.17265633 62.78599777     2    569   573   574   575
H -18.90513492 34.52452527 64.71718176     6    572    0    0    0
H -17.68955385 35.18821354 61.82156993     6    572    0    0    0
C -20.78236913 37.74016442 62.87629959     2    572   576   577   578
H -22.83990839 37.48976508 63.04722079     6    575    0    0    0
H -19.99320917 38.62721139 64.61265983     6    575    0    0    0
C -20.34990526 39.49516233 60.67610304     1    575   579   580   581
H -18.34834362 39.71636157 59.95121725     6    578    0    0    0
H -20.98570618 41.45889577 61.17395895     6    578    0    0    0
H -21.52623509 38.94100880 59.13001796     6    578    0    0    0
H -0.71516097 34.79888311 22.71757834     6     583    0    0    0 
C -1.77037911 35.67142222 24.37090727     1     582    584    585    586
H -1.21325976 37.65981628 24.30621403     6     583    0    0    0
H -3.87866573 35.62408807 23.99242870     6     583    0    0    0
C -1.27406951 34.25229211 26.97873270     2     583    587    588    589
H -2.56771644 32.55646689 27.07448412     6     586    0    0    0
H 0.62518639 33.51412229 27.22326899     6     586    0    0    0
C -1.76692664 36.04045916 29.32048054     2     586    590   591   592
H -0.34182092 37.58398843 29.21213514     6     589    0    0    0
H -3.69980786 36.69226129 29.21646143     6     589    0    0    0
C -1.36416866 34.73471445 32.04059534     2     589   593   594   595
H -2.69367880 33.24064960 32.10333614     6    592    0    0    0
H 0.52955387 34.02682086 31.85596834     6    592    0    0    0
C -1.81122565 36.46040323 34.28236921     2    592   596   597   598
H -0.50503113 37.98601692 34.15994538     6    595    0    0    0
H -3.82887430 37.07023811 34.09252298     6    595    0    0    0
C -1.08679932 35.25415051 36.79487350     2    595   599   600   601
H -2.31393253 33.51137273 36.77425824     6    598    0    0    0
H 0.74785967 34.61034097 37.03410156     6    598    0    0    0
C -1.97195627 37.06115434 38.72173524     2    598   602   603   604
H -0.60005984 38.61477030 38.55612733     6    601    0    0    0
H -3.78498033 37.99388648 38.27576929     6    601    0    0    0
C -2.31813505 35.69158469 41.40711715     2    601   605   606   607
H -3.14883236 33.75412492 41.29827131     6    604    0    0    0
H -0.44564547 35.31881117 42.10536109     6    604    0    0    0
C -3.74028520 37.23178157 43.36294738     2    604   608   609   610
H -3.10547040 39.20128295 43.46548357     6    607    0    0    0
H -5.67720473 37.30584674 42.72233080     6    607    0    0    0
C -3.77120241 36.22578903 46.06068395     2    607   611   612   613
H -4.07584360 34.24876951 45.91654211     6    610    0    0    0
H -1.93329582 36.35824365 46.71618114     6    610    0    0    0
C -5.54164847 37.68027935 47.84616091     2    610   614   615   616
H -4.71485823 39.50303737 48.01643837     6    613    0    0    0
H -7.52332261 37.86047502 47.24116361     6    613    0    0    0
C -5.72346987 36.53506667 50.52517054     1    613   617   618   619
H -7.09678786 37.38017485 51.74707180     6    616    0    0    0
H -3.91504545 36.84700047 51.54883643     6    616    0    0    0
H -6.04507086 34.59319688 50.11251802     6    616    0    0    0
H -39.82377638 24.75272985 36.51005688     6     621    0    0    0 
C -38.20651245 24.31877329 35.31460568     1     620    622    623    624
H -36.48794191 24.22969457 36.56675508     6     621    0    0    0
H -38.69476957 22.42262204 34.65273148     6     621    0    0    0
C -37.70062142 26.09588769 33.14541992     2     621    625    626    627
H -36.52779712 25.02977753 31.86751005     6     624    0    0    0
H -39.44861509 26.67034157 32.19744846     6     624    0    0    0
C -36.38587377 28.65734782 33.93759809     2     624    628   629   630
H -37.76205950 29.62696603 35.05092733     6     627    0    0    0
H -34.78060242 28.35005436 34.98405817     6     627    0    0    0
C -35.58673904 30.47926936 31.96273682     2     627   631   632   633
H -34.84981818 32.17614176 32.79692948     6    630    0    0    0
H -34.08431664 29.93099269 30.72749766     6    630    0    0    0
C -37.70574281 31.40595513 30.22793706     2    630   634   635   636
H -38.65049803 29.84842432 29.29011013     6    633    0    0    0
H -39.15817658 32.25980149 31.54523691     6    633    0    0    0
C -36.82875896 33.21131002 28.12844247     2    633   637   638   639
H -35.40649140 34.52783548 28.86083749     6    636    0    0    0
H -35.82997785 32.11879489 26.84130361     6    636    0    0    0
C -38.91950887 34.92931377 26.94745693     2    636   640   641   642
H -40.44168361 33.58841982 26.60735819     6    639    0    0    0
H -39.69351489 36.14158597 28.21577300     6    639    0    0    0
C -38.18101601 36.08954985 24.47771417     2    639   643   644   645
H -36.73008899 37.34929009 25.26540683     6    642    0    0    0
H -37.23947242 34.72316034 23.24816295     6    642    0    0    0
C -40.39524671 37.32451220 23.08489871     2    642   646   647   648
H -40.03726429 37.64384679 21.10565460     6    645    0    0    0
H -41.94621850 36.08520817 22.89516800     6    645    0    0    0
C -41.31453503 39.69555532 24.39628011     2    645   649   650   651
H -41.90367917 39.21749349 26.36340086     6    648    0    0    0
H -39.80786694 41.00650501 24.58641222     6    648    0    0    0
C -43.64527980 40.81386441 23.01709428     2    648   652   653   654
H -42.82569988 41.59247698 21.23425866     6    651    0    0    0
H -44.74951646 39.17251486 22.24963906     6    651    0    0    0
C -45.13133640 42.73241540 24.55294052     1    651   655   656   657
H -45.46615604 42.10973177 26.49852668     6    654    0    0    0
H -46.91828812 43.05775223 23.63005876     6    654    0    0    0
H -44.09536121 44.48967962 24.74378578     6    654    0    0    0
H -10.72988339 30.12109871 33.59669465     6     659    0    0    0 
C -11.26896777 30.88738755 35.45343136     1     658    660    661    662
H -12.68830069 32.34033263 34.92795001     6     659    0    0    0
H -11.81587158 29.55434978 36.89270931     6     659    0    0    0
C -8.84439764 32.12987287 36.41301850     2     659    663    664    665
H -7.32687623 30.80159321 36.95977118     6     662    0    0    0
H -7.90318933 33.34266669 35.08499369     6     662    0    0    0
C -9.45333274 33.90910409 38.60723171     2     662    666   667   668
H -7.79527694 35.20019251 39.02494254     6     665    0    0    0
H -10.81181845 35.29842014 38.13081985     6     665    0    0    0
C -10.21349649 32.32359673 41.00818704     2     665   669   670   671
H -11.89723518 31.27123967 40.93532983     6    668    0    0    0
H -8.64802896 31.00804321 41.28193052     6    668    0    0    0
C -10.64500439 34.03867480 43.31215464     2    668   672   673   674
H -8.89247486 34.73961489 43.98569366     6    671    0    0    0
H -11.59369928 35.75103263 42.67243376     6    671    0    0    0
C -11.88517616 32.56976775 45.61141819     2    671   675   676   677
H -13.52423484 31.34711164 45.12870018     6    674    0    0    0
H -10.36004243 31.62115664 46.60353536     6    674    0    0    0
C -13.11845550 34.19590078 47.60145393     2    674   678   679   680
H -13.51278612 33.11613039 49.22535070     6    677    0    0    0
H -12.12580414 35.92479716 48.16103164     6    677    0    0    0
C -15.83982016 35.28244422 46.79830164     2    677   681   682   683
H -15.69880939 36.11648832 44.96130935     6    680    0    0    0
H -17.09936536 33.68903060 46.54854588     6    680    0    0    0
C -16.87318637 37.26942233 48.68479054     2    680   684   685   686
H -15.47276838 38.78023454 48.68021433     6    683    0    0    0
H -18.62862433 37.91805420 47.86759896     6    683    0    0    0
C -17.47846218 36.37839883 51.36074687     2    683   687   688   689
H -18.69358762 37.97412888 52.08576518     6    686    0    0    0
H -18.62996064 34.68794208 51.46450666     6    686    0    0    0
C -15.13489215 36.44549912 53.05674145     2    686   690   691   692
H -14.29800249 34.45167799 53.09143767     6    689    0    0    0
H -13.69402754 37.63601085 52.22287813     6    689    0    0    0
C -15.51283638 37.31941309 55.79419622     1    689   693   694   695
H -16.09538060 39.28096566 55.83920330     6    692    0    0    0
H -13.81012067 37.20996404 56.83148177     6    692    0    0    0
H -16.96840399 36.09269352 56.58032342     6    692    0    0    0
H -29.29038424 36.46324635 62.85240419     6     697    0    0    0 
C -29.43675217 34.55889678 62.08757910     1     696    698    699    700
H -31.35932206 34.29956980 61.61013283     6     697    0    0    0
H -28.28992852 34.48624050 60.40546775     6     697    0    0    0
C -28.45886884 32.83626948 64.09623478     2     697    701    702    703
H -26.75511736 33.68527861 64.90889548     6     700    0    0    0
H -30.01555161 32.88427084 65.54618136     6     700    0    0    0
C -28.11126956 30.01193779 63.28414470     2     700    704   705   706
H -29.76161011 29.29793929 62.53780072     6     703    0    0    0
H -26.61392180 29.78607264 61.64762898     6     703    0    0    0
C -27.00678669 28.16424766 65.37659336     2     703   707   708   709
H -25.30467434 28.96265831 66.08284864     6    706    0    0    0
H -28.34790681 27.91138610 66.91247891     6    706    0    0    0
C -26.38820074 25.52226280 64.32414756     2    706   710   711   712
H -27.84441900 25.25856195 62.95926302     6    709    0    0    0
H -24.59460714 25.39445864 63.41333830     6    709    0    0    0
C -26.54160890 23.32921867 66.21512452     2    709   713   714   715
H -25.27737168 23.75920487 67.94085679     6    712    0    0    0
H -28.49264119 23.08399622 66.96781835     6    712    0    0    0
C -25.51004564 20.90182062 65.07238629     2    712   716   717   718
H -26.52116587 20.89826189 63.27852362     6    715    0    0    0
H -23.29550325 20.94899897 64.77298426     6    715    0    0    0
C -26.26832288 18.58930227 66.68508173     2    715   719   720   721
H -26.06041142 19.23369690 68.73840823     6    718    0    0    0
H -28.29405008 18.10527510 66.49242680     6    718    0    0    0
C -24.59290956 16.35848917 66.19827696     2    718   722   723   724
H -24.80351813 15.86283174 64.19476895     6    721    0    0    0
H -22.63551709 16.68681878 66.43793023     6    721    0    0    0
C -25.09151531 14.08920593 67.88505990     2    721   725   726   727
H -25.73467244 14.72252735 69.74145311     6    724    0    0    0
H -26.98639943 13.38301334 67.19857127     6    724    0    0    0
C -23.06892049 12.01358422 67.89095076     2    724   728   729   730
H -21.55232171 12.62551663 69.06768882     6    727    0    0    0
H -23.94064800 10.35198051 68.74466346     6    727    0    0    0
C -22.14552248 11.43328188 65.18341788     1    727   731   732   733
H -21.17311695 9.53959607 65.24967730     6    730    0    0    0
H -20.90122360 12.87100942 64.46894141     6    730    0    0    0
H -23.84900454 11.03154659 63.93165166     6    730    0    0    0
H -1.30443623 12.20287628 37.30447315     6     735    0    0    0 
C -0.31654884 10.37760228 36.99854768     1     734    736    737    738
H 0.92490493 10.19465659 38.67803192     6     735    0    0    0
H -1.77232805 8.93148265 37.07339676     6     735    0    0    0
C 1.13807635 10.53674432 34.42963724     2     735    739    740    741
H 2.13104849 12.24284708 34.36233921     6     738    0    0    0
H 2.67576182 9.21159323 34.23321414     6     738    0    0    0
C -0.71254676 10.12920017 32.11445938     2     738    742   743   744
H -1.40135382 8.25070771 32.08174511     6     741    0    0    0
H -2.38646248 11.26413322 32.16210794     6     741    0    0    0
C 0.33727271 11.01609924 29.60978219     2     741   745   746   747
H 0.88531708 13.04271436 29.61588399     6    744    0    0    0
H 2.13474418 10.09965829 28.95515247     6    744    0    0    0
C -1.51677353 10.52341421 27.45008590     2    744   748   749   750
H -3.42344178 11.37709524 27.94923390     6    747    0    0    0
H -0.79048860 11.63541124 25.72439666     6    747    0    0    0
C -1.95660357 7.60963166 26.88359986     2    747   751   752   753
H -0.18880606 6.58979408 26.71408982     6    750    0    0    0
H -2.83586759 6.67273398 28.40919368     6    750    0    0    0
C -3.64459482 7.43606009 24.60361346     2    750   754   755   756
H -5.30021378 8.69544879 24.93401669     6    753    0    0    0
H -2.75108004 8.07155809 22.81627740     6    753    0    0    0
C -4.39184024 4.71594475 23.97242898     2    753   757   758   759
H -2.65696585 3.56812054 23.71350774     6    756    0    0    0
H -5.28741458 4.07660133 25.63832536     6    756    0    0    0
C -6.09786291 4.56184989 21.76131745     2    756   760   761   762
H -7.95551325 5.27841720 22.29088953     6    759    0    0    0
H -5.44367829 5.79828906 20.30268696     6    759    0    0    0
C -6.07863407 2.01052635 20.59044256     2    759   763   764   765
H -4.20093822 1.68191377 19.75194446     6    762    0    0    0
H -6.26216380 0.58252040 22.15905701     6    762    0    0    0
C -8.39259001 1.74986643 18.81763900     2    762   766   767   768
H -10.16836863 2.25372901 19.80493796     6    765    0    0    0
H -7.97883638 2.86837256 17.09383260     6    765    0    0    0
C -8.63671720 -1.00185183 17.68721954     1    765   769   770   771
H -6.77940547 -1.56802789 16.84336748     6    768    0    0    0
H -9.83082411 -1.22060364 16.14966106     6    768    0    0    0
H -9.07660510 -2.41684844 19.21864232     6    768    0    0    0
H -41.68220369 19.07188230 30.79086647     6     773    0    0    0 
C -43.14082094 18.61366121 29.40016379     1     772    774    775    776
H -44.95181798 19.53093121 29.95138758     6     773    0    0    0
H -42.70023698 19.26842104 27.51120470     6     773    0    0    0
C -43.08011560 15.67620305 29.27480922     2     773    777    778    779
H -44.38855632 14.58984697 28.02477727     6     776    0    0    0
H -41.10460853 15.28885114 28.67076667     6     776    0    0    0
C -43.28365669 14.41443659 31.92146268     2     776    780   781   782
H -41.94372047 15.41139828 33.12364793     6     779    0    0    0
H -45.18763880 14.71977874 32.52193791     6     779    0    0    0
C -42.85812099 11.53987982 31.84008516     2     779   783   784   785
H -43.55103551 10.63851083 30.05074213     6    782    0    0    0
H -40.95143976 11.16679177 31.68707761     6    782    0    0    0
C -43.90588148 10.20901474 34.32659896     2    782   786   787   788
H -42.65779031 11.11486895 35.68394700     6    785    0    0    0
H -45.96056585 10.83343105 34.24977408     6    785    0    0    0
C -43.79282101 7.36464956 34.24003971     2    785   789   790   791
H -44.93125878 6.63719613 32.84281859     6    788    0    0    0
H -41.91759908 6.51488315 33.94612076     6    788    0    0    0
C -44.82547522 6.15158055 36.63663182     2    788   792   793   794
H -43.16313611 5.79264389 37.80636356     6    791    0    0    0
H -46.22400578 7.21551035 37.81892495     6    791    0    0    0
C -45.81531631 3.47298079 35.98433446     2    791   795   796   797
H -47.47807648 3.68422897 34.85165481     6    794    0    0    0
H -44.44743454 2.63256608 34.60567215     6    794    0    0    0
C -46.38221284 2.05154315 38.54846838     2    794   798   799   800
H -44.80544391 2.37140017 39.64639229     6    797    0    0    0
H -48.06457093 2.75876935 39.46373053     6    797    0    0    0
C -46.70836098 -0.84138688 38.07745002     2    797   801   802   803
H -47.82298376 -1.27867482 36.39816057     6    800    0    0    0
H -44.81111252 -1.38348632 37.50155779     6    800    0    0    0
C -47.88651388 -2.37971580 40.31515775     2    800   804   805   806
H -46.66455061 -1.73982878 41.88232738     6    803    0    0    0
H -49.67826903 -1.43482020 40.42807998     6    803    0    0    0
C -47.84288349 -5.22588212 39.94547056     1    803   807   808   809
H -48.86613969 -6.32594580 41.27731443     6    806    0    0    0
H -45.74288414 -5.83332579 40.40122064     6    806    0    0    0
H -48.48839194 -5.98384310 38.18097986     6    806    0    0    0
H -4.38152775 23.57891925 29.76929070     6     811    0    0    0 
C -4.17912801 25.15834798 28.57416036     1     810    812    813    814
H -3.99764220 26.91366357 29.50558687     6     811    0    0    0
H -2.33819018 24.91596363 27.47792114     6     811    0    0    0
C -6.56972323 25.60284920 26.91870674     2     811    815    816    817
H -8.08963488 26.28528277 28.01040005     6     814    0    0    0
H -6.05282754 27.07030087 25.61677206     6     814    0    0    0
C -7.37825446 23.12448270 25.70254093     2     814    818   819   820
H -5.90523073 22.34508922 24.45317367     6     817    0    0    0
H -7.64633013 21.56187268 27.07875014     6     817    0    0    0
C -9.85707553 23.44530836 24.13897526     2     817   821   822   823
H -11.23862045 24.59741127 25.26446750     6    820    0    0    0
H -9.45211574 24.77011543 22.65521501     6    820    0    0    0
C -11.05046398 21.02764323 23.01173712     2    820   824   825   826
H -9.62599811 20.10115906 21.80856660     6    823    0    0    0
H -11.51908451 19.77585364 24.58517920     6    823    0    0    0
C -13.46904942 21.87798383 21.59600991     2    823   827   828   829
H -14.95331949 22.72117370 22.81153626     6    826    0    0    0
H -13.27263872 23.09969418 20.05145736     6    826    0    0    0
C -14.45529643 19.35620732 20.32990535     2    826   830   831   832
H -13.10499230 18.16942445 19.17251541     6    829    0    0    0
H -14.90708916 18.10092059 21.93977223     6    829    0    0    0
C -16.90665656 19.72938577 18.83686277     2    829   833   834   835
H -18.39210265 20.44809494 20.10005713     6    832    0    0    0
H -16.47749687 21.29592557 17.49482363     6    832    0    0    0
C -18.03408399 17.37222325 17.65660035     2    832   836   837   838
H -16.63833456 16.39596663 16.37294499     6    835    0    0    0
H -18.57394242 15.91239076 18.91160571     6    835    0    0    0
C -20.43478478 18.35569784 16.08162129     2    835   839   840   841
H -21.57538787 19.51932097 17.37981958     6    838    0    0    0
H -19.91757465 19.72463838 14.61004652     6    838    0    0    0
C -21.87616183 16.20932078 14.74197502     2    838   842   843   844
H -20.79198284 14.58248953 14.15243740     6    841    0    0    0
H -23.52628346 15.52883702 15.81408145     6    841    0    0    0
C -23.28161031 17.07388529 12.37976554     1    841   845   846   847
H -24.92791709 18.19877798 12.77318391     6    844    0    0    0
H -24.24269514 15.30421783 11.69733615     6    844    0    0    0
H -22.10202465 17.93580093 10.97723824     6    844    0    0    0
H -11.05519512 47.18863547 51.64083416     6     849    0    0    0 
C -12.88381268 46.53294830 51.13062402     1     848    850    851    852
H -13.72087197 45.48909694 52.67481109     6     849    0    0    0
H -13.88978823 48.17491306 50.12472156     6     849    0    0    0
C -12.32109644 44.34961586 49.23517846     2     849    853    854    855
H -11.20128338 42.92282394 50.33405287     6     852    0    0    0
H -14.16105534 43.37801159 48.54303677     6     852    0    0    0
C -10.67051445 45.14143649 46.94415524     2     852    856   857   858
H -11.15198827 47.03574831 46.26852649     6     855    0    0    0
H -8.63764346 45.16893662 47.40056744     6     855    0    0    0
C -10.78921940 43.06584892 45.05810695     2     855   859   860   861
H -9.69899474 41.55377470 45.88178680     6    858    0    0    0
H -12.73475906 42.50484656 44.73508424     6    858    0    0    0
C -9.70804325 43.63070790 42.49166853     2    858   862   863   864
H -10.67999168 45.40221285 41.64077250     6    861    0    0    0
H -7.71943287 44.32488565 42.56108208     6    861    0    0    0
C -10.10854381 41.68497562 40.47170743     2    861   865   866   867
H -9.10789452 40.02225186 41.12816241     6    864    0    0    0
H -12.08501916 41.27739113 40.25016469     6    864    0    0    0
C -8.81954648 42.35742653 37.96116272     2    864   868   869   870
H -8.72226814 44.40110382 37.72136506     6    867    0    0    0
H -6.83169984 41.89476893 37.96660524     6    867    0    0    0
C -10.33410405 41.36371528 35.61026191     2    867   871   872   873
H -10.15742163 39.31760050 35.54535900     6    870    0    0    0
H -12.35266360 41.69110083 35.61882820     6    870    0    0    0
C -9.49270711 42.52788743 33.15188611     2    870   874   875   876
H -10.28998840 41.38260350 31.60065046     6    873    0    0    0
H -10.60312372 44.28951928 33.33429449     6    873    0    0    0
C -6.75651745 42.95075459 32.61341998     2    873   877   878   879
H -5.78362805 44.07044169 33.93166348     6    876    0    0    0
H -5.84911373 41.20214321 33.01152939     6    876    0    0    0
C -6.32510452 43.98796466 29.95821155     2    876   880   881   882
H -5.84367225 42.31599839 28.65795294     6    879    0    0    0
H -8.13717126 44.67448842 29.20691384     6    879    0    0    0
C -4.56264530 46.21206990 30.04674007     1    879   883   884   885
H -4.21944859 47.16811746 31.77502832     6    882    0    0    0
H -5.31759184 47.80541919 28.74963670     6    882    0    0    0
H -2.81954690 45.54858914 29.26350557     6    882    0    0    0
H -21.93622769 18.38545530 21.78178144     6     887    0    0    0 
C -23.64753306 18.96563505 22.82694997     1     886    888    889    890
H -24.48104856 20.66716770 21.89943521     6     887    0    0    0
H -24.99173216 17.36174307 22.76884258     6     887    0    0    0
C -22.72657817 19.52256834 25.36149542     2     887    891    892    893
H -24.38379291 20.54713478 26.25149202     6     890    0    0    0
H -22.37248657 17.89805531 26.51927669     6     890    0    0    0
C -20.36765057 21.12877773 25.33758203     2     890    894   895   896
H -18.94078639 19.94811864 24.38292531     6     893    0    0    0
H -20.76254497 22.82007628 24.36109592     6     893    0    0    0
C -19.75356580 22.08093873 27.98582012     2     893   897   898   899
H -21.22790851 23.27107036 28.64394973     6    896    0    0    0
H -19.61058614 20.50325462 29.28672661     6    896    0    0    0
C -17.34783853 23.54581213 27.86041247     2    896   900   901   902
H -15.94125157 22.79720876 26.77452354     6    899    0    0    0
H -17.57428435 25.43055241 26.96145836     6    899    0    0    0
C -16.19665211 23.79301682 30.44548395     2    899   903   904   905
H -17.11489899 25.31996989 31.45062421     6    902    0    0    0
H -16.47507590 22.13768341 31.68013810     6    902    0    0    0
C -13.34669600 24.18971276 30.53441928     2    902   906   907   908
H -12.50316968 22.57193064 29.68122814     6    905    0    0    0
H -12.58689649 25.72949286 29.30182404     6    905    0    0    0
C -12.36039982 24.33787094 33.20385060     2    905   909   910   911
H -13.26652230 25.84136199 34.23473282     6    908    0    0    0
H -13.06227166 22.73356401 34.12927814     6    908    0    0    0
C -9.66240169 24.53415743 33.43683527     2    908   912   913   914
H -9.03588480 22.76165541 32.62530938     6    911    0    0    0
H -9.01211700 26.03809416 32.11906222     6    911    0    0    0
C -8.59509453 24.82858996 36.01410563     2    911   915   916   917
H -9.46846092 26.28027976 37.20858519     6    914    0    0    0
H -8.81782780 23.06133754 37.05025649     6    914    0    0    0
C -5.65273371 25.41357637 35.69176231     2    914   918   919   920
H -4.87038669 24.13356081 34.28771073     6    917    0    0    0
H -5.52617812 27.25579506 34.69787149     6    917    0    0    0
C -4.12500419 25.38946586 38.24126495     1    917   921   922   923
H -3.71203152 23.58334855 38.99083429     6    920    0    0    0
H -5.07114722 26.64916672 39.67196874     6    920    0    0    0
H -2.30573277 26.39214150 37.91571608     6    920    0    0    0
H -28.41524626 49.21799024 34.98209320     6     925    0    0    0 
C -29.39650211 47.63847009 34.13581306     1     924    926    927    928
H -30.95427405 47.08207764 35.38040535     6     925    0    0    0
H -30.16129513 48.41793323 32.50709931     6     925    0    0    0
C -27.70200009 45.30606536 33.78724554     2     925    929    930    931
H -26.99036764 44.79128362 35.60148606     6     928    0    0    0
H -28.93643094 43.97875970 32.95633847     6     928    0    0    0
C -25.39739043 45.90403302 32.18153970     2     928    932   933   934
H -26.07516240 46.48311251 30.25440706     6     931    0    0    0
H -24.38362727 47.64376664 32.79705663     6     931    0    0    0
C -23.59028679 43.63313883 31.87883015     2     931   935   936   937
H -22.98416887 43.23879575 33.85413292     6    934    0    0    0
H -24.49231392 41.96844006 31.21201676     6    934    0    0    0
C -21.37489298 44.17134919 30.03913070     2    934   938   939   940
H -22.24701432 44.85749662 28.15954329     6    937    0    0    0
H -20.22936030 45.69590464 30.76794188     6    937    0    0    0
C -19.53577662 41.91991386 29.69488789     2    937   941   942   943
H -18.60088304 41.46661375 31.46883274     6    940    0    0    0
H -20.51540133 40.13102423 28.94782928     6    940    0    0    0
C -17.29919397 42.42019207 27.88650014     2    940   944   945   946
H -18.08807330 42.79690387 26.02816067     6    943    0    0    0
H -16.27278153 44.08533775 28.32721364     6    943    0    0    0
C -15.89144852 39.97280963 27.96300175     2    943   947   948   949
H -14.91935041 39.75699018 29.74175325     6    946    0    0    0
H -17.25884791 38.42577696 27.75155656     6    946    0    0    0
C -14.08636546 39.72740094 25.69529098     2    946   950   951   952
H -13.66933819 37.71216580 25.45123948     6    949    0    0    0
H -15.25131212 40.30218037 24.08734477     6    949    0    0    0
C -11.89543444 41.51222234 25.79669366     2    949   953   954   955
H -12.70097992 43.45968304 25.69505386     6    952    0    0    0
H -10.90342454 41.28310367 27.59233661     6    952    0    0    0
C -9.89290716 41.26190439 23.68970440     2    952   956   957   958
H -8.41816497 42.55999200 24.29663917     6    955    0    0    0
H -8.95396156 39.49908500 23.84099043     6    955    0    0    0
C -10.94116974 41.85106827 21.02415031     1    955   959   960   961
H -9.85242702 41.32965989 19.42832465     6    958    0    0    0
H -11.38804338 43.91671844 21.10378972     6    958    0    0    0
H -12.83017700 40.86401675 20.89405924     6    958    0    0    0
H -13.77331414 4.26479180 35.00879581     6     963    0    0    0 
C -15.25533289 5.61238416 34.45930960     1     962    964    965    966
H -14.25958403 7.41481424 34.03230793     6     963    0    0    0
H -15.82985587 4.72399332 32.63727146     6     963    0    0    0
C -17.53106602 5.73603745 36.17347004     2     963    967    968    969
H -19.08587812 6.82850518 35.33122826     6     966    0    0    0
H -18.24593935 3.80827117 36.29612026     6     966    0    0    0
C -17.04898518 6.82001983 38.81676706     2     966    970   971   972
H -15.34337620 6.06510304 39.74173544     6     969    0    0    0
H -16.70926591 8.79865921 38.70891014     6     969    0    0    0
C -19.46487694 6.56373683 40.51593638     2     969   973   974   975
H -21.21979519 7.41806291 39.84492555     6    972    0    0    0
H -19.77844044 4.52120277 40.87721920     6    972    0    0    0
C -18.99866658 7.68063836 43.20570239     2    972   976   977   978
H -17.49496059 6.55161883 43.83916398     6    975    0    0    0
H -18.04606693 9.59067205 43.24382693     6    975    0    0    0
C -21.48010677 7.58445547 44.77348391     2    975   979   980   981
H -22.68842340 9.17162528 44.34541255     6    978    0    0    0
H -22.41338688 5.75931841 44.34610558     6    978    0    0    0
C -20.97349968 7.58554822 47.68955992     2    978   982   983   984
H -19.37677570 6.33473869 48.20855152     6    981    0    0    0
H -20.75061863 9.58081277 48.26183246     6    981    0    0    0
C -23.34951519 6.50528964 48.74054120     2    981   985   986   987
H -24.91300893 7.75289751 48.44499186     6    984    0    0    0
H -23.70248938 4.66199133 47.89202751     6    984    0    0    0
C -23.16285066 6.14313667 51.59148422     2    984   988   989   990
H -24.79109314 5.15013662 52.20292390     6    987    0    0    0
H -21.66537294 4.80009852 51.84109615     6    987    0    0    0
C -22.75968163 8.59911252 53.12239444     2    987   991   992   993
H -20.79836963 8.86416308 53.03639291     6    990    0    0    0
H -23.77315181 10.17411705 52.32345610     6    990    0    0    0
C -23.38552721 8.41451635 55.90700678     2    990   994   995   996
H -25.35051742 7.99575692 56.07877184     6    993    0    0    0
H -22.40575935 6.98413945 56.82165334     6    993    0    0    0
C -23.04059345 10.93150825 57.34848234     1    993   997   998   999
H -21.04061818 11.60911486 57.15786010     6    996    0    0    0
H -23.64883936 10.86917652 59.32291176     6    996    0    0    0
H -24.28044423 12.33164371 56.69893439     6    996    0    0    0
H -7.77452994 -8.34824607 24.60982745     6     1001    0    0    0 
C -7.15639051 -6.96070423 25.97980052     1     1000    1002    1003    1004
H -5.30487220 -7.37207244 26.59746930     6     1001    0    0    0
H -6.84487453 -5.14984878 24.92426030     6     1001    0    0    0
C -9.01001290 -6.38509960 28.02943584     2     1001    1005    1006    1007
H -9.90372776 -4.60891461 27.75323757     6     1004    0    0    0
H -10.39087465 -7.89152686 27.79209169     6     1004    0    0    0
C -7.57265278 -6.26898999 30.64005474     2     1004    1008   1009   1010
H -6.13849895 -7.80133511 30.88724859     6     1007    0    0    0
H -6.59593370 -4.42804297 30.71187367     6     1007    0    0    0
C -9.45454303 -6.15852959 32.90046376     2     1007   1011   1012   1013
H -10.80322388 -4.51742125 32.68642188     6    1010    0    0    0
H -10.53087043 -7.92191753 32.99030950     6    1010    0    0    0
C -8.01121391 -5.58831035 35.34182416     2    1010   1014   1015   1016
H -6.48989906 -6.81918275 35.60224789     6    1013    0    0    0
H -6.89479576 -3.90082579 35.29589732     6    1013    0    0    0
C -9.65609978 -5.21705866 37.67067445     2    1013   1017   1018   1019
H -10.98317391 -3.68010669 37.31158255     6    1016    0    0    0
H -11.04030904 -6.77336574 37.94849765     6    1016    0    0    0
C -8.06737129 -4.51680567 40.06244623     2    1016   1020   1021   1022
H -6.86065805 -6.09798915 40.68443364     6    1019    0    0    0
H -6.90897881 -2.84166196 39.58813077     6    1019    0    0    0
C -9.51843910 -3.89715348 42.61054867     2    1019   1023   1024   1025
H -10.64333448 -5.37038848 43.48674418     6    1022    0    0    0
H -8.24881949 -3.38298747 44.02933515     6    1022    0    0    0
C -11.42051144 -1.71458892 42.23864685     2    1022   1026   1027   1028
H -10.52907329 -0.44305786 40.94072614     6    1025    0    0    0
H -13.26414282 -2.47092134 41.53773134     6    1025    0    0    0
C -12.22980784 -0.21956849 44.59845081     2    1025   1029   1030   1031
H -13.73145950 -1.34947484 45.55774496     6    1028    0    0    0
H -10.67984920 -0.24687884 45.97516824     6    1028    0    0    0
C -13.33323012 2.65260922 44.41876122     2    1028   1032   1033   1034
H -12.08927335 4.05059518 43.81529743     6    1031    0    0    0
H -15.02821143 2.84888948 43.16064720     6    1031    0    0    0
C -13.97453386 3.63845277 47.03872798     1    1031   1035   1036   1037
H -14.58015522 5.67543852 46.99273093     6    1034    0    0    0
H -12.54356499 3.45792078 48.46440973     6    1034    0    0    0
H -15.63354983 2.61063217 47.76417470     6    1034    0    0    0
H -29.65408384 17.51407438 29.95879151     6     1039    0    0    0 
C -31.37605076 18.45875431 29.40168199     1     1038    1040    1041    1042
H -33.01950914 17.24918835 29.28625326     6     1039    0    0    0
H -32.10899661 19.92318692 30.84201384     6     1039    0    0    0
C -30.86966930 20.07871256 27.15814348     2     1039    1043    1044    1045
H -29.09755593 21.18761322 27.67742806     6     1042    0    0    0
H -30.34838290 18.83955789 25.54224117     6     1042    0    0    0
C -33.06054322 21.81408812 26.59231322     2     1042    1046   1047   1048
H -34.84896451 20.84000453 26.21960453     6     1045    0    0    0
H -33.60271614 22.88510283 28.24844176     6     1045    0    0    0
C -32.47184837 23.37699467 24.20074276     2     1045   1049   1050   1051
H -30.98040948 24.64430725 24.69103983     6    1048    0    0    0
H -31.76319136 21.97947769 22.80151372     6    1048    0    0    0
C -34.75917367 24.82199524 23.33619127     2    1048   1052   1053   1054
H -36.22742990 23.54443819 22.44617581     6    1051    0    0    0
H -35.79266197 25.94092187 24.66551384     6    1051    0    0    0
C -33.82008309 26.73359932 21.28399898     2    1051   1055   1056   1057
H -32.40917880 27.98959863 22.07089365     6    1054    0    0    0
H -32.98972174 25.92320887 19.66784856     6    1054    0    0    0
C -36.13764377 28.27707555 20.24665200     2    1054   1058   1059   1060
H -37.69100261 26.92535785 19.75105020     6    1057    0    0    0
H -36.68467908 29.53096439 21.65259777     6    1057    0    0    0
C -35.62730132 30.21325460 17.94830571     2    1057   1061   1062   1063
H -34.13703369 31.53894603 18.57915105     6    1060    0    0    0
H -34.99032654 29.08321719 16.30199428     6    1060    0    0    0
C -37.92752675 31.74996262 17.20068888     2    1060   1064   1065   1066
H -39.58669561 30.49980002 16.82877964     6    1063    0    0    0
H -38.73744848 32.99017047 18.74989784     6    1063    0    0    0
C -37.41690190 33.15875349 14.74254603     2    1063   1067   1068   1069
H -35.87239917 34.55903505 14.77866647     6    1066    0    0    0
H -36.98764814 31.62849970 13.42829317     6    1066    0    0    0
C -39.81760993 34.62973442 14.11701748     2    1066   1070   1071   1072
H -41.49552981 33.43796629 14.18700267     6    1069    0    0    0
H -40.29587111 36.10754832 15.59703269     6    1069    0    0    0
C -39.71589512 35.66230581 11.46897181     1    1069   1073   1074   1075
H -41.56231341 36.31996979 10.86352833     6    1072    0    0    0
H -39.44119816 33.88959074 10.26552118     6    1072    0    0    0
H -38.12550556 36.96131600 11.27740094     6    1072    0    0    0
H -33.63240683 43.74285608 28.19743383     6     1077    0    0    0 
C -33.18571635 45.12992449 26.82629542     1     1076    1078    1079    1080
H -34.31374575 44.54813046 25.11519327     6     1077    0    0    0
H -33.72501832 46.91244670 27.24159641     6     1077    0    0    0
C -30.46198338 45.12147395 26.04012731     2     1077    1081    1082    1083
H -30.03394932 46.39807995 24.44703305     6     1080    0    0    0
H -29.28530617 45.97979424 27.55793600     6     1080    0    0    0
C -29.46409265 42.40696452 25.71528207     2     1080    1084   1085   1086
H -29.92288660 41.19516984 27.28355792     6     1083    0    0    0
H -30.52808207 41.51287570 24.20525978     6     1083    0    0    0
C -26.59235635 42.09910282 24.94990988     2     1083   1087   1088   1089
H -26.24573281 43.31844848 23.39378854     6    1086    0    0    0
H -25.21996554 42.50401757 26.33240054     6    1086    0    0    0
C -25.86916146 39.31612254 24.15567085     2    1086   1090   1091   1092
H -25.75793277 38.07762337 25.77370852     6    1089    0    0    0
H -27.36212418 38.57411646 23.14878705     6    1089    0    0    0
C -23.43457841 39.00366933 22.56735346     2    1089   1093   1094   1095
H -23.55301949 39.56935506 20.56300645     6    1092    0    0    0
H -22.20580462 40.37886715 23.53345777     6    1092    0    0    0
C -22.19768306 36.41573013 22.68518947     2    1092   1096   1097   1098
H -22.06937149 35.70401913 24.64131908     6    1095    0    0    0
[...]
 1762      H       2.1392717100    18.8814227800    42.5235178600
 1763      H       4.7459155100    16.8972080400    42.3795646700
 1764      C       3.9786657500    19.0596171400    46.2550156400
 1765      H       5.8098521300    18.7050751400    46.9613039400
 1766      H       3.2567969700    20.9490922300    46.8688278400
 1767      C       2.4432205200    17.0485924700    47.5410105600
 1768      H       0.5375980600    17.1717643000    46.7588224800
 1769      H       3.2304672500    15.1895280100    47.2095818400
 1770      C       2.2547161200    17.1404888400    50.3604305800
 1771      H       4.0486492500    16.4313168300    51.3855367300
 1772      H       1.7603499700    18.9818570900    51.0190152400
 1773      C       0.0206595000    15.4301450100    51.2706723000
 1774      H      -1.7334688800    16.1079257000    50.4132996900
 1775      H       0.2518531400    13.5756491200    50.5249610600
 1776      C      -0.4040311300    15.6741700200    54.1300742700
 1777      H       1.3105168300    15.1259456900    55.0848562400
 1778      H      -0.8571774100    17.5614030700    54.7957009000
 1779      C      -2.5999016500    13.8312855000    54.9488830100
 1780      H      -4.2173888200    14.2376175500    53.7224426200
 1781      H      -2.1120069500    11.8169740300    54.5439510600
 1782      C      -3.5102295200    14.2970201200    57.5632345700
 1783      H      -3.8977649700    16.2843319300    57.7700351700
 1784      H      -5.4245964800    13.3081222900    57.8577612100
 1785      C      -1.6426945600    13.6041757900    59.6711017400
 1786      H      -1.0202659400    11.5275548800    59.7248032600
 1787      H       0.0306445000    14.7675656600    59.2411980600
 1788      C      -2.6074541200    14.2649514800    62.3579299900
 1789      H      -3.4160643100    16.1609123400    62.3767926500
 1790      H      -4.0921402300    12.8266899300    62.8811036000
 1791      C      -0.4452560100    14.1847343400    64.1076642100
 1792      H       0.2510026900    12.2978427200    64.1511683500
 1793      H       1.1633812800    15.2399471200    63.2433709700
 1794      C      -1.1856468200    15.1079645300    66.7177178200
 1795      H      -2.4534462200    13.8350387200    67.6949837300
 1796      H      -2.2526493200    16.8606743500    66.6447158600
 1797      H       0.3998424000    15.3042645200    68.0087837800
 1798      H     -42.0186996000    43.6088533600    32.0736317400
 1799      C     -41.1581532100    41.7530022800    32.4786749700
 1800      H     -41.6386451000    41.0597436600    34.3095022200
 1801      H     -41.9059697000    40.3183609600    31.0715193100
 1802      C     -38.3549490900    42.1018799200    32.4017790200
 1803      H     -37.9536544200    43.1387802000    30.7953937800
 1804      H     -37.5358498500    43.3164416600    33.6763393800
 1805      C     -36.8847930600    39.6588616600    32.4051723300
 1806      H     -37.6967554700    38.5562579700    33.9783244600
 1807      H     -37.1046357100    38.7256705100    30.7546147900
 1808      C     -34.1153748400    40.1675208200    32.8977811900
 1809      H     -33.2471399700    41.6949021000    31.8779104400
 1810      H     -33.8918590000    40.7225861800    34.8204260400
 1811      C     -32.5783209500    37.9491087700    31.9492523400
 1812      H     -33.3433463600    36.2215242100    32.6726770300
 1813      H     -32.7092867400    37.8362142700    29.9023852000
 1814      C     -29.7190763200    38.1762886900    32.5455173000
 1815      H     -29.0188155000    40.0774130800    32.0317962100
 1816      H     -29.6898316700    37.9972837700    34.5658158700
 1817      C     -28.1599724800    36.1630409000    30.9983544500
 1818      H     -28.7062136700    34.2505384700    31.6661671800
 1819      H     -28.5598689200    36.3645941900    28.9921254500
 1820      C     -25.2576224000    36.3574218500    31.5177691600
 1821      H     -24.5448482500    38.1377685200    30.8620019100
 1822      H     -24.7013060100    36.3983395300    33.5947406700
 1823      C     -23.8426619100    34.1227048700    30.3255144800
 1824      H     -24.5334299000    32.3742555300    30.9924505300
 1825      H     -24.0726292000    33.7894807500    28.3073047000
 1826      C     -21.0654530200    34.0807105900    31.0611189700
 1827      H     -20.2137696900    35.7582449000    30.1711645300
 1828      H     -20.9952879100    34.2174152200    33.2065971700
 1829      C     -19.4594728700    31.7509937600    30.4976019900
 1830      H     -20.5660901100    30.1072344300    31.0487903400
 1831      H     -19.4265068900    31.2993242800    28.5099565800
 1832      C     -16.8122674300    31.6984380600    31.7127829200
 1833      H     -15.6920935700    29.9424409700    31.2319095500
 1834      H     -16.8920290900    31.8836770800    33.7751308000
 1835      H     -15.5942229800    33.3047761500    30.9512994700
 1836      H     -17.8075331000    24.6481981400    38.8162608800
 1837      C     -17.8461378600    25.1591455500    40.7348403800
 1838      H     -19.6647505300    24.8515323300    41.5556379000
 1839      H     -16.7731193700    24.0318243900    41.9187762900
 1840      C     -16.7907874700    27.8386413200    41.1089809000
 1841      H     -16.6508976500    28.2918735800    43.1393749000
 1842      H     -14.9367415600    27.9812113800    40.2910833900
 1843      C     -18.5415783200    29.7851330700    39.7723123000
 1844      H     -19.2718660600    29.1122953900    37.8724469700
 1845      H     -20.2152128100    29.8772260500    40.9702333700
 1846      C     -17.6187112900    32.5518292000    39.6646026500
 1847      H     -16.8699896400    32.6223575000    41.4859650400
 1848      H     -15.9540946700    32.4538560300    38.3320044000
 1849      C     -19.6491310400    34.5650433800    38.9086024800
 1850      H     -21.0160190600    33.7257265300    37.5925619700
 1851      H     -20.6307988400    35.4561832900    40.6214023700
 1852      C     -18.3299715200    36.7409675800    37.2671832200
 1853      H     -16.8393699100    35.8574706300    36.2474925700
 1854      H     -19.6264583800    37.5809913100    35.9737715900
 1855      C     -17.1724762200    39.0181321800    38.7040446000
 1856      H     -15.7577882300    38.4517445200    40.0413176800
 1857      H     -16.1667123900    40.1447252400    37.1913919300
 1858      C     -19.1090702900    40.6698661900    39.9463783600
 1859      H     -20.5522779400    41.0933269900    38.4866397500
 1860      H     -20.2288747800    39.5216971800    41.2461592600
 1861      C     -17.9688528300    43.0328205400    41.2979798500
 1862      H     -16.7626963100    42.2796158600    42.7204832700
 1863      H     -16.6406841300    44.1266592100    40.0605878600
 1864      C     -20.0627395500    44.4842324500    42.7524601800
 1865      H     -21.6199721400    45.1725083300    41.6694977900
 1866      H     -20.9254963600    43.1571052400    44.0826254100
 1867      C     -19.2314819400    46.7671006100    44.2974121600
 1868      H     -18.2969046500    46.0520431100    45.9083878600
 1869      H     -18.2595425800    48.1392953100    43.1334674000
 1870      C     -21.5611856900    47.9755490800    45.5497278200
 1871      H     -20.7568844600    49.6949636900    46.4459399000
 1872      H     -22.4871229300    46.8224831700    46.9264503500
 1873      H     -23.0921895100    48.5607953900    44.2101542400
 1874      H     -30.7438076900    22.1226707000    61.3830240600
 1875      C     -31.7825743600    21.4403719400    59.5741561100
 1876      H     -33.4806224700    20.3643210400    59.9580315600
 1877      H     -32.5364346100    23.1084121600    58.4832077300
 1878      C     -29.9920718400    20.0969300400    57.8626853300
 1879      H     -28.7567872500    21.8016684400    57.3957293800
 1880      H     -28.8167417400    18.7222852800    58.7791047200
 1881      C     -31.2938892800    18.6993055800    55.8024026300
 1882      H     -32.7185615900    17.5594471800    56.5346850200
 1883      H     -32.3208887400    20.1499501000    54.7332709200
 1884      C     -29.4287403900    17.2609485900    53.9244277100
 1885      H     -27.9903355700    18.5135554200    53.1010927700
 1886      H     -28.7379849100    15.7189989300    54.9948996400
 1887      C     -30.9141082900    15.9457548200    51.8347506600
 1888      H     -32.1675908200    14.5213555300    52.5980997100
 1889      H     -32.3444243300    17.2620590200    50.7766125000
 1890      C     -29.2684020400    14.7926237400    49.9832635800
 1891      H     -27.8680383100    16.2077818400    49.5209534200
 1892      H     -28.1879513800    13.2693895000    50.8213891100
 1893      C     -30.6408211300    13.5842442300    47.7691295600
 1894      H     -32.0703260800    12.2653885700    48.2237125000
 1895      H     -31.6369321300    14.9847197100    46.7355382700
 1896      C     -28.7124343800    12.3031889000    45.9434026200
 1897      H     -26.9312571900    13.3262878200    46.0485649900
 1898      H     -28.3667193000    10.3301534700    46.6070964200
 1899      C     -29.6771244100    12.0487813000    43.1745767200
 1900      H     -31.4430227200    11.0827904300    43.3954735100
 1901      H     -30.1307300500    13.9528758400    42.5428921500
 1902      C     -27.8492247800    10.6266675900    41.5193942900
 1903      H     -26.0237780900    11.7207492400    41.0573541300
 1904      H     -27.2316544200     9.0208798500    42.3671010200
 1905      C     -29.0627494700     9.8045258500    38.9369317700
 1906      H     -30.7163292900     8.6489090000    39.1880592000
 1907      H     -29.6004270700    11.4286351500    37.8211017400
 1908      C     -27.2459649800     8.2103026000    37.1916714300
 1909      H     -27.4975334900     6.2393137500    37.6361174100
 1910      H     -25.3543689000     8.1951325300    38.0375507100
 1911      H     -27.2173255700     8.4659372800    35.1982580000
 ----------------------------------------------------------------
 Nuclear Repulsion Energy =           0.00000000 hartrees
 There are     2498 alpha and     2498 beta electrons

 Total QAlloc Memory Limit   2000 MB
 Mega-Array Size       204 MB
 MEM_STATIC part       192 MB
   **** Step 1: MM calculation on the entire system **** 
 OPLSAA force field loaded.
Reading user-defined FF parameters...
 Reading user defined atom types.
 Found 3 user defined AtomTypes
finished.
Determining angles, torsions, etc. from user defined input
Determining VDW/Coulomb pairs... (useList = 0)

 Time req'd to get MM system information: 0.2 s (CPU) 0.3 s (wall)

 ------ MM Energies ------
   Ebond:           588.564770946271
   Eangle:          889.412094281348
   EUreyBrad:         0.000000000000
   Eimptors:          0.000000000000
   Etorsion:        222.730446517763
   Evdw:         960775.059767269413
   Ecoulomb:        183.241968806676
   Etot:         962659.009047821513 Kcal/mol (   1534.094788264672 hartree)
 -------------------------
 Time req'd to calc MM energy: 0.1 s (CPU) 0.1 s (wall)
 OPLSAA force field loaded.
Reading user-defined FF parameters...
 Reading user defined atom types.
 Found 3 user defined AtomTypes
finished.
 Time req'd to get MM system information: 0.0 s (CPU) 0.0 s (wall)
 Time req'd to calc MM gradient: 0.2 s (CPU) 0.2 s (wall)
   **** Step 2: MM calculation on the model system **** 
 Reading user defined atom types.
 Found 3 user defined AtomTypes
 ----------------------------------------------------------------
             Standard Nuclear Orientation (Bohr)
    I     Atom           X                Y                Z
 ----------------------------------------------------------------
    1      Fe    -23.1434098700    18.9489677200    40.6699302500
    2      C     -21.5057263400    15.9815520800    41.1356971300
    3      C     -24.3218030800    22.1637001200    40.7556157200
    4      C     -22.2083369000    19.3739527800    43.9395861900
    5      C     -21.0418595200    19.6884336700    38.2969599800
    6      C     -25.8656676700    17.0500109000    39.6890081800
    7      O     -20.4434037600    14.1376914800    41.8543580400
    8      O     -24.9250080000    24.2976625900    40.8652240000
    9      O     -21.9205741000    19.8949964500    46.0348237600
   10      O     -19.8148749800    20.4235878500    36.5929036200
   11      O     -27.8563518900    16.1613064800    38.9694263200
 ----------------------------------------------------------------
 Nuclear Repulsion Energy =         801.00451035 hartrees
 There are       48 alpha and       48 beta electrons
 OPLSAA force field loaded.
Reading user-defined FF parameters...
 Reading user defined atom types.
 Found 3 user defined AtomTypes
finished.
Determining VDW/Coulomb pairs... (useList = 0)

 No MM bonds in system. Return all possible pairs.
 Time req'd to get MM system information: 0.0 s (CPU) 0.0 s (wall)

 ------ MM Energies ------
   Ebond:             0.000000000000
   Eangle:            0.000000000000
   EUreyBrad:         0.000000000000
   Eimptors:          0.000000000000
   Etorsion:          0.000000000000
   Evdw:         961219.287864496349
   Ecoulomb:         -6.347319416517
   Etot:         961212.940545079880 Kcal/mol (   1531.790331408528 hartree)
 -------------------------
 Eold: 1534.0947883 mm_energy: 1531.7903314 Enew:    2.3044569
 Time req'd to calc MM energy: 0.0 s (CPU) 0.0 s (wall)
 OPLSAA force field loaded.
Reading user-defined FF parameters...
 Reading user defined atom types.
 Found 3 user defined AtomTypes
finished.
Determining VDW/Coulomb pairs... (useList = 0)

 No MM bonds in system. Return all possible pairs.
 Time req'd to get MM system information: 0.0 s (CPU) 0.0 s (wall)
 Number of fixed atoms: 0
 Time req'd to calc MM gradient: 0.0 s (CPU) 0.0 s (wall)
   **** Step 3: QM calculation on the model system **** 
 Requested basis set is def2-mSVP
 There are 80 shells and 174 basis functions

                       Distance Matrix (Bohrs)
             Fe(  1)   C (  2)   C (  3)   C (  4)   C (  5)   C (  6)
   C (  2)  3.421184
   C (  3)  3.424975  6.803948
   C (  4)  3.427189  4.456887  4.731501
   C (  5)  3.254890  4.691969  4.788524  5.770511
   C (  6)  3.461059  4.716312  5.447108  6.069941  5.671702
   O (  7)  5.642808  2.246069  8.981427  5.906064  6.619967  6.524668
   O (  8)  5.640990  8.995684  2.220285  6.408972  6.551322  7.402485
   O (  9)  5.583223  6.283995  6.227596  2.178145  7.790337  7.995441
   O ( 10)  5.465876  6.574772  6.377191  7.797701  2.224804  7.588081
   O ( 11)  5.733637  6.712338  7.191122  8.180688  7.702606  2.295739
             O (  7)   O (  8)   O (  9)   O ( 10)
   O (  8) 11.148461
   O (  9)  7.266697  7.425285
   O ( 10)  8.221341  7.705494  9.688304
   O ( 11)  8.207902  8.853650  9.954584  9.406394

 A cutoff of  1.0D-11 yielded   2493 shell pairs
 There are     12867 function pairs (     14727 Cartesian)
 Smallest overlap matrix eigenvalue = 2.29E-03
 Guess MOs from SCF MO coefficient file
 Reading MOs from coefficient file
 Reading MOs from coefficient file
 A restricted Kohn-Sham SCF calculation will be
 performed using Pulay DIIS extrapolation
 Exchange:  B88      Correlation:  P86
 Using SG-1 standard quadrature grid
 SCF converges when DIIS error is below 1.0E-08
 Using Q-Chem read-in guess as SCF_GUESS READ specified.

 using 2 threads for integral computing
 -------------------------------------------------------
 OpenMP Integral computing Module                
 Release: version 1.0, May 2013, Q-Chem Inc. Pittsburgh 
 -------------------------------------------------------
 ---------------------------------------
  Cycle       Energy         DIIS Error
 ---------------------------------------
    1   -1830.5062184962      1.84E-09
    2   -1830.5062184960      7.01E-09 Convergence criterion met
 ---------------------------------------
 SCF time:  CPU 3.02 s  wall 1.57 s
 E(QM + QM/MM):    -1830.5062184960 E(MM):    2.3044569 E(Tot): -1828.201761639820 
 SCF   energy in the final basis set = -1828.20176164
 Total energy in the final basis set = -1828.20176164

 --------------------------------------------------------------

                    Orbital Energies (a.u.)
 --------------------------------------------------------------

 Alpha MOs
 -- Occupied --
******** -29.6410 -25.6000 -25.5874 -25.5855 -18.8951 -18.8888 -18.8835
-18.8726 -18.8693 -10.0736 -10.0545 -10.0527 -10.0471 -10.0405  -3.3273
 -2.1612  -2.1380  -2.1334  -1.0673  -1.0550  -1.0498  -1.0362  -1.0168
 -0.5854  -0.5314  -0.5272  -0.5174  -0.5154  -0.4613  -0.4524  -0.4398
 -0.4396  -0.4334  -0.4297  -0.4219  -0.4178  -0.4103  -0.4070  -0.4029
 -0.3973  -0.3944  -0.3921  -0.3784  -0.2834  -0.2757  -0.2411  -0.2256
 -- Virtual --
 -0.1144  -0.0991  -0.0907  -0.0843  -0.0804  -0.0741  -0.0711  -0.0701
 -0.0538  -0.0369  -0.0270   0.0111   0.1857   0.2086   0.2226   0.2539
  0.2948   0.3278   0.3449   0.3839   0.4018   0.4140   0.4249   0.4318
  0.4429   0.4820   0.4977   0.5003   0.5271   0.5372   0.5624   0.5846
  0.5879   0.6126   0.6259   0.6423   0.7398   0.7519   0.7645   0.7724
  0.7911   0.8202   0.8366   0.8632   0.8907   0.8988   0.9449   0.9532
  0.9731   0.9795   0.9824   0.9994   1.0071   1.0166   1.0278   1.0615
  1.1699   1.2467   1.2788   1.3172   1.3943   1.4025   1.4048   1.4101
  1.4181   1.4226   1.4337   1.4366   1.4530   1.4650   1.4724   1.4840
  1.5119   1.5331   1.5448   1.5721   1.6179   1.6347   1.6543   1.6789
  1.6859   1.8107   1.8251   1.8282   1.8347   1.8394   1.8437   1.8447
  1.8516   1.8605   1.8794   1.8873   1.8924   1.8992   1.9218   1.9451
  2.3287   2.3839   2.3981   2.4349   2.4404   2.4522   2.4611   2.4684
  2.4779   2.4907   2.6132   2.6283   2.6394   2.6445   2.6595   2.7999
  2.8200   2.8675   2.8947   2.9387  13.2667  13.3011  13.3300  13.3461
 13.4421  24.9052  24.9206  24.9269  24.9428  25.0181
 --------------------------------------------------------------

          Ground-State Mulliken Net Atomic Charges

     Atom                 Charge (a.u.)
  ----------------------------------------
      1 Fe                   -0.451837
      2 C                     0.212271
      3 C                     0.204212
      4 C                     0.212187
      5 C                     0.212135
      6 C                     0.237582
      7 O                    -0.123309
      8 O                    -0.121650
      9 O                    -0.092047
     10 O                    -0.134773
     11 O                    -0.154771
  ----------------------------------------
  Sum of atomic charges =     0.000000

 -----------------------------------------------------------------
                    Cartesian Multipole Moments
 -----------------------------------------------------------------
    Charge (ESU x 10^10)
                -0.0000
    Dipole Moment (Debye)
         X       0.6023954025      Y      -0.3418884682      Z       0.5545562068
       Tot       0.8872995729
    Quadrupole Moments (Debye-Ang)
        XX     -85.0526     XY       9.2819     YY     -76.5184
        XZ       6.3680     YZ      -1.3791     ZZ     -46.2330
    Octopole Moments (Debye-Ang^2)
       XXX    2847.7269    XXY    -875.2418    XYY     976.3182
       YYY   -2198.2429    XXZ   -1749.6618    XYZ     132.9929
       YYZ   -1587.4388    XZZ     844.6212    YZZ    -605.7020
       ZZZ   -3768.5101
    Hexadecapole Moments (Debye-Ang^3)
      XXXX  -68009.9917   XXXY   28551.3207   XXYY  -19640.6917
      XYYY   27211.4547   YYYY  -44233.5235   XXXZ   60244.2461
      XXYZ  -18073.4529   XYYZ   20382.4391   YYYZ  -46762.5656
      XXZZ  -46427.8805   XYZZ    9963.2141   YYZZ  -40209.6792
      XZZZ   51829.1966   YZZZ  -40728.2953   ZZZZ -174497.6829
 -----------------------------------------------------------------
 Calculating MO derivatives via CPSCF
 Full subspace dimension requested for CIS/TDDFT
 MAX_CIS_SUBSPACE fits in available memory
    1     0    36    0.0411242  
    2     0    36    0.0068279  
    3     0    36    0.0007822  
