                  Welcome to Q-Chem
     A Quantum Leap Into The Future Of Chemistry


 Q-Chem 5.4 (devel), Q-Chem, Inc., Pleasanton, CA (2021)

 E. Epifanovsky,  A. T. B. Gilbert,  Xintian Feng,  Joonho Lee,  Yuezhi Mao,  
 N. Mardirossian,  P. Pokhilko,  A. White,  M. Wormit,  M. P. Coons,  
 A. L. Dempwolff,  Zhengting Gan,  D. Hait,  P. R. Horn,  L. D. Jacobson,  
 I. Kaliman,  J. Kussmann,  A. W. Lange,  Ka Un Lao,  D. S. Levine,  Jie Liu,  
 S. C. McKenzie,  A. F. Morrison,  K. Nanda,  F. Plasser,  D. R. Rehn,  
 M. L. Vidal,  Zhi-Qiang You,  Ying Zhu,  B. Alam,  B. Albrecht,  
 A. Aldossary,  E. Alguire,  J. H. Andersen,  D. Barton,  K. Begam,  A. Behn,  
 Y. A. Bernard,  E. J. Berquist,  H. Burton,  A. Carreras,  K. Carter-Fenk,  
 R. Chakraborty,  A. D. Chien,  K. D. Closser,  V. Cofer-Shabica,  
 S. Dasgupta,  Jia Deng,  M. de Wergifosse,  M. Diedenhofen,  Hainam Do,  
 S. Ehlert,  Po-Tung Fang,  S. Fatehi,  Qingguo Feng,  T. Friedhoff,  
 J. Gayvert,  Qinghui Ge,  G. Gidofalvi,  M. Goldey,  J. Gomes,  
 C. Gonzalez-Espinoza,  S. Gulania,  A. Gunina,  M. W. D. Hanson-Heine,  
 P. H. P. Harbach,  A. W. Hauser,  M. F. Herbst,  M. Hernandez Vera,  
 M. Hodecker,  Z. C. Holden,  S. Houck,  Xunkun Huang,  Kerwin Hui,  
 B. C. Huynh,  M. Ivanov,  Hyunjun Ji,  Hanjie Jiang,  B. Kaduk,  S. Kaehler,  
 K. Khistyaev,  Jaehoon Kim,  P. Klunzinger,  Z. Koczor-Benda,  
 Joong Hoon Koh,  D. Kosenkov,  L. Koulias,  T. Kowalczyk,  C. M. Krauter,  
 K. Kue,  A. Kunitsa,  T. Kus,  A. Landau,  K. V. Lawler,  D. Lefrancois,  
 S. Lehtola,  Rain Li,  Yi-Pei Li,  Jiashu Liang,  M. Liebenthal,  
 Hung-Hsuan Lin,  You-Sheng Lin,  Fenglai Liu,  Kuan-Yu Liu,  
 M. Loipersberger,  A. Luenser,  A. Manjanath,  P. Manohar,  E. Mansoor,  
 S. F. Manzer,  Shan-Ping Mao,  A. V. Marenich,  T. Markovich,  S. Mason,  
 S. A. Maurer,  P. F. McLaughlin,  M. F. S. J. Menger,  J.-M. Mewes,  
 S. A. Mewes,  P. Morgante,  J. W. Mullinax,  K. J. Oosterbaan,  G. Paran,  
 Alexander C. Paul,  Suranjan K. Paul,  F. Pavosevic,  Zheng Pei,  S. Prager,  
 E. I. Proynov,  E. Ramos,  B. Rana,  A. E. Rask,  A. Rettig,  R. M. Richard,  
 F. Rob,  E. Rossomme,  T. Scheele,  M. Scheurer,  M. Schneider,  
 N. Sergueev,  S. M. Sharada,  W. Skomorowski,  D. W. Small,  C. J. Stein,  
 Yu-Chuan Su,  E. J. Sundstrom,  Zhen Tao,  J. Thirman,  T. Tsuchimochi,  
 N. M. Tubman,  S. P. Veccham,  O. Vydrov,  J. Wenzel,  J. Witte,  A. Yamada,  
 Kun Yao,  S. Yeganeh,  S. R. Yost,  A. Zech,  Igor Ying Zhang,  Xing Zhang,  
 Yu Zhang,  D. Zuev,  A. Aspuru-Guzik,  A. T. Bell,  N. A. Besley,  
 K. B. Bravaya,  B. R. Brooks,  D. Casanova,  Jeng-Da Chai,  S. Coriani,  
 C. J. Cramer,  A. E. DePrince, III,  R. A. DiStasio Jr.,  A. Dreuw,  
 B. D. Dunietz,  T. R. Furlani,  W. A. Goddard III,  S. Grimme,  
 S. Hammes-Schiffer,  T. Head-Gordon,  W. J. Hehre,  Chao-Ping Hsu,  
 T.-C. Jagau,  Yousung Jung,  A. Klamt,  Jing Kong,  D. S. Lambrecht,  
 WanZhen Liang,  N. J. Mayhall,  C. W. McCurdy,  J. B. Neaton,  
 C. Ochsenfeld,  J. A. Parkhill,  R. Peverati,  V. A. Rassolov,  Yihan Shao,  
 L. V. Slipchenko,  T. Stauch,  R. P. Steele,  J. E. Subotnik,  
 A. J. W. Thom,  A. Tkatchenko,  D. G. Truhlar,  T. Van Voorhis,  
 T. A. Wesolowski,  K. B. Whaley,  H. L. Woodcock III,  P. M. Zimmerman,  
 S. Faraji,  P. M. W. Gill,  M. Head-Gordon,  J. M. Herbert,  A. I. Krylov

 Additional authors for Version 5.4.1: 
 S. Kotaru,  Shaozhi Li,  Xiangyuan Li,  F. Matz,  A. Molle,  Haisheng Ren,  
 Yingli Su,  Hung-Yi Tsai,  C. Utku,  Fang Wang

 Contributors to earlier versions of Q-Chem not listed above: 
 R. D. Adamson,  B. Austin,  R. Baer,  J. Baker,  G. J. O. Beran,  
 K. Brandhorst,  S. T. Brown,  E. F. C. Byrd,  A. K. Chakraborty,  
 G. K. L. Chan,  Chun-Min Chang,  Yunqing Chen,  C.-L. Cheng,  
 Siu Hung Chien,  D. M. Chipman,  D. L. Crittenden,  H. Dachsel,  
 R. J. Doerksen,  A. D. Dutoi,  R. G. Edgar,  J. Fosso-Tande,  
 L. Fusti-Molnar,  D. Ghosh,  A. Ghysels,  A. Golubeva-Zadorozhnaya,  
 J. Gonthier,  M. S. Gordon,  S. R. Gwaltney,  G. Hawkins,  J. E. Herr,  
 A. Heyden,  S. Hirata,  E. G. Hohenstein,  G. Kedziora,  F. J. Keil,  
 C. Kelley,  Jihan Kim,  R. A. King,  R. Z. Khaliullin,  P. P. Korambath,  
 W. Kurlancheek,  A. Laurent,  A. M. Lee,  M. S. Lee,  S. V. Levchenko,  
 Ching Yeh Lin,  D. Liotard,  E. Livshits,  R. C. Lochan,  I. Lotan,  
 L. A. Martinez-Martinez,  P. E. Maslen,  N. Nair,  D. P. O'Neill,  
 D. Neuhauser,  E. Neuscamman,  C. M. Oana,  R. Olivares-Amaya,  R. Olson,  
 T. M. Perrine,  B. Peters,  P. A. Pieniazek,  A. Prociuk,  Y. M. Rhee,  
 J. Ritchie,  M. A. Rohrdanz,  E. Rosta,  N. J. Russ,  H. F. Schaefer III,  
 M. W. Schmidt,  N. E. Schultz,  S. Sharma,  N. Shenvi,  C. D. Sherrill,  
 A. C. Simmonett,  A. Sodt,  T. Stein,  D. Stuck,  K. S. Thanthiriwatte,  
 V. Vanovschi,  L. Vogt,  Tao Wang,  A. Warshel,  M. A. Watson,  
 C. F. Williams,  Q. Wu,  X. Xu,  Jun Yang,  W. Zhang,  Yan Zhao

 Please cite Q-Chem as follows:
 Y. Shao et al., Mol. Phys. 113, 184-215 (2015)
 DOI: 10.1080/00268976.2014.952696

 Q-Chem 5.4.1 for Intel X86 EM64T Linux

 Parts of Q-Chem use Armadillo 9.900.5 (Nocturnal Misbehaviour).
 http://arma.sourceforge.net/

 Q-Chem begins on Wed Jun 22 16:41:24 2022  

 Host: p09r14n13.grace.hpc.yale.internal
0

     Scratch files written to /home/tl686/scratch60/qchem_dev/scratch/qchem247454//
 Processing $rem in /home/tl686/qchem_dev/qchem/config/preferences:
 Processing $rem in /home/tl686/.qchemrc:
Applying user defined connections for MM calculations

 Checking the input file for inconsistencies... 	...done.

--------------------------------------------------------------
User input:
--------------------------------------------------------------
$molecule
0   1
 Fe 109.28767993 -4.83298732 37.50223051    -1  0   0   0   0
C 111.23953999 -7.08445918 38.77935257    -2  0   0   0   0 
C 106.43429878 -5.06703102 35.58147514    -2  0   0   0   0
C 110.21903260 -1.72123315 38.49521045    -2  0   0   0   0
C 111.14270884 -4.49618129 34.67629309    -2  0   0   0   0
C 107.10271570 -5.56719529 39.99204165    -2  0   0   0   0
O 112.50413639 -8.71467214 39.67011732    -3  0   0   0   0
O 104.57953307 -5.21854495 34.38772885    -3  0   0   0   0 
O 111.09653885 0.16621807 39.02816247    -3  0   0   0   0
O 112.15321938 -4.27465380 32.69469606    -3  0   0   0   0 
O 105.47989864 -5.91895570 41.55761265    -3  0   0   0   0
H 137.81984190 -3.61879996 46.57580805      6     13    0    0    0 
C 139.15458459 -5.07899203 47.13959929     1     12    14    15    16
H 141.08654957 -4.28994287 46.68722975     6     13    0    0    0
H 139.02591874 -5.38783997 49.14559315     6     13    0    0    0
C 138.85112237 -7.56716391 45.74046520     2     13    17    18    19
H 139.17184129 -7.17337905 43.71191339     6     16    0    0    0
H 140.24762616 -8.87561304 46.49047219     6     16    0    0    0
C 136.12105630 -8.55449213 46.13317170     2     16    20   21   22
H 135.50412689 -8.32885624 48.11962257     6     19    0    0    0
H 134.61494273 -7.51668380 45.04389319     6     19    0    0    0
C 135.60610756 -11.35158912 45.22422155     2     19   23   24   25
H 136.78468351 -11.79504384 43.53552686     6    22    0    0    0
H 136.39385205 -12.70048167 46.51134825     6    22    0    0    0
C 132.83487739 -11.76518806 44.38409049     2    22   26   27   28
H 131.71554625 -11.64697451 46.04034940     6    25    0    0    0
H 132.21618378 -10.31935525 42.95793528     6    25    0    0    0
C 132.43206572 -14.48086510 43.23771252     2    25   29   30   31
H 133.58106359 -14.51740102 41.55354088     6    28    0    0    0
H 133.08143719 -16.00123728 44.60023232     6    28    0    0    0
C 129.70606482 -15.09630271 42.65470205     2    28   32   33   34
H 128.87599101 -15.44643335 44.55293435     6    31    0    0    0
H 128.75746263 -13.45965085 41.78306657     6    31    0    0    0
C 129.51152815 -17.46957444 40.81329461     2    31   35   36   37
H 130.21918834 -16.86321082 38.91377745     6    34    0    0    0
H 130.87764478 -18.75717621 41.73863737     6    34    0    0    0
C 126.72569518 -18.22187558 40.55041336     2    34   38   39   40
H 125.95092212 -18.53792042 42.34326555     6    37    0    0    0
H 125.66814815 -16.54620385 39.75982751     6    37    0    0    0
C 126.49498481 -20.35307004 38.58960773     2    37   41   42   43
H 127.53031390 -19.89654565 36.82350519     6    40    0    0    0
H 127.36880823 -22.06570971 39.28831974     6    40    0    0    0
C 123.69984045 -20.63958934 37.90061404     2    40   44   45   46
H 122.60471934 -21.36060052 39.45119293     6    43    0    0    0
H 123.01731767 -18.70568878 37.38754784     6    43    0    0    0
C 123.25055706 -22.09683641 35.47471428     1    43   47   48   49
H 124.18687008 -21.44822317 33.81319219     6    46    0    0    0
H 121.26704806 -22.27191229 35.11892415     6    46    0    0    0
H 123.85926040 -24.00987947 35.62558987     6    46    0    0    0
H 116.60447408 -16.71753024 36.68041913     6     51    0    0    0 
C 115.64946944 -14.96367073 36.36765379     1     50    52    53    54
H 113.83361627 -15.32973999 35.39767693     6     51    0    0    0
H 115.15122805 -14.00074630 38.15835156     6     51    0    0    0
C 117.29206953 -13.21877576 34.62796636     2     51    55    56    57
H 116.15229120 -11.60133214 34.80736547     6     54    0    0    0
H 119.02458879 -12.76721632 35.52914620     6     54    0    0    0
C 117.50211506 -14.24189403 31.95150386     2     54    58   59   60
H 115.49161682 -14.31368811 31.18504771     6     57    0    0    0
H 118.55315008 -12.75501182 30.82380447     6     57    0    0    0
C 118.58578074 -16.95383120 31.94342596     2     57   61   62   63
H 120.29650242 -16.80910034 33.03501382     6    60    0    0    0
H 117.25783414 -18.30333892 32.76683811     6    60    0    0    0
C 119.25115781 -17.75953949 29.27839090     2    60   64   65   66
H 117.60877107 -17.74689084 28.15519134     6    63    0    0    0
H 120.47169468 -16.28481342 28.42637500     6    63    0    0    0
C 120.54946526 -20.38876197 28.99920564     2    63   67   68   69
H 121.34886930 -20.35727960 27.09599454     6    66    0    0    0
H 122.03035799 -20.79066073 30.27257064     6    66    0    0    0
C 118.50096590 -22.64566804 28.97974684     2    66   70   71   72
H 117.45304866 -22.52771982 30.68346536     6    69    0    0    0
H 117.09533044 -22.34767963 27.39390909     6    69    0    0    0
C 119.67381476 -25.23884432 29.08792390     2    69   73   74   75
H 121.20269103 -25.36863829 27.67901109     6    72    0    0    0
H 120.41167952 -25.58666251 30.95668803     6    72    0    0    0
C 117.78545086 -27.28379316 28.73203826     2    72   76   77   78
H 116.26990815 -27.23156396 30.29621454     6    75    0    0    0
H 116.92426935 -26.99006659 26.77987875     6    75    0    0    0
C 118.93495670 -29.99092965 28.29678899     2    75   79   80   81
H 119.97219607 -30.15418684 26.55752396     6    78    0    0    0
H 120.25543723 -30.55544959 29.69708048     6    78    0    0    0
C 117.02800160 -32.05178706 28.02933603     2    78   82   83   84
H 115.95008284 -32.68748963 29.77370799     6    81    0    0    0
H 115.57421082 -31.67424372 26.63882915     6    81    0    0    0
C 118.45954691 -34.42425630 27.27818990     1    81   85   86   87
H 117.26456980 -36.02630498 26.53446874     6    84    0    0    0
H 119.50264552 -35.17243307 28.78235496     6    84    0    0    0
H 119.90384774 -34.07706257 25.89433701     6    84    0    0    0
H 142.52412562 -0.17430964 31.44459920     6     89    0    0    0 
C 141.07167480 -1.22872916 30.40645913     1     88    90    91    92
H 139.54416629 -1.64833167 31.79918214     6     89    0    0    0
H 140.32032264 -0.00112711 28.97736049     6     89    0    0    0
C 142.29025573 -3.47640679 28.99570786     2     89    93    94    95
H 141.75184658 -3.21157810 27.05366619     6     92    0    0    0
H 144.28077254 -3.65493936 29.34070187     6     92    0    0    0
C 140.95736249 -5.89085573 29.96135149     2     92    96   97   98
H 141.19875978 -5.97863017 31.97778992     6     95    0    0    0
H 138.87483200 -5.65395009 29.65939784     6     95    0    0    0
C 142.12311388 -8.29908254 28.88188398     2     95   99   100   101
H 142.72735356 -8.00654880 26.97772244     6    98    0    0    0
H 143.88010381 -8.38369159 30.01963914     6    98    0    0    0
C 140.59028290 -10.71732306 28.94164922     2    98   102   103   104
H 139.52972471 -10.86469221 30.73203171     6    101    0    0    0
H 139.07442553 -10.34705503 27.63677768     6    101    0    0    0
C 141.99609107 -13.13558192 28.21858291     2    101   105   106   107
H 142.80438449 -13.06455664 26.34043363     6    104    0    0    0
H 143.75698405 -13.16271933 29.28433594     6    104    0    0    0
C 140.43170908 -15.62628924 28.41595551     2    104   108   109   110
H 140.28593781 -16.14229989 30.38114602     6    107    0    0    0
H 138.37600028 -15.14835110 28.07708065     6    107    0    0    0
C 141.12028362 -17.82366160 26.69746280     2    107   111   112   113
H 141.06578425 -17.18852695 24.84629912     6    110    0    0    0
H 143.18519027 -18.08126633 27.04206904     6    110    0    0    0
C 139.58306065 -20.21867771 27.34065725     2    110   114   115   116
H 139.65989009 -20.46553500 29.40734921     6    113    0    0    0
H 137.64677280 -19.95371838 26.67196055     6    113    0    0    0
C 140.82041478 -22.49296785 26.13964496     2    113   117   118   119
H 141.07805480 -22.12666084 24.00020114     6    116    0    0    0
H 142.65644070 -22.47363750 27.02460421     6    116    0    0    0
C 139.73105688 -25.11336193 26.58621749     2    116   120   121   122
H 141.33141158 -26.35004870 26.35156886     6    119    0    0    0
H 139.16805343 -25.44250687 28.56530341     6    119    0    0    0
C 137.64452561 -25.93754663 24.71204053     1    119   123   124   125
H 137.12478157 -27.72947829 25.12968487     6    122    0    0    0
H 138.59680700 -25.93557634 22.82260738     6    122    0    0    0
H 136.06885438 -24.59116783 24.75332625     6    122    0    0    0
H 132.80386459 15.16663880 16.16076787     6     127    0    0    0 
C 131.65804939 13.98458904 17.37347892     1     126    128    129    130
H 130.06062430 13.23869903 16.27916157     6     127    0    0    0
H 132.77629794 12.33493720 17.92883854     6     127    0    0    0
C 130.89514039 15.41239360 19.74977205     2     127    131    132    133
H 132.52705148 16.12984714 20.77907026     6     130    0    0    0
H 130.08467112 17.05156308 18.95779116     6     130    0    0    0
C 129.06249836 13.80534118 21.26198551     2     130    134   135   136
H 127.63700385 13.46185496 19.84394175     6     133    0    0    0
H 129.95647891 11.91488091 21.65007629     6     133    0    0    0
C 127.91480936 14.99688551 23.52217278     2     133   137   138   139
H 129.34960834 15.59428044 24.89079200     6    136    0    0    0
H 126.94351136 16.73810597 23.00659080     6    136    0    0    0
C 126.00074003 13.19200325 24.82400315     2    136   140   141   142
H 124.71926738 12.42023706 23.52714259     6    139    0    0    0
H 127.02364279 11.61013112 25.51176179     6    139    0    0    0
C 124.55522908 14.32313160 27.13739224     2    139   143   144   145
H 125.97414192 14.71351000 28.74644974     6    142    0    0    0
H 123.57138130 15.99312750 26.85729234     6    142    0    0    0
C 122.82257380 12.30885689 28.37194114     2    142   146   147   148
H 121.29847232 11.61729684 27.28375986     6    145    0    0    0
H 123.91028805 10.77159748 28.93382580     6    145    0    0    0
C 121.89846631 13.64509440 30.86901435     2    145   149   150   151
H 123.46613905 14.29790961 31.92759401     6    148    0    0    0
H 120.70462354 15.32135751 30.45838393     6    148    0    0    0
C 120.63677392 11.74643587 32.77294779     2    148   152   153   154
H 118.94470313 10.78020213 31.95625163     6    151    0    0    0
H 121.93128598 10.29099287 33.43866992     6    151    0    0    0
C 119.58737890 13.09709862 35.07468162     2    151   155   156   157
H 120.86321300 14.51255532 35.91824398     6    154    0    0    0
H 117.94639557 14.08416987 34.52911032     6    154    0    0    0
C 118.61175891 11.05095828 36.98930241     2    154   158   159   160
H 117.05493698 9.84218789 36.05313045     6    157    0    0    0
H 120.34382294 9.95029410 37.40247375     6    157    0    0    0
C 117.76973432 12.21321476 39.70066725     1    157   161   162   163
H 116.54404467 10.81148058 40.72982100     6    160    0    0    0
H 116.78922632 13.91582142 39.39537796     6    160    0    0    0
H 119.44012752 12.70718915 40.74977951     6    160    0    0    0
H 124.26943100 -10.36033931 0.79701851     6     165    0    0    0 
C 123.83549402 -8.41650866 1.13997292     1     164    166    167    168
H 124.34320419 -7.31495697 -0.57388633     6     165    0    0    0
H 121.85237518 -8.21944767 1.58424015     6     165    0    0    0
C 125.46737747 -7.41284439 3.33943621     2     165    169    170    171
H 125.19695199 -8.33646122 5.22569552     6     168    0    0    0
H 127.35464318 -7.97371168 2.97340588     6     168    0    0    0
C 125.49680785 -4.55621798 3.67160852     2     168    172   173   174
H 124.86476701 -3.63464444 1.76667346     6     171    0    0    0
H 123.93204113 -3.94313274 4.83221178     6     171    0    0    0
C 127.76725919 -3.54556770 5.04640193     2     171   175   176   177
H 127.55330723 -3.94805689 7.06907515     6    174    0    0    0
H 129.42935117 -4.61042779 4.32306366     6    174    0    0    0
C 128.30035374 -0.87406729 4.56207223     2    174   178   179   180
H 128.09832505 -0.50931898 2.62214629     6    177    0    0    0
H 126.64342014 0.19859011 5.21961316     6    177    0    0    0
C 130.69769149 0.01729749 5.76807848     2    177   181   182   183
H 130.59630482 -0.57564520 7.70842084     6    180    0    0    0
H 132.37705580 -0.76187794 5.03182409     6    180    0    0    0
C 130.86084624 2.95661640 5.71837432     2    180   184   185   186
H 131.04460604 3.43951743 3.59361219     6    183    0    0    0
H 128.94425571 3.80793236 5.87609870     6    183    0    0    0
C 132.94234882 4.26464973 7.34709964     2    183   187   188   189
H 132.50020379 4.35489210 9.37240226     6    186    0    0    0
H 134.73521121 3.21933482 7.13083098     6    186    0    0    0
C 133.38723482 7.03677933 6.64856284     2    186   190   191   192
H 133.96164343 6.96321014 4.63589267     6    189    0    0    0
H 131.59305794 8.05733764 6.76210424     6    189    0    0    0
C 135.51304826 8.22792617 8.30516712     2    189   193   194   195
H 135.34421475 7.66025365 10.24661734     6    192    0    0    0
H 137.39886222 7.30678920 7.79138336     6    192    0    0    0
C 135.34474595 11.10497323 8.01386783     2    192   196   197   198
H 136.24869198 11.73201297 6.26419512     6    195    0    0    0
H 133.36064061 11.76361365 7.92918472     6    195    0    0    0
C 136.72961780 12.79820083 10.01134084     1    195   199   200   201
H 136.34056533 14.81491423 9.67992514     6    198    0    0    0
H 138.70163214 12.29878192 10.06341518     6    198    0    0    0
H 135.68349185 12.61275126 11.95736262     6    198    0    0    0
H 119.89226086 -9.48631890 13.27953095     6     203    0    0    0 
C 119.43946068 -7.88278622 11.97704803     1     202    204    205    206
H 117.41488453 -7.54630008 11.87726651     6     203    0    0    0
H 120.18841264 -6.29221793 12.88864083     6     203    0    0    0
C 120.66214852 -8.17787973 9.38576140     2     203    207    208    209
H 120.49696074 -6.55158030 8.25561206     6     206    0    0    0
H 122.64451364 -8.26176079 9.81784842     6     206    0    0    0
C 119.83168723 -10.78674335 8.14697949     2     206    210   211   212
H 121.39412873 -11.39463916 6.92125295     6     209    0    0    0
H 119.50344675 -12.34288485 9.47294402     6     209    0    0    0
C 117.37847588 -10.61139540 6.29807609     2     209   213   214   215
H 115.83078344 -9.94611006 7.40736548     6    212    0    0    0
H 118.11140141 -9.04400194 4.92088669     6    212    0    0    0
C 116.69678918 -13.25943767 5.03325160     2    212   216   217   218
H 118.41120603 -14.20264639 4.31872704     6    215    0    0    0
H 115.81528165 -14.40514809 6.45862616     6    215    0    0    0
C 114.89977478 -12.81944989 2.81829401     2    215   219   220   221
H 113.59093594 -11.32886523 3.30281701     6    218    0    0    0
H 116.02356676 -12.00640247 1.27728801     6    218    0    0    0
C 113.30266545 -15.12841652 1.97856141     2    218   222   223   224
H 112.07392385 -14.48003662 0.34789793     6    221    0    0    0
H 114.25246148 -16.87709114 1.18665352     6    221    0    0    0
C 111.48943729 -16.21448101 4.09962720     2    221   225   226   227
H 112.58508952 -17.34173818 5.41668582     6    224    0    0    0
H 110.79117702 -14.39377720 4.87164589     6    224    0    0    0
C 109.26140448 -17.89016708 3.22382953     2    224   228   229   230
H 108.50428032 -17.11257307 1.44566253     6    227    0    0    0
H 110.25220473 -19.70910329 2.70677257     6    227    0    0    0
C 107.12195577 -18.02299376 5.13002399     2    227   231   232   233
H 107.60593725 -18.83375266 6.89803593     6    230    0    0    0
H 106.36973770 -16.12116891 5.49566487     6    230    0    0    0
C 104.76815748 -19.52265443 4.17542149     2    230   234   235   236
H 103.64053794 -18.50563226 2.80562399     6    233    0    0    0
H 105.23319134 -21.38304731 3.43006126     6    233    0    0    0
C 102.82900923 -19.65628160 6.35473155     1    233   237   238   239
H 101.61267201 -18.06015855 6.36347725     6    236    0    0    0
H 103.56621831 -19.98828846 8.07588598     6    236    0    0    0
H 101.70135985 -21.24141647 5.95644137     6    236    0    0    0
H 128.60524876 -29.52709825 26.24174111     6     241    0    0    0 
C 129.78227094 -27.79177631 25.76956646     1     240    242    243    244
H 131.32747450 -28.49754760 24.67477224     6     241    0    0    0
H 128.68262617 -26.48417427 24.67894313     6     241    0    0    0
C 131.01913708 -26.34776039 27.94287337     2     241    245    246    247
H 132.22950573 -27.61423347 29.15242878     6     244    0    0    0
H 132.35091009 -25.11029208 27.25600269     6     244    0    0    0
C 128.99079845 -25.09441589 29.61896226     2     244    248   249   250
H 129.88442541 -24.00014967 31.10402436     6     247    0    0    0
H 128.09774337 -23.66611123 28.47189869     6     247    0    0    0
C 127.11765493 -27.04775817 30.91464235     2     247   251   252   253
H 125.65738936 -25.76553658 31.73428189     6    250    0    0    0
H 126.43596800 -28.32818583 29.54937911     6    250    0    0    0
C 128.49697237 -28.76315179 32.83003184     2    250   254   255   256
H 130.21075981 -29.54890216 32.10907525     6    253    0    0    0
H 129.25889263 -27.63607019 34.47425303     6    253    0    0    0
C 126.95434820 -30.82567227 34.08412942     2    253   257   258   259
H 128.12599875 -31.48898316 35.53416524     6    256    0    0    0
H 125.10334636 -30.12051940 34.87623508     6    256    0    0    0
C 126.33501841 -33.25693337 32.43098301     2    256   260   261   262
H 124.90437686 -32.55098746 31.08204401     6    259    0    0    0
H 127.90597318 -33.82165779 31.26837237     6    259    0    0    0
C 124.93920134 -35.33124792 33.81337150     2    259   263   264   265
H 126.03899137 -35.91870447 35.45470274     6    262    0    0    0
H 123.24643342 -34.44114850 34.52200981     6    262    0    0    0
C 124.33948544 -37.64777280 32.16802138     2    262   266   267   268
H 122.62908957 -38.49168030 32.84744404     6    265    0    0    0
H 123.62830023 -36.89348420 30.39337257     6    265    0    0    0
C 126.59052774 -39.57807601 31.77789780     2    265   269   270   271
H 128.38846915 -38.64063555 31.34420125     6    268    0    0    0
H 126.81304386 -40.44095003 33.66843726     6    268    0    0    0
C 126.00206768 -41.82231605 29.98969268     2    268   272   273   274
H 124.15899758 -42.49625426 30.37082127     6    271    0    0    0
H 125.93384784 -41.13474553 28.06549562     6    271    0    0    0
C 127.91583545 -44.06047019 30.21206189     1    271   275   276   277
H 129.59789737 -43.40122227 29.22180219     6    274    0    0    0
H 127.16216704 -45.72251931 29.28621466     6    274    0    0    0
H 128.11185127 -44.48058722 32.23643125     6    274    0    0    0
H 130.93481378 -10.28161939 18.52776469     6     279    0    0    0 
C 131.96107440 -10.38590791 16.89351779     1     278    280    281    282
H 131.64707468 -8.52356999 16.02144369     6     279    0    0    0
H 133.95685165 -10.90846322 17.29586758     6     279    0    0    0
C 130.67815977 -12.11159854 14.97048808     2     279    283    284    285
H 128.90471866 -11.16823391 14.41823478     6     282    0    0    0
H 131.84261398 -12.33013246 13.22152216     6     282    0    0    0
C 130.09727035 -14.62314747 16.06926245     2     282    286   287   288
H 131.82515358 -15.47301875 16.76524481     6     285    0    0    0
H 128.87228273 -14.34193694 17.76665837     6     285    0    0    0
C 129.18527038 -16.64297291 14.08122089     2     285   289   290   291
H 127.55878452 -15.79383463 13.25600149     6    288    0    0    0
H 130.73472023 -17.01495952 12.72621618     6    288    0    0    0
C 128.25950134 -19.05526367 15.44006974     2    288   292   293   294
H 129.63863635 -19.83550332 16.63367077     6    291    0    0    0
H 126.67504896 -18.34789181 16.57961828     6    291    0    0    0
C 127.10231275 -20.95758566 13.53362724     2    291   295   296   297
H 125.82376495 -20.02929895 12.20864388     6    294    0    0    0
H 128.39722213 -21.95753463 12.35351466     6    294    0    0    0
C 125.48434167 -23.12933204 14.46978835     2    294   298   299   300
H 126.81443469 -23.92133686 15.93678135     6    297    0    0    0
H 123.79591382 -22.41537176 15.33090702     6    297    0    0    0
C 124.71670139 -25.02589285 12.40008477     2    297   301   302   303
H 124.09113549 -23.68854723 10.95665994     6    300    0    0    0
H 126.41848856 -25.79440456 11.82491755     6    300    0    0    0
C 122.54830595 -26.97258955 13.38489660     2    300   304   305   306
H 123.30959756 -27.77393882 15.09067742     6    303    0    0    0
H 120.77908754 -25.90761351 14.02986424     6    303    0    0    0
C 121.76503607 -28.89668035 11.43072382     2    303   307   308   309
H 120.91185253 -27.93701380 9.80508637     6    306    0    0    0
H 123.44892378 -29.86962867 10.86960114     6    306    0    0    0
C 119.72554812 -30.84877201 12.31460682     2    306   310   311   312
H 120.47025073 -32.37603015 13.57812663     6    309    0    0    0
H 118.59476233 -29.78532939 13.79173648     6    309    0    0    0
C 118.09849642 -32.28456169 10.39627647     1    309   313   314   315
H 119.35000491 -33.75601440 9.57327001     6    312    0    0    0
H 117.58028354 -31.01009897 8.89911084     6    312    0    0    0
H 116.47198630 -33.17111861 11.14264160     6    312    0    0    0
H 134.61631044 -2.12760058 34.76177200     6     317    0    0    0 
C 134.59502910 -0.88198447 36.31945850     1     316    318    319    320
H 134.60407909 -1.92189214 38.11757049     6     317    0    0    0
H 136.24774325 0.23568268 36.07291233     6     317    0    0    0
C 132.27529805 0.84411595 35.92072659     2     317    321    322    323
H 132.38842308 2.18829437 37.46380798     6     320    0    0    0
H 132.37642528 1.69150707 34.08148052     6     320    0    0    0
C 129.71696081 -0.47477130 36.02731990     2     320    324   325   326
H 129.82242295 -1.87761358 34.56745651     6     323    0    0    0
H 129.70975998 -1.50065622 37.85078642     6     323    0    0    0
C 127.44656069 1.14346297 35.65717656     2     323   327   328   329
H 127.50806467 2.70080664 37.04802724     6    326    0    0    0
H 126.96170404 1.77612941 33.77781008     6    326    0    0    0
C 125.05179137 -0.17162304 36.40076591     2    326   330   331   332
H 124.49938165 -1.56237036 34.89884416     6    329    0    0    0
H 125.46070428 -1.21804586 38.08260996     6    329    0    0    0
C 122.83219448 1.69419225 36.75182020     2    329   333   334   335
H 122.19990823 2.54961690 35.02549550     6    332    0    0    0
H 121.34586849 0.43822327 37.43164177     6    332    0    0    0
C 123.14802974 3.73269860 38.71348183     2    332   336   337   338
H 124.39157518 2.84391745 40.05255970     6    335    0    0    0
H 124.36160386 5.18210516 37.85968443     6    335    0    0    0
C 120.78312643 4.93373068 39.91920978     2    335   339   340   341
H 121.30410161 6.54881748 40.99632961     6    338    0    0    0
H 119.40555382 5.56382438 38.48321121     6    338    0    0    0
C 119.33166223 3.19974811 41.69919924     2    338   342   343   344
H 118.24049912 1.71351744 40.65480389     6    341    0    0    0
H 120.71148222 2.26802465 43.02706218     6    341    0    0    0
C 117.41869270 4.34669034 43.54620533     2    341   345   346   347
H 116.59191118 2.87873509 44.67594119     6    344    0    0    0
H 118.32657543 5.92803063 44.46350975     6    344    0    0    0
C 115.07312749 5.36787981 42.23487564     2    344   348   349   350
H 115.47901602 6.78709109 40.72086080     6    347    0    0    0
H 114.37637170 3.65517514 41.30928568     6    347    0    0    0
C 113.12771302 6.65499529 44.07579551     1    347   351   352   353
H 111.46892866 7.23031748 42.93225492     6    350    0    0    0
H 113.95439490 8.36294311 44.99658743     6    350    0    0    0
H 112.43662807 5.44985945 45.57775754     6    350    0    0    0
H 130.42013296 -23.49290118 21.26834410     6     355    0    0    0 
C 129.62311474 -21.82251095 22.03380860     1     354    356    357    358
H 128.64432966 -20.68095296 20.60520789     6     355    0    0    0
H 128.10195154 -22.44110860 23.37535471     6     355    0    0    0
C 131.58846941 -20.22141756 23.46702303     2     355    359    360    361
H 132.07146928 -21.20842847 25.18068768     6     358    0    0    0
H 133.38119083 -19.69192818 22.49421635     6     358    0    0    0
C 130.49818988 -17.72397802 24.51676818     2     358    362   363   364
H 129.67009276 -16.49531172 22.95969738     6     361    0    0    0
H 129.03336814 -18.13715793 25.94626786     6     361    0    0    0
C 132.36988596 -16.21004270 26.10842267     2     361   365   366   367
H 132.68150894 -17.12631198 27.84725455     6    364    0    0    0
H 134.26214823 -16.05750566 25.32996938     6    364    0    0    0
C 131.36152930 -13.72688225 26.93932899     2    364   368   369   370
H 129.93001146 -13.11292482 25.62097776     6    367    0    0    0
H 130.35552554 -13.87336267 28.68750554     6    367    0    0    0
C 133.41299532 -11.91991975 27.36310125     2    367   371   372   373
H 134.86545963 -12.78271074 28.84912259     6    370    0    0    0
H 134.38904039 -11.49517822 25.59049313     6    370    0    0    0
C 132.53561915 -9.32598088 28.57009019     2    370   374   375   376
H 131.37685478 -9.52750811 30.30772455     6    373    0    0    0
H 134.30593311 -8.33715443 29.09391062     6    373    0    0    0
C 130.97616196 -7.62739396 26.81937918     2    373   377   378   379
H 131.96538832 -7.28034438 25.08394598     6    376    0    0    0
H 129.17770396 -8.40130265 26.38489652     6    376    0    0    0
C 130.65039952 -4.96794285 28.09247774     2    376   380   381   382
H 129.51238847 -5.05040804 29.78311690     6    379    0    0    0
H 132.48399905 -4.37173952 28.70683733     6    379    0    0    0
C 129.64385466 -3.04644253 26.24015727     2    379   383   384   385
H 130.91071934 -2.75432050 24.66522235     6    382    0    0    0
H 127.81019531 -3.56148277 25.61104741     6    382    0    0    0
C 129.63017223 -0.53122726 27.64379045     2    382   386   387   388
H 129.10391495 0.93988963 26.22192507     6    385    0    0    0
H 128.16965140 -0.33745352 29.05819285     6    385    0    0    0
C 132.16175960 0.50976264 28.51752008     1    385   389   390   391
H 133.48653765 0.45065342 27.00245938     6    388    0    0    0
H 132.88596961 -0.62479182 30.05789088     6    388    0    0    0
H 131.92018422 2.49612415 28.99092485     6    388    0    0    0
H 99.76239951 2.40807448 63.90500893     6     393    0    0    0 
C 101.08719626 3.48389211 62.72127692     1     392    394    395    396
H 100.16641381 4.26880976 61.08749327     6     393    0    0    0
H 101.64921982 5.14195369 63.89509075     6     393    0    0    0
C 103.08984189 1.59170073 61.85902292     2     393    397    398    399
H 103.98826172 2.27106220 60.11310213     6     396    0    0    0
H 104.49344294 1.39582286 63.25977001     6     396    0    0    0
C 101.95147371 -1.02549239 61.55318873     2     396    400   401   402
H 101.96095674 -2.05060061 63.31719820     6     399    0    0    0
H 99.92616241 -1.00259260 61.08543584     6     399    0    0    0
C 103.32691677 -2.59428154 59.70054425     2     399   403   404   405
H 102.92768413 -1.90617468 57.72798192     6    402    0    0    0
H 105.34906139 -2.80318017 60.41446842     6    402    0    0    0
C 102.51531481 -5.34482668 59.92135446     2    402   406   407   408
H 102.72863792 -6.01552359 61.78205187     6    405    0    0    0
H 100.55263148 -5.27861448 59.28675795     6    405    0    0    0
C 104.08585895 -7.11098614 58.14391838     2    405   409   410   411
H 104.76978747 -6.33913296 56.41462844     6    408    0    0    0
H 105.85989071 -7.54940903 59.01320236     6    408    0    0    0
C 102.74896535 -9.38314812 57.15041113     2    408   412   413   414
H 101.65420627 -10.10815859 58.89545330     6    411    0    0    0
H 101.26073406 -9.16993942 55.69881664     6    411    0    0    0
C 104.69870686 -11.31266153 56.11562574     2    411   415   416   417
H 105.95767882 -10.30510482 54.80780856     6    414    0    0    0
H 105.74473795 -11.97241950 57.70542561     6    414    0    0    0
C 103.23471485 -13.20190329 54.63004619     2    414   418   419   420
H 101.80151182 -14.08277046 55.71368646     6    417    0    0    0
H 102.47549147 -12.25201021 52.99420990     6    417    0    0    0
C 104.98446004 -15.33580897 53.46610823     2    417   421   422   423
H 106.42426111 -14.53491692 52.13725622     6    420    0    0    0
H 105.83856426 -16.43733329 54.90830064     6    420    0    0    0
C 103.31631056 -17.30026790 52.25762625     2    420   424   425   426
H 101.82237905 -17.74108869 53.39541696     6    423    0    0    0
H 102.58939713 -16.64399485 50.56043445     6    423    0    0    0
C 104.84931256 -19.81643682 51.92243695     1    423   427   428   429
H 103.92688460 -21.10042392 50.53882766     6    426    0    0    0
H 105.25857086 -20.74794534 53.69308717     6    426    0    0    0
H 106.73432489 -19.52857533 51.26422675     6    426    0    0    0
H 121.06044762 -18.40920690 49.52848458     6     431    0    0    0 
C 122.03883527 -18.09268519 51.36127928     1     430    432    433    434
H 122.03567010 -19.91408674 52.49917344     6     431    0    0    0
H 123.96137034 -17.81450321 50.69420885     6     431    0    0    0
C 120.71291091 -15.80524018 52.53657249     2     431    435    436    437
H 120.97073849 -14.10280463 51.35231415     6     434    0    0    0
H 118.78020886 -16.21151318 52.95817816     6     434    0    0    0
C 121.93836632 -15.27037142 55.00253535     2     434    438   439   440
H 121.96498233 -17.01370761 56.26876163     6     437    0    0    0
H 123.85116580 -14.46724081 54.58233414     6     437    0    0    0
C 120.51526416 -13.10176763 56.44746640     2     437   441   442   443
H 121.95575982 -12.16173239 57.43084637     6    440    0    0    0
H 119.93300514 -11.72263463 54.91356966     6    440    0    0    0
C 118.26433012 -13.79783610 58.07791102     2    440   444   445   446
H 116.63786437 -14.18646580 56.80916867     6    443    0    0    0
H 118.55918294 -15.63210381 59.06785521     6    443    0    0    0
C 117.34509926 -11.54702640 59.89128748     2    443   447   448   449
H 119.04128175 -11.01804651 60.99535369     6    446    0    0    0
H 116.95725804 -9.73884869 59.02517628     6    446    0    0    0
C 115.21582175 -12.31728056 61.70486888     2    446   450   451   452
H 113.68297264 -13.34765628 60.67830035     6    449    0    0    0
H 116.00042899 -13.90816219 62.74439453     6    449    0    0    0
C 114.39246984 -10.07842222 63.39495091     2    449   453   454   455
H 115.95168229 -9.34521312 64.53955738     6    452    0    0    0
H 113.74116838 -8.51863965 62.25457452     6    452    0    0    0
C 112.43187380 -10.92863988 65.34426787     2    452   456   457   458
H 110.75974986 -11.30027760 64.30433032     6    455    0    0    0
H 113.01270141 -12.78836234 65.99653030     6    455    0    0    0
C 111.75033474 -9.05922718 67.42949720     2    455   459   460   461
H 110.83756222 -10.06772376 69.05484477     6    458    0    0    0
H 113.42077770 -8.11086808 68.09744688     6    458    0    0    0
C 109.50173480 -7.38663475 66.48263711     2    458   462   463   464
H 110.15385337 -6.13220116 64.89502879     6    461    0    0    0
H 108.00540379 -8.42864060 65.69394740     6    461    0    0    0
C 108.34469229 -5.74570356 68.63896828     1    461   465   466   467
H 109.72327289 -4.31302843 69.37351763     6    464    0    0    0
H 107.60728289 -6.89299115 70.10351420     6    464    0    0    0
H 106.80657531 -4.69287974 68.23099855     6    464    0    0    0
H 138.01124838 -5.64944031 21.39612977     6     469    0    0    0 
C 140.06773497 -5.81542130 21.30790654     1     468    470    471    472
H 140.85152605 -4.95084403 19.53968471     6     469    0    0    0
H 140.75480490 -4.60446968 22.83515298     6     469    0    0    0
C 141.02492804 -8.46486842 21.74310016     2     469    473    474    475
H 143.13129994 -8.51544007 21.44862192     6     472    0    0    0
H 140.57445889 -9.14731808 23.60493910     6     472    0    0    0
C 139.70812507 -10.25692453 19.88754934     2     472    476   477   478
H 137.66209972 -9.97410800 20.33390912     6     475    0    0    0
H 139.72795659 -9.57560343 18.01372023     6     475    0    0    0
C 140.50481773 -13.09245113 20.06338861     2     475   479   480   481
H 142.18173075 -13.60499804 19.01623825     6    478    0    0    0
H 140.71978436 -13.59416798 22.04435654     6    478    0    0    0
C 138.28147344 -14.69433312 19.06562511     2    478   482   483   484
H 136.55205529 -14.09143605 20.08894864     6    481    0    0    0
H 138.08664450 -14.46234311 17.07957164     6    481    0    0    0
C 138.65008869 -17.54605785 19.58561155     2    481   485   486   487
H 140.49674979 -18.07927847 19.23424981     6    484    0    0    0
H 138.38404052 -18.08251797 21.51901249     6    484    0    0    0
C 136.82470308 -19.09783485 17.98795486     2    484   488   489   490
H 134.95278789 -18.60138789 18.42064675     6    487    0    0    0
H 136.88015388 -18.27919803 16.16575300     6    487    0    0    0
C 137.27968394 -21.91275055 18.32375823     2    487   491   492   493
H 139.34751322 -22.20798016 18.46704322     6    490    0    0    0
H 136.46807054 -22.55801122 20.14024037     6    490    0    0    0
C 135.93888038 -23.50456317 16.15622805     2    490   494   495   496
H 134.01577250 -22.86618913 15.95466692     6    493    0    0    0
H 136.91899322 -23.26919848 14.40842271     6    493    0    0    0
C 136.27162731 -26.34217928 16.70087744     2    493   497   498   499
H 138.27109880 -26.84468581 16.69654269     6    496    0    0    0
H 135.68663837 -26.82460137 18.56659242     6    496    0    0    0
C 134.91386490 -28.13566966 14.70133701     2    496   500   501   502
H 132.92804444 -27.86255750 14.77280097     6    499    0    0    0
H 135.50701225 -27.31271090 12.88501923     6    499    0    0    0
C 135.90465355 -30.93958070 15.04765246     1    499   503   504   505
H 135.03820203 -32.05504262 13.48815654     6    502    0    0    0
H 135.75296416 -31.52087072 17.12693130     6    502    0    0    0
H 137.97143539 -31.36906129 14.73100157     6    502    0    0    0
H 127.47616800 -36.18155974 41.28284673     6     507    0    0    0 
C 125.79306526 -35.01368595 41.27455533     1     506    508    509    510
H 125.91758566 -33.31366868 39.95561401     6     507    0    0    0
H 124.37326188 -36.27999758 40.49129931     6     507    0    0    0
C 125.32086992 -33.97793476 43.88927243     2     507    511    512    513
H 125.32711604 -35.37682174 45.44507865     6     510    0    0    0
H 126.75982216 -32.63480121 44.34084493     6     510    0    0    0
C 122.76654511 -32.66769053 44.29386477     2     510    514   515   516
H 122.52069400 -31.51424043 42.56885754     6     513    0    0    0
H 121.02239215 -33.98828614 44.45790386     6     513    0    0    0
C 122.73584195 -30.99048484 46.64317988     2     513   517   518   519
H 123.26163782 -32.17162268 48.36945031     6    516    0    0    0
H 123.97411710 -29.32039123 46.47562931     6    516    0    0    0
C 120.11597908 -29.79162951 47.18354310     2    516   520   521   522
H 119.36572249 -28.83188480 45.48293393     6    519    0    0    0
H 118.91066569 -31.48531886 47.65578380     6    519    0    0    0
C 120.07448746 -27.98213141 49.42545647     2    519   523   524   525
H 120.76995018 -29.08685467 51.16080391     6    522    0    0    0
H 121.53051935 -26.53709813 49.24473403     6    522    0    0    0
C 117.46096385 -26.84710782 49.62606091     2    522   526   527   528
H 116.83456175 -26.44493549 47.65925965     6    525    0    0    0
H 115.97848851 -28.07927251 50.44943030     6    525    0    0    0
C 117.33853046 -24.36576735 51.30638487     2    525   529   530   531
H 118.81735139 -24.39364710 52.65382664     6    528    0    0    0
H 117.99081202 -22.76948629 50.25448998     6    528    0    0    0
C 114.76467222 -23.55939712 52.34316421     2    528   532   533   534
H 113.36113624 -23.45071500 50.84044632     6    531    0    0    0
H 114.29466759 -25.22914992 53.52533699     6    531    0    0    0
C 114.70677595 -20.94985068 53.60557296     2    531   535   536   537
H 116.32215745 -20.76219234 54.90343732     6    534    0    0    0
H 115.08507158 -19.37848770 52.11006900     6    534    0    0    0
C 112.40302331 -20.42664229 55.36583589     2    534   538   539   540
H 110.63303405 -20.89503935 54.44164811     6    537    0    0    0
H 112.32822178 -21.72583338 56.92550695     6    537    0    0    0
C 111.98410571 -17.64496102 56.06081823     1    537   541   542   543
H 110.35700402 -17.65037649 57.25803555     6    540    0    0    0
H 111.45537769 -16.37304837 54.41200419     6    540    0    0    0
H 113.60153243 -16.85677866 57.12735072     6    540    0    0    0
H 114.21239558 -5.20163717 46.60770469     6     545    0    0    0 
C 112.25715336 -4.81672908 46.39770609     1     544    546    547    548
H 111.68859730 -5.76091772 44.66446093     6     545    0    0    0
H 111.01435271 -5.53333511 47.89183311     6     545    0    0    0
C 111.74399996 -1.98766365 45.78190495     2     545    549    550    551
H 112.86163498 -0.71041492 47.03201512     6     548    0    0    0
H 112.64966594 -1.71825016 43.92210950     6     548    0    0    0
C 109.02042840 -1.19534977 45.47437965     2     548    552   553   554
H 108.30568093 -1.78708837 43.59813704     6     551    0    0    0
H 108.00890847 -1.73744265 47.17509680     6     551    0    0    0
C 108.59261755 1.77438778 45.12364090     2     551   555   556   557
H 108.66575671 2.76537467 46.91169057     6    554    0    0    0
H 110.06708740 2.69025269 43.99841496     6    554    0    0    0
C 105.94502612 2.31778921 44.22647416     2    554   558   559   560
H 105.62782857 1.48046940 42.41218227     6    557    0    0    0
H 104.57513041 1.02613332 45.31528062     6    557    0    0    0
C 105.03409634 5.21392557 44.34467628     2    557   561   562   563
H 105.68741746 6.11028094 45.97265096     6    560    0    0    0
H 106.28061205 6.15078971 42.94942985     6    560    0    0    0
C 102.33351273 5.59260077 43.99382588     2    560   564   565   566
H 101.84455714 4.64400191 42.27709350     6    563    0    0    0
H 101.39689210 4.74069612 45.54056470     6    563    0    0    0
C 101.43519311 8.21798090 43.32331455     2    563   567   568   569
H 101.71537689 9.45812032 44.91397858     6    566    0    0    0
H 102.59221368 8.86092963 41.72838887     6    566    0    0    0
C 98.55181311 8.20006227 42.67458908     2    566   570   571   572
H 98.17378430 6.94497178 41.13561064     6    569    0    0    0
H 97.34298699 7.50398964 44.38408853     6    569    0    0    0
C 97.79771717 10.92288182 41.86161729     2    569   573   574   575
H 98.45651212 12.21301219 43.23581612     6    572    0    0    0
H 99.05682313 11.30568558 40.18559360     6    572    0    0    0
C 94.88113195 11.31933139 41.37533825     2    572   576   577   578
H 93.85857921 10.30949135 42.94829213     6    575    0    0    0
H 94.74832274 13.38252328 41.37794746     6    575    0    0    0
C 93.81609317 10.49642164 38.82263739     1    575   579   580   581
H 95.04751385 11.14197306 37.26089310     6    578    0    0    0
H 91.95842212 11.23171747 38.55170758     6    578    0    0    0
H 93.72314470 8.46957980 38.51613305     6    578    0    0    0
H 125.99933031 -5.37125750 11.71166413     6     583    0    0    0 
C 126.07232867 -5.16554889 13.79729026     1     582    584    585    586
H 124.06371127 -5.39923497 14.49567907     6     583    0    0    0
H 127.35445097 -6.43370963 14.57492848     6     583    0    0    0
C 127.30419354 -2.65814533 14.71026684     2     583    587    588    589
H 127.23742872 -2.57266359 16.86610646     6     586    0    0    0
H 129.17638005 -2.41618790 14.03882841     6     586    0    0    0
C 125.64186802 -0.45826015 13.77392035     2     586    590   591   592
H 125.69683667 -0.27885657 11.76655192     6     589    0    0    0
H 123.76048059 -0.63736470 14.27560294     6     589    0    0    0
C 126.47370941 2.12412079 14.85624532     2     589   593   594   595
H 126.61840846 2.27171240 16.88694480     6    592    0    0    0
H 128.41875081 2.42331370 14.16012345     6    592    0    0    0
C 124.76585324 4.28985586 14.06570120     2    592   596   597   598
H 125.17240473 4.61254975 12.01320296     6    595    0    0    0
H 122.84184218 3.58264913 14.58221446     6    595    0    0    0
C 125.03556535 6.62672640 15.66105743     2    595   599   600   601
H 124.91706275 6.01862652 17.67666153     6    598    0    0    0
H 126.84213183 7.59043011 15.42179381     6    598    0    0    0
C 123.00038202 8.60502023 15.32204492     2    598   602   603   604
H 123.15529248 9.62829610 13.54917609     6    601    0    0    0
H 121.19747733 7.62365343 15.36799525     6    601    0    0    0
C 123.19216238 10.66765685 17.44086232     2    601   605   606   607
H 122.75135045 9.84709945 19.16582822     6    604    0    0    0
H 125.13363283 11.44438662 17.49598156     6    604    0    0    0
C 121.41606499 12.97223525 17.02333613     2    604   608   609   610
H 121.94213116 14.23334411 15.28464389     6    607    0    0    0
H 119.59218334 12.07316856 16.53932796     6    607    0    0    0
C 121.12190441 14.48032966 19.57615411     2    607   611   612   613
H 120.27498931 13.15386528 21.08086176     6    610    0    0    0
H 122.90158062 14.76480692 20.20238693     6    610    0    0    0
C 119.84444594 16.90066906 19.14943885     2    610   614   615   616
H 120.93682788 17.78134203 17.78847055     6    613    0    0    0
H 118.10468100 16.64042648 18.04431900     6    613    0    0    0
C 119.57799150 18.62125786 21.24567572     1    613   617   618   619
H 118.87782298 20.49364637 20.87838345     6    616    0    0    0
H 121.36574528 18.67440643 22.20894682     6    616    0    0    0
H 118.20367235 18.15086718 22.63582490     6    616    0    0    0
H 97.13281680 -18.90895787 30.60411053     6     621    0    0    0 
C 97.40715415 -17.05598811 29.75404240     1     620    622    623    624
H 95.85417567 -15.72979105 29.85420492     6     621    0    0    0
H 98.78408693 -15.97891430 30.92636336     6     621    0    0    0
C 98.33454904 -17.17434712 26.99908363     2     621    625    626    627
H 98.78923166 -15.28743197 26.25578109     6     624    0    0    0
H 100.09392123 -18.04582697 27.15425730     6     624    0    0    0
C 96.49901336 -18.26488248 25.00934973     2     624    628   629   630
H 95.78104242 -20.01852597 25.74404585     6     627    0    0    0
H 94.92932584 -16.89300517 24.70397963     6     627    0    0    0
C 97.54927147 -19.11147309 22.35730419     2     627   631   632   633
H 98.75377339 -17.51051479 21.82295483     6    630    0    0    0
H 98.91402544 -20.61624593 22.21573625     6    630    0    0    0
C 95.65526530 -19.75484029 20.22786329     2    630   634   635   636
H 94.72318651 -21.44499388 20.85546041     6    633    0    0    0
H 94.28062740 -18.35138441 20.26588330     6    633    0    0    0
C 96.74469464 -19.90949739 17.55302899     2    633   637   638   639
H 97.61127953 -18.20620105 16.85793226     6    636    0    0    0
H 98.06847478 -21.39257607 17.77574978     6    636    0    0    0
C 94.69372933 -20.89449067 15.60926430     2    636   640   641   642
H 93.16177810 -22.11066684 16.41438987     6    639    0    0    0
H 93.54645023 -19.23164840 15.10943899     6    639    0    0    0
C 95.76402429 -21.92282437 13.15289479     2    639   643   644   645
H 96.69361442 -20.34121022 12.23438189     6    642    0    0    0
H 97.02764603 -23.37449063 13.68662856     6    642    0    0    0
C 93.89598110 -23.49173077 11.38750904     2    642   646   647   648
H 93.18648492 -25.11766187 12.18045089     6    645    0    0    0
H 92.33469075 -22.21356302 11.02579412     6    645    0    0    0
C 95.09125784 -24.01820526 8.77753164     2    645   649   650   651
H 95.65015908 -22.28148189 7.89206270     6    648    0    0    0
H 96.62073009 -25.17884597 9.27643419     6    648    0    0    0
C 93.12289801 -25.17981066 6.91408062     2    648   652   653   654
H 92.54953340 -27.09026995 7.75708812     6    651    0    0    0
H 91.50620466 -23.87339594 6.78934691     6    651    0    0    0
C 94.22958516 -25.56739253 4.17489677     1    651   655   656   657
H 94.43451985 -23.79584127 3.13469782     6    654    0    0    0
H 93.04298200 -26.81291727 3.18026507     6    654    0    0    0
H 96.10637689 -26.30275866 4.29739777     6    654    0    0    0
H 122.30854276 -2.91747336 18.37288791     6     659    0    0    0 
C 120.94536407 -2.16104463 19.52704770     1     658    660    661    662
H 120.19152364 -3.76820892 20.56445087     6     659    0    0    0
H 121.81852180 -0.95283355 20.97003803     6     659    0    0    0
C 118.83958738 -1.01129346 17.91428404     2     659    663    664    665
H 119.95213731 0.20016872 16.65144642     6     662    0    0    0
H 117.97982859 -2.28696681 16.64164938     6     662    0    0    0
C 117.09319369 0.54508570 19.48697174     2     662    666   667   668
H 115.45735983 0.80420480 18.32228518     6     665    0    0    0
H 116.36886852 -0.47123367 21.11240265     6     665    0    0    0
C 118.22788785 3.00145086 20.28218500     2     665   669   670   671
H 119.99178362 2.71219105 21.37436992     6    668    0    0    0
H 118.76576147 4.18608572 18.71821418     6    668    0    0    0
C 116.45410492 4.35655656 22.02162942     2    668   672   673   674
H 114.56521269 4.89891167 21.08751772     6    671    0    0    0
H 115.73845833 3.09834923 23.48979295     6    671    0    0    0
C 117.20944958 6.86219177 23.05933118     2    671   675   676   677
H 118.80164364 6.79113019 24.37823559     6    674    0    0    0
H 117.97294958 8.05754682 21.44691147     6    674    0    0    0
C 115.07580050 8.34951304 24.20053451     2    674   678   679   680
H 115.57744057 10.33114237 24.11703484     6    677    0    0    0
H 113.11267850 8.33269853 23.32651629     6    677    0    0    0
C 114.27061068 7.27984458 26.86338988     2    677   681   682   683
H 113.28851120 5.43164142 26.40491798     6    680    0    0    0
H 115.90748971 7.03876869 28.11423893     6    680    0    0    0
C 112.26290736 8.77327034 28.32261248     2    680   684   685   686
H 110.62482747 9.10101644 27.01404202     6    683    0    0    0
H 111.28235807 7.60406863 29.74999270     6    683    0    0    0
C 113.24402039 11.00417563 29.93955323     2    683   687   688   689
H 114.54467491 10.20942966 31.37614576     6    686    0    0    0
H 114.41035735 12.17776359 28.71236371     6    686    0    0    0
C 111.31986585 12.70088242 31.27555346     2    686   690   691   692
H 110.11635415 13.73094869 29.96990472     6    689    0    0    0
H 109.98768572 11.49244589 32.38927497     6    689    0    0    0
C 112.47249639 14.55708537 33.14554993     1    689   693   694   695
H 111.01400100 15.87894465 34.07007657     6    692    0    0    0
H 113.83662386 15.91136510 32.30728098     6    692    0    0    0
H 113.45440523 13.49574919 34.63503212     6    692    0    0    0
H 96.62314168 15.46497386 47.37872477     6     697    0    0    0 
C 97.42406437 15.20252615 49.31852651     1     696    698    699    700
H 98.47918835 16.90063434 49.84604131     6     697    0    0    0
H 95.97652240 14.79499390 50.67947657     6     697    0    0    0
C 99.36248391 13.06157040 49.14573438     2     697    701    702    703
H 98.35649599 11.49027697 48.34543495     6     700    0    0    0
H 100.73444401 13.60358907 47.68507853     6     700    0    0    0
C 100.67444493 12.49346345 51.62643511     2     700    704   705   706
H 101.65695740 14.22876909 52.65354501     6     703    0    0    0
H 99.26727671 11.75489267 52.85573663     6     703    0    0    0
C 102.75177946 10.62970982 51.34352272     2     703   707   708   709
H 102.18166174 8.97488960 50.10138250     6    706    0    0    0
H 104.18540570 11.57551582 50.36791047     6    706    0    0    0
C 103.94643307 10.03039424 53.87044831     2    706   710   711   712
H 105.01144946 11.67963924 54.33439171     6    709    0    0    0
H 102.52417342 9.73798946 55.35356574     6    709    0    0    0
C 105.77212729 7.77314062 53.63841023     2    709   713   714   715
H 104.72128651 6.10566059 53.18525548     6    712    0    0    0
H 107.04113312 7.97377024 52.05567531     6    712    0    0    0
C 107.31096852 7.61175736 56.09736621     2    712   716   717   718
H 108.40410185 9.20121256 56.44193902     6    715    0    0    0
H 106.03476904 7.14824153 57.70903535     6    715    0    0    0
C 109.16195208 5.41565393 55.72217439     2    715   719   720   721
H 108.09667452 3.76146754 55.16461377     6    718    0    0    0
H 110.55311861 5.64220237 54.24283855     6    718    0    0    0
C 110.87155907 5.12926272 58.02151840     2    718   722   723   724
H 111.85063416 6.79268962 58.44325890     6    721    0    0    0
H 109.74200655 4.84688236 59.62924448     6    721    0    0    0
C 112.58535908 2.68240849 57.76646511     2    721   725   726   727
H 111.41156407 0.96386028 58.00484602     6    724    0    0    0
H 113.49899442 2.49077271 55.84743042     6    724    0    0    0
C 114.68282805 2.53048893 59.71872877     2    724   728   729   730
H 114.28261999 3.42186999 61.55189775     6    727    0    0    0
H 114.73670683 0.44943476 60.15735649     6    727    0    0    0
C 117.14715857 3.61152325 58.84313130     1    727   731   732   733
H 118.41736576 3.79025222 60.39559595     6    730    0    0    0
H 116.62983058 5.48961521 58.25755477     6    730    0    0    0
H 117.99247317 2.45680002 57.30450013     6    730    0    0    0
H 141.63224765 -6.99687022 40.28268713     6     735    0    0    0 
C 141.39408616 -5.65106837 38.79019213     1     734    736    737    738
H 141.75442514 -3.84393787 39.61642764     6     735    0    0    0
H 142.92163077 -6.31052449 37.52990433     6     735    0    0    0
C 139.01710884 -5.91029425 37.39705363     2     735    739    740    741
H 137.35639303 -5.18686576 38.29705568     6     738    0    0    0
H 139.23493843 -4.67764101 35.71397618     6     738    0    0    0
C 138.56648247 -8.77092407 36.54200263     2     738    742   743   744
H 140.21767256 -9.31511474 35.49846021     6     741    0    0    0
H 138.40608133 -9.97188845 38.25844402     6     741    0    0    0
C 136.19820203 -9.38245609 35.06496065     2     741   745   746   747
H 134.70865215 -8.08822375 35.68601031     6    744    0    0    0
H 136.31878931 -8.82751513 33.09910707     6    744    0    0    0
C 135.28972118 -12.17310245 35.27244360     2    744   748   749   750
H 134.62547533 -12.81392121 37.15145721     6    747    0    0    0
H 133.47079052 -12.41166324 34.35067617     6    747    0    0    0
C 137.13485521 -14.27239581 34.46415716     2    747   751   752   753
H 137.38012703 -14.11473819 32.42983289     6    750    0    0    0
H 139.02119714 -13.93476502 35.20546693     6    750    0    0    0
C 136.46317003 -16.98175132 35.17649681     2    750   754   755   756
H 138.16178088 -18.10542718 34.64685452     6    753    0    0    0
H 136.06137420 -17.03923835 37.21056006     6    753    0    0    0
C 134.11977825 -18.09741395 33.97906770     2    753   757   758   759
H 132.66100898 -16.76942531 34.62941749     6    756    0    0    0
H 134.14264881 -17.70286335 31.93124718     6    756    0    0    0
C 133.55003849 -20.89343952 34.74432161     2    756   760   761   762
H 133.86159603 -20.90179684 36.77448302     6    759    0    0    0
H 131.55427804 -21.38803491 34.48982261     6    759    0    0    0
C 135.19403435 -22.92474275 33.60773278     2    759   763   764   765
H 134.37857882 -23.38287791 31.83131230     6    762    0    0    0
H 137.05048835 -22.36664911 33.19763210     6    762    0    0    0
C 135.37475037 -25.24074237 35.31803542     2    762   766   767   768
H 136.41842750 -24.55978694 36.95197418     6    765    0    0    0
H 133.51790302 -25.90165497 35.92345832     6    765    0    0    0
C 136.77877301 -27.40680013 34.16557812     1    765   769   770   771
H 135.73765560 -28.41387020 32.63426091     6    768    0    0    0
H 137.08233661 -28.75561887 35.61898539     6    768    0    0    0
H 138.44481638 -26.93438162 33.23792254     6    768    0    0    0
H 93.30377914 -21.05188007 29.13772959     6     773    0    0    0 
C 92.79900647 -23.06232193 29.42999210     1     772    774    775    776
H 90.94569601 -23.00158102 30.14647256     6     773    0    0    0
H 92.92363160 -23.87972744 27.54232602     6     773    0    0    0
C 94.33144450 -24.47686832 31.47555457     2     773    777    778    779
H 93.49520237 -26.35785889 31.86502647     6     776    0    0    0
H 96.34821903 -24.98290198 30.78888557     6     776    0    0    0
C 94.61262297 -23.17147146 34.04800202     2     776    780   781   782
H 95.74112216 -21.40138328 33.80873505     6     779    0    0    0
H 92.74311175 -22.36922629 34.54887214     6     779    0    0    0
C 95.88512389 -24.87806445 35.97868748     2     779   783   784   785
H 94.39790718 -26.22450393 36.41335990     6    782    0    0    0
H 97.54186344 -25.85510939 35.26069121     6    782    0    0    0
C 96.24788716 -23.37517346 38.41063469     2    782   786   787   788
H 97.58314932 -21.89529048 38.28370436     6    785    0    0    0
H 94.58450619 -22.32457090 38.78768759     6    785    0    0    0
C 96.65893428 -25.09259029 40.57762036     2    785   789   790   791
H 95.08832124 -26.39802588 40.73598441     6    788    0    0    0
H 98.55083959 -25.78592126 40.21345729     6    788    0    0    0
C 96.67944779 -23.35661861 42.92628186     2    788   792   793   794
H 97.99639971 -21.82407655 42.25723614     6    791    0    0    0
H 94.83894897 -22.42471484 43.17334848     6    791    0    0    0
C 97.57533197 -24.63614999 45.21610930     2    791   795   796   797
H 96.24145796 -26.04094332 45.71908597     6    794    0    0    0
H 99.37056228 -25.66596898 45.09813422     6    794    0    0    0
C 97.61303265 -22.94160053 47.54208822     2    794   798   799   800
H 98.86205490 -21.29733479 47.15064228     6    797    0    0    0
H 95.58380054 -22.25826689 47.53561084     6    797    0    0    0
C 98.34239023 -24.13740245 50.02996631     2    797   801   802   803
H 97.57349718 -26.09384506 50.24241618     6    800    0    0    0
H 100.34970894 -24.55634364 49.81295991     6    800    0    0    0
C 97.56832232 -22.39523465 52.14219633     2    800   804   805   806
H 98.34149679 -20.60153186 51.58154126     6    803    0    0    0
H 95.56125982 -22.31455766 52.60996768     6    803    0    0    0
C 99.00488627 -23.04202624 54.64795240     1    803   807   808   809
H 98.36097645 -21.85456514 56.15348285     6    806    0    0    0
H 101.04069459 -22.91992569 54.34293618     6    806    0    0    0
H 98.47272355 -24.88935884 55.21052326     6    806    0    0    0
H 125.26713575 -7.71404106 23.22143466     6     811    0    0    0 
C 125.39410481 -7.87629632 21.17572007     1     810    812    813    814
H 124.66684927 -6.16928670 20.23032492     6     811    0    0    0
H 127.40325234 -7.89965666 20.58833443     6     811    0    0    0
C 123.90401965 -10.22602554 20.29130389     2     811    815    816    817
H 121.87749194 -9.79916922 20.27883322     6     814    0    0    0
H 124.28439640 -10.73102445 18.41003246     6     814    0    0    0
C 124.39480111 -12.59393395 21.90049998     2     814    818   819   820
H 126.11850790 -13.20924337 21.22255506     6     817    0    0    0
H 124.40846223 -12.24430367 23.90939326     6     817    0    0    0
C 122.53384372 -14.72704372 21.19870712     2     817   821   822   823
H 120.69113929 -14.25541492 21.95000388     6    820    0    0    0
H 122.27744628 -14.43438474 19.09973405     6    820    0    0    0
C 123.47572846 -17.40584864 21.93349352     2    820   824   825   826
H 125.37173181 -17.94592317 21.13871982     6    823    0    0    0
H 123.89622269 -17.45427934 23.98268619     6    823    0    0    0
C 121.65961509 -19.50411729 21.13428570     2    823   827   828   829
H 119.83318706 -19.22222549 22.11002819     6    826    0    0    0
H 121.28444601 -19.38274548 19.19625182     6    826    0    0    0
C 122.68960828 -22.20286935 21.79769115     2    826   830   831   832
H 124.51413918 -22.33482667 20.89773322     6    829    0    0    0
H 122.91908834 -22.13993806 23.84422993     6    829    0    0    0
C 120.83314658 -23.96894734 20.74842941     2    829   833   834   835
H 118.95033024 -23.90805878 21.72613315     6    832    0    0    0
H 120.14207207 -23.78269320 18.76329647     6    832    0    0    0
C 121.82968535 -26.74320375 21.26405100     2    832   836   837   838
H 123.52933939 -26.85448993 20.08358642     6    835    0    0    0
H 122.56335034 -27.21511890 23.17415333     6    835    0    0    0
C 120.08513518 -28.73067753 20.28536788     2    835   839   840   841
H 118.27574624 -28.71746138 21.14304380     6    838    0    0    0
H 119.84081968 -28.44286960 18.27674955     6    838    0    0    0
C 121.17302288 -31.44394663 20.70214715     2    838   842   843   844
H 123.09868150 -31.68130364 20.05257154     6    841    0    0    0
H 121.26622795 -31.79215253 22.69790515     6    841    0    0    0
C 119.39339053 -33.64503867 19.94226574     1    841   845   846   847
H 117.56825972 -33.58603198 20.75381240     6    844    0    0    0
H 120.28737023 -35.46164483 20.32126549     6    844    0    0    0
H 119.12046638 -33.80780149 17.86335278     6    844    0    0    0
H 109.93405124 13.52687980 16.18032870     6     849    0    0    0 
C 109.48018135 12.41202553 17.96553405     1     848    850    851    852
H 109.34265282 13.67653188 19.67306605     6     849    0    0    0
H 107.69016518 11.40953080 17.61074990     6     849    0    0    0
C 111.54993409 10.54232205 18.16842968     2     849    853    854    855
H 113.13355716 11.63255009 18.95996532     6     852    0    0    0
H 110.94340541 8.90735995 19.43860846     6     852    0    0    0
C 112.62860823 9.74658414 15.58994429     2     852    856   857   858
H 111.03965918 9.56799393 14.42098943     6     855    0    0    0
H 113.73602528 11.34860114 14.94895582     6     855    0    0    0
C 114.30948293 7.38509754 15.82347117     2     855   859   860   861
H 115.79335296 7.71549333 17.27254898     6    858    0    0    0
H 113.05376999 5.86330596 16.55555591     6    858    0    0    0
C 115.28580932 6.58317619 13.17830877     2    858   862   863   864
H 113.68430793 6.48272310 11.81897320     6    861    0    0    0
H 116.64994571 8.00851251 12.67092473     6    861    0    0    0
C 116.38960633 4.04022279 13.36674194     2    861   865   866   867
H 118.20702145 3.84891086 14.47623332     6    864    0    0    0
H 115.09743946 2.83891297 14.53981744     6    864    0    0    0
C 116.72579284 2.90633911 10.76066050     2    864   868   869   870
H 115.33439721 1.62714990 10.26927583     6    867    0    0    0
H 116.77592630 4.18097343 9.09610056     6    867    0    0    0
C 119.08368933 1.36674829 10.59298515     2    867   871   872   873
H 120.74320298 2.41843516 11.09361665     6    870    0    0    0
H 118.94718087 -0.18946732 11.83988393     6    870    0    0    0
C 119.56183008 -0.01032113 8.12561596     2    870   874   875   876
H 120.73012509 -1.60924067 8.35365292     6    873    0    0    0
H 117.90727521 -1.06263392 7.58875091     6    873    0    0    0
C 120.60993488 1.93808887 6.13796382     2    873   877   878   879
H 119.59752778 3.61109591 5.95653047     6    876    0    0    0
H 122.51737494 2.42991014 6.85221837     6    876    0    0    0
C 120.59199335 0.98983763 3.33407117     2    876   880   881   882
H 121.94865041 -0.49371638 3.33430367     6    879    0    0    0
H 118.76916645 0.20861615 2.85960273     6    879    0    0    0
C 121.33108930 2.96767336 1.34465905     1    879   883   884   885
H 123.27644787 3.46482000 1.63869552     6    882    0    0    0
H 120.27376205 4.63476484 1.78965265     6    882    0    0    0
H 120.92113428 2.37810737 -0.71890277     6    882    0    0    0
H 115.44428266 -19.61625258 23.40646706     6     887    0    0    0 
C 113.65884887 -18.54706656 23.09991545     1     886    888    889    890
H 113.48864836 -18.66776562 21.02692357     6     887    0    0    0
H 111.95576540 -19.65997531 23.79485715     6     887    0    0    0
C 113.29910736 -15.89497535 24.20857980     2     887    891    892    893
H 111.65127989 -15.02177157 23.19938099     6     890    0    0    0
H 112.84844111 -16.24379761 26.08369033     6     890    0    0    0
C 115.57161388 -14.10631289 24.14341752     2     890    894   895   896
H 117.08033353 -15.08659861 25.11489958     6     893    0    0    0
H 116.11776865 -13.58915107 22.23276628     6     893    0    0    0
C 114.98508425 -11.69509746 25.67782456     2     893   897   898   899
H 113.16208315 -10.95079669 25.08796935     6    896    0    0    0
H 114.64453778 -12.15971083 27.58564101     6    896    0    0    0
C 117.12443706 -9.78806120 25.29068831     2    896   900   901   902
H 118.80102204 -10.66222775 25.99698046     6    899    0    0    0
H 117.57808744 -9.54894330 23.29492083     6    899    0    0    0
C 116.57636039 -7.33480657 26.64365475     2    899   903   904   905
H 114.75696297 -6.55360753 26.11288075     6    902    0    0    0
H 116.55081316 -7.78831984 28.67151396     6    902    0    0    0
C 118.69635962 -5.53616908 26.02583783     2    902   906   907   908
H 120.53305881 -6.30697254 26.42545558     6    905    0    0    0
H 118.82688293 -5.08512478 24.14959019     6    905    0    0    0
C 118.55580030 -2.86606353 27.34541273     2    905   909   910   911
H 116.99478377 -1.81962025 26.65535738     6    908    0    0    0
H 118.14482069 -3.55145313 29.14246331     6    908    0    0    0
C 120.79592415 -1.15881362 27.17115600     2    908   912   913   914
H 122.60461228 -1.71189367 28.07351183     6    911    0    0    0
H 121.15770710 -0.93963589 25.12146129     6    911    0    0    0
C 120.19035289 1.48910866 28.19115263     2    911   915   916   917
H 119.33668086 2.64992794 26.72616841     6    914    0    0    0
H 118.82538116 1.55425399 29.67696135     6    914    0    0    0
C 122.58617336 2.69211566 29.20512166     2    914   918   919   920
H 123.49416703 1.37561235 30.50593223     6    917    0    0    0
H 123.99823756 2.70400850 27.72959138     6    917    0    0    0
C 122.08709377 5.36115194 30.18054906     1    917   921   922   923
H 123.72434641 6.26324994 30.86331278     6    920    0    0    0
H 120.61229133 5.39731940 31.56081740     6    920    0    0    0
H 121.52968350 6.37573732 28.51223435     6    920    0    0    0
H 97.94277511 -4.14457218 14.78661743     6     925    0    0    0 
C 99.55092982 -4.03186216 13.48085181     1     924    926    927    928
H 100.60692730 -5.74429517 13.61429708     6     925    0    0    0
H 98.75796394 -3.92671668 11.72838080     6     925    0    0    0
C 101.24609103 -1.78956454 14.14988778     2     925    929    930    931
H 99.96500214 -0.16110584 13.84470253     6     928    0    0    0
H 101.82069552 -2.04608656 16.03813160     6     928    0    0    0
C 103.64209307 -1.59190795 12.26158069     2     928    932   933   934
H 102.77660634 -1.24040259 10.42342860     6     931    0    0    0
H 104.71729828 0.22186170 12.68670662     6     931    0    0    0
C 105.68828968 -3.75918430 12.36577758     2     931   935   936   937
H 106.03931850 -4.13538594 14.23375922     6    934    0    0    0
H 104.93547793 -5.48019582 11.48244478     6    934    0    0    0
C 108.10255122 -3.03885064 11.00684741     2    934   938   939   940
H 107.73601330 -2.33584989 9.05738405     6    937    0    0    0
H 109.02844184 -1.63041359 12.23951143     6    937    0    0    0
C 110.02475616 -5.20604206 10.84129732     2    937   941   942   943
H 110.88740901 -5.41299620 12.76511912     6    940    0    0    0
H 109.13618864 -7.01678986 10.50293184     6    940    0    0    0
C 112.03247989 -4.65059349 8.88718220     2    940   944   945   946
H 112.59369422 -2.72007884 9.19258430     6    943    0    0    0
H 113.59993763 -5.86602270 9.24342624     6    943    0    0    0
C 111.18332951 -4.87478907 5.96766036     2    943   947   948   949
H 110.43371316 -6.78462771 5.61270998     6    946    0    0    0
H 109.71099837 -3.61955790 5.55491249     6    946    0    0    0
C 113.45616703 -4.50349978 4.17320790     2    946   950   951   952
H 113.88325562 -2.52217677 4.27242069     6    949    0    0    0
H 115.12554700 -5.78915905 4.73654126     6    949    0    0    0
C 112.76382775 -5.15047876 1.40519995     2    949   953   954   955
H 112.62625572 -7.24432563 1.14055260     6    952    0    0    0
H 110.99471473 -4.26666815 0.87050410     6    952    0    0    0
C 114.57020232 -4.26956834 -0.63904685     2    952   956   957   958
H 113.54355445 -4.29020717 -2.46112333     6    955    0    0    0
H 115.21106101 -2.29455259 -0.18465660     6    955    0    0    0
C 117.30552108 -5.46094253 -0.67506856     1    955   959   960   961
H 118.05880716 -5.00223839 -2.43923653     6    958    0    0    0
H 117.27418095 -7.44668056 -0.73265486     6    958    0    0    0
H 118.75251553 -4.73270026 0.75767835     6    958    0    0    0
H 121.92585080 -15.92755402 42.54246263     6     963    0    0    0 
C 120.06477297 -16.01327642 41.62330202     1     962    964    965    966
H 120.13834531 -14.39884821 40.42514726     6     963    0    0    0
H 120.40687178 -17.80720129 40.64233981     6     963    0    0    0
C 117.77328966 -15.86392105 43.41095528     2     963    967    968    969
H 116.09792043 -15.63531059 42.21087308     6     966    0    0    0
H 117.57412822 -17.53787835 44.47907147     6     966    0    0    0
C 117.81843361 -13.72528140 45.34937927     2     966    970   971   972
H 119.74768603 -13.63355852 46.15413052     6     969    0    0    0
H 117.47644196 -11.97049523 44.26831966     6     969    0    0    0
C 115.95022659 -13.96295846 47.50364268     2     969   973   974   975
H 114.02962698 -14.13286098 46.76395191     6    972    0    0    0
H 116.30045207 -15.72770833 48.39078644     6    972    0    0    0
C 115.98176054 -11.64606425 49.21250466     2    972   976   977   978
H 117.94253660 -11.40712914 50.02150860     6    975    0    0    0
H 115.54555465 -10.05360093 47.98060129     6    975    0    0    0
C 114.00112935 -12.00684555 51.12535173     2    975   979   980   981
H 112.25278974 -12.22331315 49.98891569     6    978    0    0    0
H 114.12482057 -13.68387136 52.16906869     6    978    0    0    0
C 113.64573607 -9.64492340 52.72003408     2    978   982   983   984
H 115.26685168 -9.15292630 53.86161186     6    981    0    0    0
H 113.38177820 -8.19851123 51.33146592     6    981    0    0    0
C 111.30180683 -9.72000872 54.53081213     2    981   985   986   987
H 109.84443416 -9.45574099 53.15820602     6    984    0    0    0
H 111.11553468 -11.63568993 55.07316307     6    984    0    0    0
C 111.24955047 -7.70179352 56.69619165     2    984   988   989   990
H 110.07470155 -8.53736681 58.27373759     6    987    0    0    0
H 113.16858149 -7.35687818 57.51721499     6    987    0    0    0
C 110.17247131 -5.14148707 55.96015239     2    987   991   992   993
H 108.54885059 -5.36317986 54.67660732     6    990    0    0    0
H 109.47723592 -4.24834195 57.66233491     6    990    0    0    0
C 111.97443015 -3.58680021 54.57738110     2    990   994   995   996
H 113.42859541 -2.98188991 55.85661936     6    993    0    0    0
H 112.89975058 -4.64575213 53.07871969     6    993    0    0    0
C 110.76919645 -1.42078865 53.16468888     1    993   997   998   999
H 109.82424022 -1.99526507 51.54196637     6    996    0    0    0
H 112.31995179 -0.40738876 52.57305552     6    996    0    0    0
H 109.82078015 -0.13004134 54.25996463     6    996    0    0    0
H 128.07673702 -28.51691644 46.03373400     6     1001    0    0    0 
C 127.82292335 -26.95932687 44.53497014     1     1000    1002    1003    1004
H 129.74021875 -26.73812666 43.60540010     6     1001    0    0    0
H 126.35440935 -27.69437061 43.19299626     6     1001    0    0    0
C 126.84382725 -24.60582448 45.86835900     2     1001    1005    1006    1007
H 126.02121373 -23.39840662 44.42501529     6     1004    0    0    0
H 125.43095771 -24.95754722 47.26792513     6     1004    0    0    0
C 129.00635436 -23.19713095 47.27403257     2     1004    1008   1009   1010
H 129.71023785 -24.30167745 48.87016792     6     1007    0    0    0
H 130.74490065 -22.96345677 46.11559466     6     1007    0    0    0
C 128.41289211 -20.62672700 48.32959107     2     1007   1011   1012   1013
H 127.58521319 -19.31124211 47.02371021     6    1010    0    0    0
H 127.07523165 -20.98129913 49.83093819     6    1010    0    0    0
C 130.77423704 -19.22401014 49.22862631     2    1010   1014   1015   1016
H 131.90825921 -20.61649061 50.23461613     6    1013    0    0    0
H 131.79194224 -18.95205776 47.55189078     6    1013    0    0    0
C 130.22979320 -17.00786045 50.99472040     2    1013   1017   1018   1019
H 128.69679448 -15.68071590 50.64715596     6    1016    0    0    0
H 129.58095807 -18.13687470 52.55062062     6    1016    0    0    0
C 132.57122618 -15.58678897 51.73655588     2    1016   1020   1021   1022
H 134.08233244 -16.82354899 52.37752507     6    1019    0    0    0
H 133.41352566 -14.40160501 50.21499140     6    1019    0    0    0
C 132.14600020 -13.98435996 54.08592735     2    1019   1023   1024   1025
H 131.29022153 -15.28149739 55.56563468     6    1022    0    0    0
H 134.02001348 -13.36110752 54.71272615     6    1022    0    0    0
C 130.20656731 -11.68786804 53.85607467     2    1022   1026   1027   1028
H 130.98018687 -9.91450550 53.16981500     6    1025    0    0    0
H 128.57693378 -11.98706490 52.64396436     6    1025    0    0    0
C 129.55516252 -10.78681240 56.54322484     2    1025   1029   1030   1031
H 128.43727729 -12.08313318 57.52221738     6    1028    0    0    0
H 131.27473305 -10.57184557 57.60165580     6    1028    0    0    0
C 128.38854813 -8.07730150 56.55302907     2    1028   1032   1033   1034
H 129.76816389 -6.60590646 55.87971484     6    1031    0    0    0
H 126.73509049 -8.11339570 55.30015083     6    1031    0    0    0
C 127.47353335 -7.20807767 59.12086907     1    1031   1035   1036   1037
H 126.87540528 -5.22244308 59.10975045     6    1034    0    0    0
H 128.82350529 -7.74700493 60.55158998     6    1034    0    0    0
H 126.08345953 -8.58557570 59.49482723     6    1034    0    0    0
H 103.17091381 -24.46199275 32.39324285     6     1039    0    0    0 
C 102.25435873 -23.84035567 30.71056592     1     1038    1040    1041    1042
H 100.72931668 -22.59675819 31.10428503     6     1039    0    0    0
H 103.49125371 -22.45976538 29.90288161     6     1039    0    0    0
C 101.44226001 -26.01013080 29.02432279     2     1039    1043    1044    1045
H 103.04233544 -27.34192214 28.66802412     6     1042    0    0    0
H 100.00657962 -27.01936546 30.10308937     6     1042    0    0    0
C 100.96223699 -25.31717273 26.23384089     2     1042    1046   1047   1048
H 99.25215819 -24.34900633 25.94389688     6     1045    0    0    0
H 102.45064590 -24.18916849 25.37550204     6     1045    0    0    0
C 100.75397773 -27.71039478 24.63777797     2     1045   1049   1050   1051
H 102.49832390 -28.79527274 24.49220786     6    1048    0    0    0
H 99.51867471 -29.11227065 25.42359908     6    1048    0    0    0
C 99.75922270 -27.05623709 22.00181618     2    1048   1052   1053   1054
H 98.08533202 -25.93499898 22.13889684     6    1051    0    0    0
H 101.34062835 -26.06642054 21.05278486     6    1051    0    0    0
C 99.19622642 -29.48743270 20.52334307     2    1051   1055   1056   1057
H 101.04153771 -30.52682067 20.34727460     6    1054    0    0    0
H 97.76234015 -30.52763138 21.65201700     6    1054    0    0    0
C 98.02816006 -28.99000795 17.80584498     2    1054   1058   1059   1060
H 96.14576658 -28.06867276 18.18336931     6    1057    0    0    0
H 99.14088603 -27.71756718 16.80076430     6    1057    0    0    0
C 97.55667682 -31.45474471 16.25392752     2    1057   1061   1062   1063
H 99.46454004 -32.06226361 15.54336891     6    1060    0    0    0
H 96.58730930 -32.94589271 17.32613280     6    1060    0    0    0
C 96.02613437 -30.80312470 13.95452713     2    1060   1064   1065   1066
H 94.24248678 -30.14217262 14.70754800     6    1063    0    0    0
H 97.10739822 -29.30899865 12.94749258     6    1063    0    0    0
C 95.59662633 -33.02525282 12.23879861     2    1063   1067   1068   1069
H 97.35922800 -33.92063544 12.01000842     6    1066    0    0    0
H 94.50550082 -34.26289587 13.31578258     6    1066    0    0    0
C 94.18965005 -32.49363674 9.72225271     2    1066   1070   1071   1072
H 92.18123327 -31.99356797 9.99740512     6    1069    0    0    0
H 94.93397366 -31.04708180 8.47118801     6    1069    0    0    0
C 93.62715671 -34.94898787 8.37868628     1    1069   1073   1074   1075
H 92.53341160 -34.38135380 6.59610128     6    1072    0    0    0
H 92.37662420 -36.07003631 9.55013947     6    1072    0    0    0
H 95.30843798 -36.11401911 8.03887560     6    1072    0    0    0
H 88.83018549 -8.16580499 8.43644350     6     1077    0    0    0 
C 88.56213349 -9.90136592 9.68701168     1     1076    1078    1079    1080
H 88.18013517 -9.37457325 11.51898351     6     1077    0    0    0
H 86.76445785 -10.27852794 8.81640826     6     1077    0    0    0
C 90.55811058 -11.99141794 9.91776394     2     1077    1081    1082    1083
H 90.05109797 -13.13326624 11.56999317     6     1080    0    0    0
H 90.60245329 -13.40148036 8.39497733     6     1080    0    0    0
C 93.25997321 -10.79776750 10.31748772     2     1080    1084   1085   1086
[...]
 1762      H     128.1067136900     7.5571101200    30.1289738200
 1763      H     131.4829649000     7.5227635000    30.0642271700
 1764      C     129.9556944500     9.6011339900    33.1049768200
 1765      H     131.5674624800    10.8500676500    33.1423511800
 1766      H     128.3594399200    10.7416584000    33.7480725000
 1767      C     130.2255889100     7.6285616700    35.1641816600
 1768      H     128.4009371600     6.5670888700    35.2512179600
 1769      H     131.5247955300     6.1654607500    34.6201902100
 1770      C     131.2067417200     8.8006084000    37.5878610800
 1771      H     133.1513104700     9.5586017500    37.2975962200
 1772      H     130.1355813500    10.5265359700    38.1538874900
 1773      C     131.1819903700     6.8938607000    39.8076644200
 1774      H     130.7486562300     4.9109024700    39.4461609700
 1775      H     133.0441165700     6.6860188900    40.6290050500
 1776      C     129.4594622000     7.5013747100    42.0549665500
 1777      H     130.1180461000     9.1611619900    43.1055931000
 1778      H     127.6842986100     8.0312273800    41.1672575700
 1779      C     128.9866382000     5.3264113100    43.9057471000
 1780      H     128.0969885500     3.7927913100    42.8941234400
 1781      H     130.6140472700     4.4022699200    44.9256582400
 1782      C     127.2267788300     6.2721723800    46.0953889000
 1783      H     128.5397726600     7.2719415800    47.3604306100
 1784      H     125.9593294100     7.5892007400    45.2602083100
 1785      C     125.6744734100     4.3072623300    47.5543028800
 1786      H     124.3490329400     3.4938741000    46.3124297100
 1787      H     127.1057214000     2.9579254800    48.1455825100
 1788      C     124.4747898700     5.1886564000    50.2052802000
 1789      H     126.0704884200     5.8371116000    51.4622720600
 1790      H     123.2069731100     6.9824436400    50.0389024800
 1791      C     122.9995055100     3.0366588400    51.6388717700
 1792      H     121.1292203800     2.6562625000    50.7189880400
 1793      H     124.2178635100     1.4073642800    51.3626551900
 1794      C     122.5416778500     3.7144763800    54.5083568400
 1795      H     121.6347700100     5.5122198900    54.6473250400
 1796      H     124.3514399700     3.8612086700    55.4487923300
 1797      H     121.2772321400     2.2784526100    55.4675730000
 1798      H      87.7031687300   -12.9679627300    18.0832715100
 1799      C      89.1971500300   -13.2217309600    19.6429743000
 1800      H      88.7756777700   -11.8986734300    21.1825171400
 1801      H      89.1049004800   -15.0669204900    20.1508361300
 1802      C      91.8493735400   -12.8814943800    18.3392561700
 1803      H      92.4922452600   -14.6244990800    17.7697891100
 1804      H      91.9000006500   -11.4747535900    16.8113887000
 1805      C      93.5831669100   -11.8761911900    20.3382812800
 1806      H      92.8862168700   -10.1404630200    21.2183514100
 1807      H      93.8063141000   -13.1666843200    21.9216535800
 1808      C      96.1298128100   -11.4240158700    19.1604926000
 1809      H      96.6350969100   -13.1848154600    17.9844757500
 1810      H      95.8241559400    -9.9475899300    17.7567186400
 1811      C      98.3619000700   -10.8390446500    20.8679395500
 1812      H      97.8076916100    -9.5201970800    22.3234177300
 1813      H      98.5941321800   -12.6327669400    21.9179333900
 1814      C     100.7507809300    -9.9708825800    19.3710003400
 1815      H     100.8095587500   -11.2017301800    17.7196428900
 1816      H     100.6004383900    -8.0121814800    18.7447031500
 1817      C     103.2958110800   -10.1346856900    20.5964249100
 1818      H     103.0519772400    -9.2994666400    22.5883501700
 1819      H     103.6140318900   -12.1763551400    20.9460188300
 1820      C     105.5960960900    -9.0695347900    19.0676738800
 1821      H     105.5944979000    -9.4628413700    16.9880345600
 1822      H     105.5245957100    -7.0168579900    19.2029770100
 1823      C     108.2743760600    -9.7096219500    20.1433251400
 1824      H     108.3788402200    -8.7554326300    22.0220208700
 1825      H     108.4079281000   -11.7096335900    20.4515592300
 1826      C     110.4388948300    -8.8953991900    18.4401883400
 1827      H     110.0743820300    -9.5526117900    16.4932857500
 1828      H     110.5313482400    -6.8691307600    18.2079633700
 1829      C     112.8712277800    -9.8364989700    19.3681802000
 1830      H     113.3101471700    -9.0805214000    21.3246144700
 1831      H     113.1488225400   -12.0361221400    19.4693923100
 1832      C     114.8676508200    -8.6678428700    17.6814205500
 1833      H     114.8682534000    -6.5717478000    17.3317223900
 1834      H     114.8497414400    -9.5647962600    15.8514184400
 1835      H     116.7475761700    -9.1187772100    18.4755757400
 1836      H     108.6925137100    -8.4537838700    26.9547522500
 1837      C     107.5958589600    -6.8177466200    27.5474998200
 1838      H     105.6841371900    -6.8584209600    26.6733039500
 1839      H     107.2442470700    -6.8909278100    29.5406313300
 1840      C     108.8959388300    -4.2855584000    26.9971351200
 1841      H     108.4908099400    -2.7831579500    28.4045293800
 1842      H     110.9025907100    -4.7320593200    27.2468337000
 1843      C     108.5709200600    -3.5100999300    24.2527988300
 1844      H     109.3130566100    -4.8994776300    23.0413567500
 1845      H     106.6044597600    -3.7421156600    23.7179682800
 1846      C     109.7836322000    -1.0627820800    23.5112984000
 1847      H     108.9690548600     0.7039195300    24.3545989900
 1848      H     111.7629033000    -1.2601710300    24.3236541000
 1849      C     109.7912402800    -0.3565239500    20.7358255600
 1850      H     111.5446708600    -1.1239688400    19.9114533300
 1851      H     108.3541939700    -1.4476314700    19.8198070900
 1852      C     109.3490153200     2.4669879800    19.9558465500
 1853      H     110.3714130900     3.6954725100    21.1570608800
 1854      H     109.9158866300     2.8715575600    17.9683729500
 1855      C     106.4568844800     2.9920595600    19.9933698000
 1856      H     105.5106883000     1.4335129800    19.1058868100
 1857      H     105.6422609500     3.0196544700    21.8371293500
 1858      C     105.9085233300     5.4642425100    18.5914073900
 1859      H     104.5552917200     6.4624682700    19.7133913200
 1860      H     107.7705020100     6.5684538600    18.7930931300
 1861      C     105.0013430400     4.7910003900    15.8734436600
 1862      H     105.8113227000     3.0261823800    15.4616377400
 1863      H     102.8834832600     4.5161958800    15.8306444300
 1864      C     105.7448108700     6.8725426500    13.8972558500
 1865      H     104.0491375800     7.9718000100    13.7391124800
 1866      H     107.1982742500     8.1354262700    14.7298624700
 1867      C     106.2633713500     5.7831852300    11.2054715200
 1868      H     108.0143416900     4.7232803300    11.3498449200
 1869      H     104.7075510600     4.5735601800    10.6754473100
 1870      C     106.8182119700     7.7889721900     9.1684452400
 1871      H     106.1749308100     7.1419595600     7.1395201400
 1872      H     108.9087452800     8.2266933100     9.3508089900
 1873      H     105.9169979600     9.6864666800     9.4620918300
 1874      H      99.0685350400     4.8549757400    52.4278470000
 1875      C      99.2567251800     3.7337492400    50.7313072700
 1876      H      97.3617081000     3.1403994900    50.0530324800
 1877      H     100.1188256600     5.0166082700    49.4226755300
 1878      C     101.3142588000     1.6597720300    51.1928300000
 1879      H     103.1675113400     2.6420669100    51.3750141300
 1880      H     100.8938195800     0.9613981800    53.1631280700
 1881      C     101.0032477700    -0.7929136800    49.5652608900
 1882      H      99.2325286700    -1.8770278700    49.9016194100
 1883      H     101.0599543600    -0.4507487700    47.5801995700
 1884      C     103.1388727700    -2.5933696700    50.2580516100
 1885      H     104.8355509300    -1.4858957300    50.4094534800
 1886      H     102.7272504800    -3.2914537200    52.2224929500
 1887      C     103.0581748100    -4.8760140900    48.3575878900
 1888      H     101.1909588200    -5.8196361300    48.1503608500
 1889      H     103.3587339500    -4.0240016400    46.4311831600
 1890      C     105.1803311600    -6.8712844100    48.7299943300
 1891      H     106.9959292100    -5.9536712700    48.4993097400
 1892      H     105.0210910200    -7.8572965400    50.5812015800
 1893      C     104.9286029200    -9.2154137000    47.0408512400
 1894      H     103.3892552800   -10.4586196900    47.8390039600
 1895      H     104.3295573900    -8.5944242200    45.2659914900
 1896      C     107.3373946600   -10.8949178400    46.8798414900
 1897      H     109.1785973200   -10.1205595000    46.1055000100
 1898      H     107.8147883800   -11.4528741000    48.8150715700
 1899      C     106.8450734000   -13.3964944700    45.4982977600
 1900      H     105.0633282800   -14.1927119300    46.0847010200
 1901      H     106.4990668400   -12.8002034800    43.5950581700
 1902      C     108.9887290900   -15.4321339100    45.5181872900
 1903      H     110.5359615200   -14.8068646900    44.4286980800
 1904      H     109.8269983400   -15.4162028200    47.3769109000
 1905      C     108.1287606400   -18.1457756200    44.8345467600
 1906      H     107.0007427500   -19.0723597700    46.2775942200
 1907      H     106.8514850300   -18.1770768000    43.1382767300
 1908      C     110.2368292000   -19.9936954900    44.4136874900
 1909      H     111.4499867600   -19.8155639200    45.9901504700
 1910      H     111.1269283400   -19.5443609400    42.6548608600
 1911      H     109.3929790200   -21.8070352300    44.2608830000
 ----------------------------------------------------------------
 Nuclear Repulsion Energy =           0.00000000 hartrees
 There are     2498 alpha and     2498 beta electrons

 Total QAlloc Memory Limit   2000 MB
 Mega-Array Size       204 MB
 MEM_STATIC part       192 MB
   **** Step 1: MM calculation on the entire system **** 
 OPLSAA force field loaded.
Reading user-defined FF parameters...
 Reading user defined atom types.
 Found 3 user defined AtomTypes
finished.
Determining angles, torsions, etc. from user defined input
Determining VDW/Coulomb pairs... (useList = 0)

 Time req'd to get MM system information: 0.2 s (CPU) 0.3 s (wall)

 ------ MM Energies ------
   Ebond:           549.983965781455
   Eangle:          860.925167074464
   EUreyBrad:         0.000000000000
   Eimptors:          0.000000000000
   Etorsion:        221.375079448903
   Evdw:        1014564.228029488935
   Ecoulomb:        185.847792509275
   Etot:        1016382.360034303041 Kcal/mol (   1619.708398049506 hartree)
 -------------------------
 Time req'd to calc MM energy: 0.1 s (CPU) 0.1 s (wall)
 OPLSAA force field loaded.
Reading user-defined FF parameters...
 Reading user defined atom types.
 Found 3 user defined AtomTypes
finished.
 Time req'd to get MM system information: 0.0 s (CPU) 0.0 s (wall)
 Time req'd to calc MM gradient: 0.2 s (CPU) 0.2 s (wall)
   **** Step 2: MM calculation on the model system **** 
 Reading user defined atom types.
 Found 3 user defined AtomTypes
 ----------------------------------------------------------------
             Standard Nuclear Orientation (Bohr)
    I     Atom           X                Y                Z
 ----------------------------------------------------------------
    1      Fe    109.2876799300    -4.8329873200    37.5022305100
    2      C     111.2395399900    -7.0844591800    38.7793525700
    3      C     106.4342987800    -5.0670310200    35.5814751400
    4      C     110.2190326000    -1.7212331500    38.4952104500
    5      C     111.1427088400    -4.4961812900    34.6762930900
    6      C     107.1027157000    -5.5671952900    39.9920416500
    7      O     112.5041363900    -8.7146721400    39.6701173200
    8      O     104.5795330700    -5.2185449500    34.3877288500
    9      O     111.0965388500     0.1662180700    39.0281624700
   10      O     112.1532193800    -4.2746538000    32.6946960600
   11      O     105.4798986400    -5.9189557000    41.5576126500
 ----------------------------------------------------------------
 Nuclear Repulsion Energy =         804.37779930 hartrees
 There are       48 alpha and       48 beta electrons
 OPLSAA force field loaded.
Reading user-defined FF parameters...
 Reading user defined atom types.
 Found 3 user defined AtomTypes
finished.
Determining VDW/Coulomb pairs... (useList = 0)

 No MM bonds in system. Return all possible pairs.
 Time req'd to get MM system information: 0.0 s (CPU) 0.0 s (wall)

 ------ MM Energies ------
   Ebond:             0.000000000000
   Eangle:            0.000000000000
   EUreyBrad:         0.000000000000
   Eimptors:          0.000000000000
   Etorsion:          0.000000000000
   Evdw:        1015011.803897680948
   Ecoulomb:         -6.363463251335
   Etot:        1015005.440434429562 Kcal/mol (   1617.514136984922 hartree)
 -------------------------
 Eold: 1619.7083980 mm_energy: 1617.5141370 Enew:    2.1942611
 Time req'd to calc MM energy: 0.0 s (CPU) 0.0 s (wall)
 OPLSAA force field loaded.
Reading user-defined FF parameters...
 Reading user defined atom types.
 Found 3 user defined AtomTypes
finished.
Determining VDW/Coulomb pairs... (useList = 0)

 No MM bonds in system. Return all possible pairs.
 Time req'd to get MM system information: 0.0 s (CPU) 0.0 s (wall)
 Number of fixed atoms: 0
 Time req'd to calc MM gradient: 0.0 s (CPU) 0.0 s (wall)
   **** Step 3: QM calculation on the model system **** 
 Requested basis set is def2-mSVP
 There are 80 shells and 174 basis functions

                       Distance Matrix (Bohrs)
             Fe(  1)   C (  2)   C (  3)   C (  4)   C (  5)   C (  6)
   C (  2)  3.241901
   C (  3)  3.447588  6.114473
   C (  4)  3.396534  5.466842  5.831674
   C (  5)  3.397130  4.852181  4.828493  4.810161
   C (  6)  3.392977  4.570123  4.488880  5.171398  6.762085
   O (  7)  5.487513  2.247278  8.177115  7.450523  6.677382  6.259840
   O (  8)  5.658217  8.192905  2.210914  7.804265  6.609111  6.155999
   O (  9)  5.531048  7.256354  7.810444  2.148611  6.377999  7.053490
   O ( 10)  5.624539  6.764086  6.455030  6.626236  2.235382  8.968250
   O ( 11)  5.667861  6.500046  6.111536  7.032679  9.024648  2.282166
             O (  7)   O (  8)   O (  9)   O ( 10)
   O (  8) 10.145239
   O (  9)  9.014635  9.643685
   O ( 10)  8.276074  7.817801  7.807094
   O ( 11)  7.792213  7.260060  8.658759 11.215535

 A cutoff of  1.0D-11 yielded   2497 shell pairs
 There are     12891 function pairs (     14761 Cartesian)
 Smallest overlap matrix eigenvalue = 2.21E-03
 Guess MOs from SCF MO coefficient file
 Reading MOs from coefficient file
 Reading MOs from coefficient file
 A restricted Kohn-Sham SCF calculation will be
 performed using Pulay DIIS extrapolation
 Exchange:  B88      Correlation:  P86
 Using SG-1 standard quadrature grid
 SCF converges when DIIS error is below 1.0E-08
 Using Q-Chem read-in guess as SCF_GUESS READ specified.

 using 2 threads for integral computing
 -------------------------------------------------------
 OpenMP Integral computing Module                
 Release: version 1.0, May 2013, Q-Chem Inc. Pittsburgh 
 -------------------------------------------------------
 ---------------------------------------
  Cycle       Energy         DIIS Error
 ---------------------------------------
    1   -1830.5162938015      1.38E-09
    2   -1830.5162938016      4.55E-09 Convergence criterion met
 ---------------------------------------
 SCF time:  CPU 2.97 s  wall 1.55 s
 E(QM + QM/MM):    -1830.5162938016 E(MM):    2.1942611 E(Tot): -1828.322032736972 
 SCF   energy in the final basis set = -1828.32203274
 Total energy in the final basis set = -1828.32203274

 --------------------------------------------------------------

                    Orbital Energies (a.u.)
 --------------------------------------------------------------

 Alpha MOs
 -- Occupied --
******** -29.6425 -25.6011 -25.5914 -25.5847 -18.8870 -18.8863 -18.8846
-18.8825 -18.8648 -10.0657 -10.0594 -10.0536 -10.0430 -10.0395  -3.3289
 -2.1628  -2.1454  -2.1296  -1.0699  -1.0535  -1.0490  -1.0357  -1.0260
 -0.5835  -0.5323  -0.5239  -0.5193  -0.5154  -0.4570  -0.4449  -0.4417
 -0.4332  -0.4323  -0.4308  -0.4277  -0.4251  -0.4203  -0.4089  -0.4059
 -0.4010  -0.3978  -0.3886  -0.3772  -0.2877  -0.2770  -0.2447  -0.2276
 -- Virtual --
 -0.1055  -0.0967  -0.0877  -0.0835  -0.0783  -0.0710  -0.0669  -0.0556
 -0.0533  -0.0405  -0.0270   0.0095   0.1824   0.2080   0.2274   0.2570
  0.2980   0.3207   0.3578   0.3981   0.4110   0.4155   0.4229   0.4310
  0.4334   0.4780   0.4962   0.5078   0.5261   0.5372   0.5579   0.6061
  0.6085   0.6164   0.6281   0.6424   0.7413   0.7527   0.7599   0.7754
  0.7867   0.8321   0.8375   0.8537   0.8934   0.8990   0.9507   0.9536
  0.9708   0.9795   0.9831   1.0029   1.0179   1.0221   1.0304   1.0723
  1.1932   1.2369   1.2469   1.3341   1.3969   1.4017   1.4072   1.4103
  1.4170   1.4197   1.4292   1.4386   1.4561   1.4675   1.4779   1.4951
  1.5251   1.5301   1.5557   1.5839   1.6055   1.6483   1.6677   1.6792
  1.6833   1.8093   1.8253   1.8303   1.8335   1.8381   1.8459   1.8519
  1.8579   1.8633   1.8670   1.8811   1.8877   1.9033   1.9092   1.9639
  2.3324   2.3783   2.3917   2.4152   2.4514   2.4567   2.4655   2.4851
  2.5015   2.5160   2.6334   2.6422   2.6576   2.6602   2.6725   2.8026
  2.8214   2.8865   2.9152   2.9608  13.2837  13.2971  13.3296  13.3555
 13.4423  24.8855  24.9262  24.9394  24.9714  25.0154
 --------------------------------------------------------------

          Ground-State Mulliken Net Atomic Charges

     Atom                 Charge (a.u.)
  ----------------------------------------
      1 Fe                   -0.490118
      2 C                     0.206920
      3 C                     0.222496
      4 C                     0.246064
      5 C                     0.220369
      6 C                     0.214020
      7 O                    -0.150958
      8 O                    -0.111238
      9 O                    -0.087256
     10 O                    -0.125965
     11 O                    -0.144335
  ----------------------------------------
  Sum of atomic charges =     0.000000

 -----------------------------------------------------------------
                    Cartesian Multipole Moments
 -----------------------------------------------------------------
    Charge (ESU x 10^10)
                -0.0000
    Dipole Moment (Debye)
         X      -0.1371686339      Y       0.5628514099      Z      -0.1539064950
       Tot       0.5994198469
    Quadrupole Moments (Debye-Ang)
        XX     -86.2221     XY      33.3632     YY     -72.5557
        XZ     -11.7425     YZ      12.3483     ZZ     -75.9254
    Octopole Moments (Debye-Ang^2)
       XXX  -13569.0339    XXY    2159.3426    XYY   -4203.9587
       YYY     541.9721    XXZ   -2239.4667    XYZ     731.9288
       YYZ   -1449.7518    XZZ   -4445.9288    YZZ     447.8181
       ZZZ   -4333.5277
    Hexadecapole Moments (Debye-Ang^3)
      XXXX ************   XXXY  148695.2194   XXYY -244282.5140
      XYYY   31368.9180   YYYY   -3316.6399   XXXZ -300189.7252
      XXYZ   47007.4732   XYYZ  -84006.9564   YYYZ   10847.5394
      XXZZ -288272.4984   XYZZ   26264.5550   YYZZ  -29642.2190
      XZZZ -251558.5722   YZZZ   16503.1758   ZZZZ -170146.4085
 -----------------------------------------------------------------
 Calculating MO derivatives via CPSCF
 Full subspace dimension requested for CIS/TDDFT
 MAX_CIS_SUBSPACE fits in available memory
    1     0    36    0.0407565  
    2     0    36    0.0060458  
    3     0    36    0.0007724  
