                  Welcome to Q-Chem
     A Quantum Leap Into The Future Of Chemistry


 Q-Chem 5.4 (devel), Q-Chem, Inc., Pleasanton, CA (2021)

 E. Epifanovsky,  A. T. B. Gilbert,  Xintian Feng,  Joonho Lee,  Yuezhi Mao,  
 N. Mardirossian,  P. Pokhilko,  A. White,  M. Wormit,  M. P. Coons,  
 A. L. Dempwolff,  Zhengting Gan,  D. Hait,  P. R. Horn,  L. D. Jacobson,  
 I. Kaliman,  J. Kussmann,  A. W. Lange,  Ka Un Lao,  D. S. Levine,  Jie Liu,  
 S. C. McKenzie,  A. F. Morrison,  K. Nanda,  F. Plasser,  D. R. Rehn,  
 M. L. Vidal,  Zhi-Qiang You,  Ying Zhu,  B. Alam,  B. Albrecht,  
 A. Aldossary,  E. Alguire,  J. H. Andersen,  D. Barton,  K. Begam,  A. Behn,  
 Y. A. Bernard,  E. J. Berquist,  H. Burton,  A. Carreras,  K. Carter-Fenk,  
 R. Chakraborty,  A. D. Chien,  K. D. Closser,  V. Cofer-Shabica,  
 S. Dasgupta,  Jia Deng,  M. de Wergifosse,  M. Diedenhofen,  Hainam Do,  
 S. Ehlert,  Po-Tung Fang,  S. Fatehi,  Qingguo Feng,  T. Friedhoff,  
 J. Gayvert,  Qinghui Ge,  G. Gidofalvi,  M. Goldey,  J. Gomes,  
 C. Gonzalez-Espinoza,  S. Gulania,  A. Gunina,  M. W. D. Hanson-Heine,  
 P. H. P. Harbach,  A. W. Hauser,  M. F. Herbst,  M. Hernandez Vera,  
 M. Hodecker,  Z. C. Holden,  S. Houck,  Xunkun Huang,  Kerwin Hui,  
 B. C. Huynh,  M. Ivanov,  Hyunjun Ji,  Hanjie Jiang,  B. Kaduk,  S. Kaehler,  
 K. Khistyaev,  Jaehoon Kim,  P. Klunzinger,  Z. Koczor-Benda,  
 Joong Hoon Koh,  D. Kosenkov,  L. Koulias,  T. Kowalczyk,  C. M. Krauter,  
 K. Kue,  A. Kunitsa,  T. Kus,  A. Landau,  K. V. Lawler,  D. Lefrancois,  
 S. Lehtola,  Rain Li,  Yi-Pei Li,  Jiashu Liang,  M. Liebenthal,  
 Hung-Hsuan Lin,  You-Sheng Lin,  Fenglai Liu,  Kuan-Yu Liu,  
 M. Loipersberger,  A. Luenser,  A. Manjanath,  P. Manohar,  E. Mansoor,  
 S. F. Manzer,  Shan-Ping Mao,  A. V. Marenich,  T. Markovich,  S. Mason,  
 S. A. Maurer,  P. F. McLaughlin,  M. F. S. J. Menger,  J.-M. Mewes,  
 S. A. Mewes,  P. Morgante,  J. W. Mullinax,  K. J. Oosterbaan,  G. Paran,  
 Alexander C. Paul,  Suranjan K. Paul,  F. Pavosevic,  Zheng Pei,  S. Prager,  
 E. I. Proynov,  E. Ramos,  B. Rana,  A. E. Rask,  A. Rettig,  R. M. Richard,  
 F. Rob,  E. Rossomme,  T. Scheele,  M. Scheurer,  M. Schneider,  
 N. Sergueev,  S. M. Sharada,  W. Skomorowski,  D. W. Small,  C. J. Stein,  
 Yu-Chuan Su,  E. J. Sundstrom,  Zhen Tao,  J. Thirman,  T. Tsuchimochi,  
 N. M. Tubman,  S. P. Veccham,  O. Vydrov,  J. Wenzel,  J. Witte,  A. Yamada,  
 Kun Yao,  S. Yeganeh,  S. R. Yost,  A. Zech,  Igor Ying Zhang,  Xing Zhang,  
 Yu Zhang,  D. Zuev,  A. Aspuru-Guzik,  A. T. Bell,  N. A. Besley,  
 K. B. Bravaya,  B. R. Brooks,  D. Casanova,  Jeng-Da Chai,  S. Coriani,  
 C. J. Cramer,  A. E. DePrince, III,  R. A. DiStasio Jr.,  A. Dreuw,  
 B. D. Dunietz,  T. R. Furlani,  W. A. Goddard III,  S. Grimme,  
 S. Hammes-Schiffer,  T. Head-Gordon,  W. J. Hehre,  Chao-Ping Hsu,  
 T.-C. Jagau,  Yousung Jung,  A. Klamt,  Jing Kong,  D. S. Lambrecht,  
 WanZhen Liang,  N. J. Mayhall,  C. W. McCurdy,  J. B. Neaton,  
 C. Ochsenfeld,  J. A. Parkhill,  R. Peverati,  V. A. Rassolov,  Yihan Shao,  
 L. V. Slipchenko,  T. Stauch,  R. P. Steele,  J. E. Subotnik,  
 A. J. W. Thom,  A. Tkatchenko,  D. G. Truhlar,  T. Van Voorhis,  
 T. A. Wesolowski,  K. B. Whaley,  H. L. Woodcock III,  P. M. Zimmerman,  
 S. Faraji,  P. M. W. Gill,  M. Head-Gordon,  J. M. Herbert,  A. I. Krylov

 Additional authors for Version 5.4.1: 
 S. Kotaru,  Shaozhi Li,  Xiangyuan Li,  F. Matz,  A. Molle,  Haisheng Ren,  
 Yingli Su,  Hung-Yi Tsai,  C. Utku,  Fang Wang

 Contributors to earlier versions of Q-Chem not listed above: 
 R. D. Adamson,  B. Austin,  R. Baer,  J. Baker,  G. J. O. Beran,  
 K. Brandhorst,  S. T. Brown,  E. F. C. Byrd,  A. K. Chakraborty,  
 G. K. L. Chan,  Chun-Min Chang,  Yunqing Chen,  C.-L. Cheng,  
 Siu Hung Chien,  D. M. Chipman,  D. L. Crittenden,  H. Dachsel,  
 R. J. Doerksen,  A. D. Dutoi,  R. G. Edgar,  J. Fosso-Tande,  
 L. Fusti-Molnar,  D. Ghosh,  A. Ghysels,  A. Golubeva-Zadorozhnaya,  
 J. Gonthier,  M. S. Gordon,  S. R. Gwaltney,  G. Hawkins,  J. E. Herr,  
 A. Heyden,  S. Hirata,  E. G. Hohenstein,  G. Kedziora,  F. J. Keil,  
 C. Kelley,  Jihan Kim,  R. A. King,  R. Z. Khaliullin,  P. P. Korambath,  
 W. Kurlancheek,  A. Laurent,  A. M. Lee,  M. S. Lee,  S. V. Levchenko,  
 Ching Yeh Lin,  D. Liotard,  E. Livshits,  R. C. Lochan,  I. Lotan,  
 L. A. Martinez-Martinez,  P. E. Maslen,  N. Nair,  D. P. O'Neill,  
 D. Neuhauser,  E. Neuscamman,  C. M. Oana,  R. Olivares-Amaya,  R. Olson,  
 T. M. Perrine,  B. Peters,  P. A. Pieniazek,  A. Prociuk,  Y. M. Rhee,  
 J. Ritchie,  M. A. Rohrdanz,  E. Rosta,  N. J. Russ,  H. F. Schaefer III,  
 M. W. Schmidt,  N. E. Schultz,  S. Sharma,  N. Shenvi,  C. D. Sherrill,  
 A. C. Simmonett,  A. Sodt,  T. Stein,  D. Stuck,  K. S. Thanthiriwatte,  
 V. Vanovschi,  L. Vogt,  Tao Wang,  A. Warshel,  M. A. Watson,  
 C. F. Williams,  Q. Wu,  X. Xu,  Jun Yang,  W. Zhang,  Yan Zhao

 Please cite Q-Chem as follows:
 Y. Shao et al., Mol. Phys. 113, 184-215 (2015)
 DOI: 10.1080/00268976.2014.952696

 Q-Chem 5.4.1 for Intel X86 EM64T Linux

 Parts of Q-Chem use Armadillo 9.900.5 (Nocturnal Misbehaviour).
 http://arma.sourceforge.net/

 Q-Chem begins on Fri Jul  1 20:00:03 2022  

 Host: p09r14n09.grace.hpc.yale.internal
0

     Scratch files written to /home/tl686/scratch60/qchem_dev/scratch/qchem9037//
 Processing $rem in /home/tl686/qchem_dev/qchem/config/preferences:
 Processing $rem in /home/tl686/.qchemrc:
Applying user defined connections for MM calculations

 Checking the input file for inconsistencies... 	...done.

--------------------------------------------------------------
User input:
--------------------------------------------------------------
$molecule
0   1
 Fe 1475.88440952 68.82728349 59.78980589    -1  0   0   0   0
C 1475.92647226 67.67212714 56.61102837    -2  0   0   0   0 
C 1475.36896710 70.12473327 62.90890021    -2  0   0   0   0
C 1472.61131253 69.21137705 59.31864435    -2  0   0   0   0
C 1477.35775243 65.93866921 60.91166463    -2  0   0   0   0
C 1478.02671824 71.51165737 59.33756272    -2  0   0   0   0
O 1475.91228167 67.00660072 54.57296548    -3  0   0   0   0
O 1474.98439666 71.32948613 64.74868844    -3  0   0   0   0 
O 1470.46723377 69.55421190 58.66313090    -3  0   0   0   0
O 1478.32897484 64.02241360 61.36392337    -3  0   0   0   0 
O 1479.53062696 73.17797110 59.37206513    -3  0   0   0   0
H 1457.34626665 52.52296420 51.42849046      6     13    0    0    0 
C 1457.12000513 52.01004626 49.49126318     1     12    14    15    16
H 1455.19937456 51.28585481 49.22161119     6     13    0    0    0
H 1456.98432150 53.71103982 48.20515062     6     13    0    0    0
C 1459.38711002 50.38382667 48.77034821     2     13    17    18    19
H 1459.46760005 48.79155726 50.14301444     6     16    0    0    0
H 1458.94474984 49.50541497 46.99420270     6     16    0    0    0
C 1462.06697702 51.62715700 48.55147965     2     16    20   21   22
H 1461.91677380 52.90596150 46.96790731     6     19    0    0    0
H 1462.81283930 52.60477271 50.23756024     6     19    0    0    0
C 1464.08706576 49.73665728 47.76224917     2     19   23   24   25
H 1463.53513374 48.01709105 48.60258912     6    22    0    0    0
H 1464.08271989 49.49623339 45.76820662     6    22    0    0    0
C 1466.71327261 50.52650191 48.47933605     2    22   26   27   28
H 1467.33836270 52.07067292 47.46619789     6    25    0    0    0
H 1466.75700112 51.28310876 50.40731710     6    25    0    0    0
C 1468.32562205 48.25320114 47.94310484     2    25   29   30   31
H 1467.75193197 46.96519878 49.38961665     6    28    0    0    0
H 1467.70972583 47.18705073 46.22919347     6    28    0    0    0
C 1471.16511251 48.99985268 47.68765581     2    28   32   33   34
H 1471.87348590 49.46748307 45.86259213     6    31    0    0    0
H 1471.71778733 50.69303027 48.67283159     6    31    0    0    0
C 1472.55298771 46.89569801 49.05469416     2    31   35   36   37
H 1472.01820320 46.95312665 50.98268162     6    34    0    0    0
H 1472.08248619 44.93401051 48.36054696     6    34    0    0    0
C 1475.50091503 47.47253482 48.83721890     2    34   38   39   40
H 1475.91018032 48.54019023 47.19274437     6    37    0    0    0
H 1475.77587730 48.76214173 50.40344651     6    37    0    0    0
C 1477.13489599 45.09588999 49.21418594     2    37   41   42   43
H 1476.46293956 44.11351005 50.93917827     6    40    0    0    0
H 1477.18785005 43.89411419 47.65115926     6    40    0    0    0
C 1479.75275452 45.75786632 50.04316479     2    40   44   45   46
H 1480.73994168 46.49877238 48.48269560     6    43    0    0    0
H 1480.04097745 47.21042091 51.38089989     6    43    0    0    0
C 1481.25033412 43.55195670 51.18907315     1    43   47   48   49
H 1480.57454330 43.18392351 53.11493709     6    46    0    0    0
H 1483.16270189 44.20196402 51.53817336     6    46    0    0    0
H 1481.54584663 41.81396974 50.11756121     6    46    0    0    0
H 1481.33585704 60.21734855 53.98013893     6     51    0    0    0 
C 1480.26424845 61.20275243 55.44914057     1     50    52    53    54
H 1481.56112441 61.71603218 56.99915682     6     51    0    0    0
H 1479.65191829 63.00287374 54.72477890     6     51    0    0    0
C 1478.10502915 59.33806250 56.47684840     2     51    55    56    57
H 1476.94201904 60.25550162 57.83408422     6     54    0    0    0
H 1476.85046494 58.81387649 54.76134226     6     54    0    0    0
C 1478.98314242 56.94120408 57.90279170     2     54    58   59   60
H 1480.24455433 57.56021492 59.27250304     6     57    0    0    0
H 1477.50047935 56.10928176 59.00486508     6     57    0    0    0
C 1480.52199137 55.10047843 56.44450180     2     57   61   62   63
H 1479.35595579 54.51962597 54.85241902     6    60    0    0    0
H 1482.15106252 56.10056166 55.69151324     6    60    0    0    0
C 1481.64963052 52.95095712 58.07011489     2    60   64   65   66
H 1483.00047255 53.64466240 59.53082016     6    63    0    0    0
H 1480.26814482 52.02472046 59.46221449     6    63    0    0    0
C 1482.70337826 50.89523064 56.24479295     2    63   67   68   69
H 1482.58292703 49.11490927 57.29513764     6    66    0    0    0
H 1481.45499095 50.70036585 54.51364968     6    66    0    0    0
C 1485.33570352 51.54381824 55.18302206     2    66   70   71   72
H 1485.21378043 53.32531411 54.28465328     6    69    0    0    0
H 1486.54982322 51.34519624 56.84667959     6    69    0    0    0
C 1486.22711480 49.55038581 53.19435752     2    69   73   74   75
H 1486.81796574 47.77816690 54.15375183     6    72    0    0    0
H 1484.58141271 49.18336348 51.95719883     6    72    0    0    0
C 1488.31434696 50.30879825 51.57232147     2    72   76   77   78
H 1487.76896474 52.16525753 50.81443604     6    75    0    0    0
H 1489.97623475 50.59791696 52.72829520     6    75    0    0    0
C 1489.08432194 48.30383573 49.54123038     2    75   79   80   81
H 1489.25472633 46.47726232 50.63227291     6    78    0    0    0
H 1487.58235749 48.04878697 48.17348639     6    78    0    0    0
C 1491.59343798 48.67335369 48.24692112     2    78   82   83   84
H 1491.48086984 50.51554014 47.18931020     6    81    0    0    0
H 1493.10273932 48.99959548 49.65779414     6    81    0    0    0
C 1492.34478679 46.41964809 46.42932084     1    81   85   86   87
H 1494.32274834 46.48730475 45.78038320     6    84    0    0    0
H 1491.13467787 46.48029779 44.84815244     6    84    0    0    0
H 1491.84390310 44.54110702 47.23099657     6    84    0    0    0
H 1459.94138518 46.54531543 67.42444355     6     89    0    0    0 
C 1460.57511017 44.57869759 67.76446908     1     88    90    91    92
H 1461.81028506 44.66284605 69.36394910     6     89    0    0    0
H 1458.90378816 43.45953416 68.29107705     6     89    0    0    0
C 1461.62677360 43.47249156 65.23431188     2     89    93    94    95
H 1460.29028695 43.36785375 63.73413423     6     92    0    0    0
H 1463.07579933 44.56868623 64.55018365     6     92    0    0    0
C 1462.58525915 40.73667253 65.46398275     2     92    96   97   98
H 1464.31837846 40.76588296 66.63426661     6     95    0    0    0
H 1461.34971634 39.38881453 66.29637515     6     95    0    0    0
C 1463.28626093 39.72228894 62.73192030     2     95   99   100   101
H 1461.61690324 39.97502785 61.50392889     6    98    0    0    0
H 1464.69239371 41.01681111 61.97929698     6    98    0    0    0
C 1464.59386535 37.07770937 62.71576358     2    98   102   103   104
H 1466.05490309 37.02587556 63.98927502     6    101    0    0    0
H 1463.26327082 35.59805373 63.22721036     6    101    0    0    0
C 1465.44993345 36.26794139 60.02324882     2    101   105   106   107
H 1463.81434081 36.59996878 58.83221759     6    104    0    0    0
H 1466.94983971 37.51076546 59.40548479     6    104    0    0    0
C 1466.10730030 33.39040577 59.89508796     2    104   108   109   110
H 1467.33293767 32.99254538 61.55059073     6    107    0    0    0
H 1464.32890830 32.39568337 60.04084240     6    107    0    0    0
C 1467.63919339 32.67353373 57.63093369     2    107   111   112   113
H 1466.66502624 33.37166679 56.01508147     6    110    0    0    0
H 1469.38379950 33.86952239 57.48208375     6    110    0    0    0
C 1468.50768431 29.98318726 57.64833860     2    110   114   115   116
H 1469.40384964 29.68379142 59.49220223     6    113    0    0    0
H 1467.21362640 28.52554815 57.12906173     6    113    0    0    0
C 1470.64734636 29.61891905 55.67620750     2    113   117   118   119
H 1469.82580388 29.81169458 53.77737737     6    116    0    0    0
H 1471.94705328 31.21744563 55.65650299     6    116    0    0    0
C 1472.13921175 27.16177309 55.80649792     2    116   120   121   122
H 1473.32029167 27.20697809 54.12055705     6    119    0    0    0
H 1473.44573761 27.38973641 57.39089683     6    119    0    0    0
C 1470.61820427 24.80707074 56.52982040     1    119   123   124   125
H 1471.52803270 23.04030601 56.15323052     6    122    0    0    0
H 1468.87714533 24.64863949 55.36685533     6    122    0    0    0
H 1469.73947908 24.93085192 58.51528993     6    122    0    0    0
H 1450.49176436 43.11245611 71.39576736     6     127    0    0    0 
C 1451.70200232 43.45601849 73.03233845     1     126    128    129    130
H 1450.88772313 42.60464596 74.73372424     6     127    0    0    0
H 1453.39015001 42.45189167 72.71532788     6     127    0    0    0
C 1452.32394882 46.29058578 73.00386826     2     127    131    132    133
H 1453.91391973 46.79416795 71.68937811     6     130    0    0    0
H 1450.67679919 47.21410446 72.24508125     6     130    0    0    0
C 1452.99442066 47.02645431 75.64343653     2     130    134   135   136
H 1451.77575483 46.10602958 76.99751882     6     133    0    0    0
H 1454.91856374 46.36260573 76.10786243     6     133    0    0    0
C 1453.16722609 49.87487538 76.14908212     2     133   137   138   139
H 1451.37352008 50.70327894 75.56859897     6    136    0    0    0
H 1453.15094903 50.34279110 78.12989635     6    136    0    0    0
C 1455.05986829 51.46466507 74.73021319     2    136   140   141   142
H 1456.84992831 50.67306953 75.21145979     6    139    0    0    0
H 1454.78360516 51.13869964 72.65263107     6    139    0    0    0
C 1454.78959550 54.37184687 75.10522176     2    139   143   144   145
H 1452.77319969 54.84483503 74.74236370     6    142    0    0    0
H 1454.83277709 54.93412320 77.10678116     6    142    0    0    0
C 1456.25239152 56.12006546 73.25098254     2    142   146   147   148
H 1458.32271686 56.01017759 73.28606036     6    145    0    0    0
H 1455.61562428 55.76925924 71.34318398     6    145    0    0    0
C 1455.51417168 58.89466069 73.93336255     2    145   149   150   151
H 1453.35258725 59.16450124 73.77240874     6    148    0    0    0
H 1455.82905943 58.96707706 75.97574967     6    148    0    0    0
C 1456.87798236 61.04291380 72.54690203     2    148   152   153   154
H 1458.84007770 60.56873118 72.49745412     6    151    0    0    0
H 1456.40541977 60.90338368 70.55089515     6    151    0    0    0
C 1456.33382547 63.81566092 73.39101223     2    151   155   156   157
H 1457.29207677 65.04089438 72.06640721     6    154    0    0    0
H 1454.27529228 64.06162687 73.17423332     6    154    0    0    0
C 1457.34811773 64.45640838 76.07102012     2    154   158   159   160
H 1456.34968450 63.14410410 77.31746824     6    157    0    0    0
H 1459.37451917 63.96181341 76.51970459     6    157    0    0    0
C 1456.66405483 67.10852919 76.74537856     1    157   161   162   163
H 1457.07957062 67.53432002 78.70237392     6    160    0    0    0
H 1454.71448045 67.60101591 76.36557178     6    160    0    0    0
H 1457.70156987 68.65363616 75.88320180     6    160    0    0    0
H 1462.75829351 39.44223110 73.94223779     6     165    0    0    0 
C 1461.05177019 40.10243133 73.25560161     1     164    166    167    168
H 1461.62652387 41.19105579 71.61967088     6     165    0    0    0
H 1459.83827222 38.51377545 72.65189547     6     165    0    0    0
C 1459.45067303 41.74504326 75.05907271     2     165    169    170    171
H 1459.68022654 43.71332656 74.46736204     6     168    0    0    0
H 1457.44446492 41.30491380 74.97336040     6     168    0    0    0
C 1460.26855339 41.35229880 77.68235569     2     168    172   173   174
H 1459.69981762 39.33233443 78.12206418     6     171    0    0    0
H 1462.35812376 41.49535445 77.90895251     6     171    0    0    0
C 1459.08139051 43.18414850 79.56172026     2     171   175   176   177
H 1459.50410613 45.19536623 78.98583661     6    174    0    0    0
H 1457.09694153 42.92387890 79.58290569     6    174    0    0    0
C 1460.16135064 42.68192936 82.20047252     2    174   178   179   180
H 1459.86423258 40.64968290 82.89231715     6    177    0    0    0
H 1462.08953234 43.10247700 82.09287298     6    177    0    0    0
C 1458.89300639 44.23694490 84.33754505     2    177   181   182   183
H 1458.57247739 46.22884843 83.98995689     6    180    0    0    0
H 1456.99886431 43.44161454 84.64992496     6    180    0    0    0
C 1460.46959083 44.00892153 86.84338683     2    180   184   185   186
H 1459.55411347 42.33091605 87.86528749     6    183    0    0    0
H 1462.27226188 43.30520952 86.28465981     6    183    0    0    0
C 1460.65509684 46.45528421 88.33973799     2    183   187   188   189
H 1461.42833692 47.91558823 87.20630603     6    186    0    0    0
H 1458.77528472 46.94442464 88.81978611     6    186    0    0    0
C 1462.85210417 46.27224593 90.41251609     2    186   190   191   192
H 1462.49529863 44.60809956 91.65676867     6    189    0    0    0
H 1464.63991399 45.76069909 89.45012688     6    189    0    0    0
C 1462.96838507 48.71026256 92.16270163     2    189   193   194   195
H 1462.63036104 50.31950747 90.90444691     6    192    0    0    0
H 1461.35401757 48.75190792 93.42138867     6    192    0    0    0
C 1465.48191917 49.17137552 93.59855366     2    192   196   197   198
H 1466.01354246 47.54418083 94.92041148     6    195    0    0    0
H 1467.05874433 49.73042373 92.38366645     6    195    0    0    0
C 1464.94051601 51.37589743 95.40425009     1    195   199   200   201
H 1466.77543588 51.99059361 96.15301808     6    198    0    0    0
H 1463.91018781 50.54270985 96.91781875     6    198    0    0    0
H 1463.93679793 53.15476242 94.60579408     6    198    0    0    0
H 1485.54884254 46.12811291 74.36890740     6     203    0    0    0 
C 1484.77286397 45.11238202 75.95691635     1     202    204    205    206
H 1484.80069400 46.33797197 77.64717318     6     203    0    0    0
H 1482.83373685 44.44667679 75.54299935     6     203    0    0    0
C 1486.44639787 42.83772286 76.51489544     2     203    207    208    209
H 1485.43347847 41.78397076 78.00774645     6     206    0    0    0
H 1486.54030014 41.53964303 74.90018796     6     206    0    0    0
C 1489.20501741 43.15565308 77.28580280     2     206    210   211   212
H 1490.03242172 41.28918111 77.11617686     6     209    0    0    0
H 1490.37946254 44.53281775 76.16124905     6     209    0    0    0
C 1489.56533007 44.08089165 80.13802441     2     209   213   214   215
H 1489.08798368 46.00106954 80.55107615     6    212    0    0    0
H 1488.42651386 42.88930256 81.32593262     6    212    0    0    0
C 1492.22160141 43.35464522 80.80750840     2    212   216   217   218
H 1492.21437098 41.32657960 81.06351195     6    215    0    0    0
H 1493.42176979 43.57332297 79.21699948     6    215    0    0    0
C 1493.21576845 44.83326345 83.09597582     2    215   219   220   221
H 1491.77433985 45.11949311 84.54684315     6    218    0    0    0
H 1494.60129865 43.72726969 84.13865626     6    218    0    0    0
C 1494.60698654 47.34156946 82.38117026     2    218   222   223   224
H 1496.15273626 46.84303882 81.11155312     6    221    0    0    0
H 1493.26762253 48.33285570 81.07798942     6    221    0    0    0
C 1495.66876420 48.78988662 84.71707780     2    221   225   226   227
H 1494.21514130 48.70841320 86.23593014     6    224    0    0    0
H 1497.09074573 47.46010737 85.47534695     6    224    0    0    0
C 1496.65093598 51.47312194 84.16655846     2    224   228   229   230
H 1498.35632261 51.49364965 83.04244434     6    227    0    0    0
H 1495.12269170 52.70256072 83.35188444     6    227    0    0    0
C 1497.54065238 52.48378437 86.80887374     2    227   231   232   233
H 1496.11368489 52.26848914 88.28075441     6    230    0    0    0
H 1499.36146835 51.51402051 87.33057551     6    230    0    0    0
C 1497.96577103 55.42886913 86.60521524     2    230   234   235   236
H 1499.11770837 55.64615944 84.87990072     6    233    0    0    0
H 1496.12450363 56.35152048 86.64463132     6    233    0    0    0
C 1499.28729540 56.83491506 88.71052437     1    233   237   238   239
H 1499.16203081 58.85247564 88.32704665     6    236    0    0    0
H 1501.16116664 56.29100183 88.65618604     6    236    0    0    0
H 1498.35170404 56.32346136 90.42614330     6    236    0    0    0
H 1491.29051829 42.45485436 50.66167414     6     241    0    0    0 
C 1491.41145854 40.46304461 51.19214937     1     240    242    243    244
H 1493.35953752 39.74301507 51.45428577     6     241    0    0    0
H 1490.39995235 40.21098096 52.88661787     6     241    0    0    0
C 1489.97105017 38.65539824 49.31953591     2     241    245    246    247
H 1491.15286616 38.71710046 47.57638041     6     244    0    0    0
H 1490.25525308 36.67273769 50.00512080     6     244    0    0    0
C 1487.22094682 39.41711160 48.82439779     2     244    248   249   250
H 1486.09900298 37.87935820 48.01201353     6     247    0    0    0
H 1486.06899343 39.69812424 50.56006174     6     247    0    0    0
C 1487.18051960 41.83271628 47.10455960     2     247   251   252   253
H 1487.80109010 43.56519851 48.19654752     6    250    0    0    0
H 1488.65453768 41.57453881 45.56494620     6    250    0    0    0
C 1484.68852724 41.80290140 45.54744575     2    250   254   255   256
H 1484.95224406 40.09441268 44.39630483     6    253    0    0    0
H 1482.89836335 41.50427235 46.48191622     6    253    0    0    0
C 1484.18336369 43.99902683 43.61701964     2    253   257   258   259
H 1482.26200452 44.11572636 42.85995668     6    256    0    0    0
H 1484.24597142 45.67365304 44.75976081     6    256    0    0    0
C 1486.15856306 44.21307746 41.41243907     2    256   260   261   262
H 1488.11796755 43.51981984 41.93053398     6    259    0    0    0
H 1485.62518539 42.74284636 40.03022397     6    259    0    0    0
C 1486.44341754 46.97612957 40.50410705     2    259   263   264   265
H 1484.93550128 47.55075587 39.35460316     6    262    0    0    0
H 1486.21235572 48.12422384 42.05990446     6    262    0    0    0
C 1489.00073492 47.47596329 39.24478964     2    262   266   267   268
H 1489.24263441 49.50778802 39.23041339     6    265    0    0    0
H 1490.58458395 46.84451209 40.28022438     6    265    0    0    0
C 1488.97438516 46.56539015 36.48489607     2    265   269   270   271
H 1488.95838769 44.53710156 36.45833952     6    268    0    0    0
H 1487.49702016 47.15384282 35.40010423     6    268    0    0    0
C 1491.60937141 47.56373671 35.33138679     2    268   272   273   274
H 1491.75946919 49.54512395 35.58875766     6    271    0    0    0
H 1493.12896948 46.70431026 36.40741363     6    271    0    0    0
C 1491.93090915 46.92053232 32.55907446     1    271   275   276   277
H 1490.77702467 45.11689460 32.25334390     6    274    0    0    0
H 1493.86195578 46.34190053 32.07497632     6    274    0    0    0
H 1491.03666473 47.93353785 31.20821523     6    274    0    0    0
H 1479.84766452 35.55318880 66.51193936     6     279    0    0    0 
C 1479.10025054 37.35157658 67.22234392     1     278    280    281    282
H 1478.44237082 38.18844272 65.53054464     6     279    0    0    0
H 1477.66383022 36.84411284 68.82002200     6     279    0    0    0
C 1481.13905062 39.11605449 68.54440226     2     279    283    284    285
H 1480.45966599 40.94216229 68.88703870     6     282    0    0    0
H 1481.60944665 38.12405807 70.26416230     6     282    0    0    0
C 1483.49422234 39.17396023 66.97976387     2     282    286   287   288
H 1483.99293616 37.24466381 66.33900740     6     285    0    0    0
H 1482.70879747 39.94573928 65.26807764     6     285    0    0    0
C 1485.66054549 40.67056642 68.24430359     2     285   289   290   291
H 1484.96444410 42.54886456 68.72577658     6    288    0    0    0
H 1486.17535918 40.00641787 70.07625353     6    288    0    0    0
C 1488.26645014 40.41926520 67.00876289     2    288   292   293   294
H 1488.75140447 38.38895036 67.09524069     6    291    0    0    0
H 1488.21937583 40.93127613 64.94728485     6    291    0    0    0
C 1490.25232715 41.98014636 68.10478828     2    291   295   296   297
H 1489.91992119 43.97813020 68.47036468     6    294    0    0    0
H 1490.42900731 41.17149457 69.95888711     6    294    0    0    0
C 1492.77976297 41.96506856 66.65701568     2    294   298   299   300
H 1493.36647903 40.00600542 66.93347892     6    297    0    0    0
H 1492.61372853 42.38815174 64.63985279     6    297    0    0    0
C 1494.70904085 43.73458248 67.73253663     2    297   301   302   303
H 1494.10407797 45.51328437 67.37485640     6    300    0    0    0
H 1494.94755187 43.18786825 69.72329988     6    300    0    0    0
C 1497.35769995 43.46955321 66.37818643     2    300   304   305   306
H 1497.80082451 41.40556221 66.14818211     6    303    0    0    0
H 1497.25468851 44.08284662 64.43193767     6    303    0    0    0
C 1499.57126225 44.67030889 67.74039279     2    303   307   308   309
H 1500.16948196 46.36016586 66.81310344     6    306    0    0    0
H 1498.91106964 45.29058906 69.48400214     6    306    0    0    0
C 1501.72548942 42.70292191 68.26168992     2    306   310   311   312
H 1500.92347133 40.89798207 69.08061384     6    309    0    0    0
H 1502.58155329 42.26762060 66.38188659     6    309    0    0    0
C 1503.58057038 43.64054507 70.24489362     1    309   313   314   315
H 1502.79436643 44.10628090 72.00273667     6    312    0    0    0
H 1504.46833459 45.37949360 69.56210127     6    312    0    0    0
H 1504.91346096 42.30708176 70.72578348     6    312    0    0    0
H 1459.78656069 52.68991529 60.23443557     6     317    0    0    0 
C 1461.20679037 51.24750122 59.86750796     1     316    318    319    320
H 1460.97192544 49.76943337 61.31767590     6     317    0    0    0
H 1460.68561054 50.33333970 58.16649020     6     317    0    0    0
C 1463.69912152 52.57337238 59.52671212     2     317    321    322    323
H 1465.28645515 51.19959250 59.55038231     6     320    0    0    0
H 1463.66645313 53.54799916 57.75596972     6     320    0    0    0
C 1464.51813073 54.39255756 61.67833283     2     320    324   325   326
H 1464.46001836 53.40350247 63.49503943     6     323    0    0    0
H 1466.48147521 55.01818398 61.27244472     6     323    0    0    0
C 1462.83089494 56.80399262 61.92981426     2     323   327   328   329
H 1463.08234090 58.11442952 60.43066726     6    326    0    0    0
H 1460.82607267 56.36989359 61.84208607     6    326    0    0    0
C 1463.23801025 57.96312258 64.61425351     2    326   330   331   332
H 1462.36793874 56.74075781 65.99487690     6    329    0    0    0
H 1465.27939844 57.74982189 65.27691104     6    329    0    0    0
C 1462.44192183 60.71355721 65.05744151     2    329   333   334   335
H 1460.41682570 60.81513889 65.58819227     6    332    0    0    0
H 1463.57660145 61.26349748 66.71660646     6    332    0    0    0
C 1462.76627433 62.82543258 62.97786420     2    332   336   337   338
H 1464.76201970 63.21925717 62.59972382     6    335    0    0    0
H 1461.87165834 62.03150115 61.21384615     6    335    0    0    0
C 1461.27246843 65.19043343 63.74036502     2    335   339   340   341
H 1461.15477642 66.33842840 62.10387593     6    338    0    0    0
H 1459.29712599 65.03278622 63.95845374     6    338    0    0    0
C 1462.38301793 67.01829432 65.79469545     2    338   342   343   344
H 1462.75786447 65.78730108 67.40144957     6    341    0    0    0
H 1464.08220943 67.85018409 65.05132872     6    341    0    0    0
C 1460.60907114 69.27365460 66.35374804     2    341   345   346   347
H 1461.50049377 70.83136347 67.48726956     6    344    0    0    0
H 1459.98140298 70.11454222 64.60184479     6    344    0    0    0
C 1458.11245892 68.61949255 67.75800158     2    344   348   349   350
H 1457.04898211 67.07821870 66.98598726     6    347    0    0    0
H 1458.75369213 67.98599054 69.63971353     6    347    0    0    0
C 1456.38442336 70.92857975 68.11574784     1    347   351   352   353
H 1454.57537901 70.05475992 68.48309484     6    350    0    0    0
H 1456.13984969 71.87412463 66.23569766     6    350    0    0    0
H 1457.22149942 72.20289894 69.60396436     6    350    0    0    0
H 1491.86774498 34.93585589 55.95895748     6     355    0    0    0 
C 1489.96014728 34.82735455 56.73581759     1     354    356    357    358
H 1488.86628917 34.23157911 55.13917432     6     355    0    0    0
H 1490.08269278 33.35591609 58.11885742     6     355    0    0    0
C 1488.74228269 37.26383012 57.82042545     2     355    359    360    361
H 1489.55439480 37.75187654 59.61337275     6     358    0    0    0
H 1489.18134608 38.83930243 56.56544115     6     358    0    0    0
C 1485.91418697 37.20515630 58.01757336     2     358    362   363   364
H 1485.18703381 36.15905955 56.37716807     6     361    0    0    0
H 1485.27447630 36.16048842 59.67867561     6     361    0    0    0
C 1484.68964411 39.88326092 58.03210843     2     361   365   366   367
H 1485.49574585 41.22669135 59.44389199     6    364    0    0    0
H 1484.65834966 40.91259836 56.21840102     6    364    0    0    0
C 1481.94780296 39.65054070 58.93128823     2    364   368   369   370
H 1481.14966421 38.21599319 57.61966619     6    367    0    0    0
H 1481.57539088 38.78036173 60.79409962     6    367    0    0    0
C 1480.39597157 42.13987896 59.05560000     2    367   371   372   373
H 1481.35310622 43.41804260 60.34838950     6    370    0    0    0
H 1480.41947542 43.11800173 57.25789601     6    370    0    0    0
C 1477.62278234 41.79925488 60.02303158     2    370   374   375   376
H 1476.63026512 40.28649576 59.09669087     6    373    0    0    0
H 1477.90810619 41.28642649 61.94835358     6    373    0    0    0
C 1476.06850473 44.15468423 59.85269619     2    373   377   378   379
H 1477.22267682 45.66854212 60.47807942     6    376    0    0    0
H 1475.73091430 44.64876944 57.84060871     6    376    0    0    0
C 1473.58401752 43.81450870 61.52563565     2    376   380   381   382
H 1472.62562570 42.10995867 60.77096810     6    379    0    0    0
H 1474.26582343 43.17222767 63.34114287     6    379    0    0    0
C 1471.74269811 45.93458525 61.62222739     2    379   383   384   385
H 1472.75726736 47.52267464 62.41467732     6    382    0    0    0
H 1471.02376568 46.49882676 59.73327829     6    382    0    0    0
C 1469.20978286 45.37032406 62.93258628     2    382   386   387   388
H 1468.32487556 47.18046571 62.62111291     6    385    0    0    0
H 1468.12837465 43.83493797 62.01881347     6    385    0    0    0
C 1469.63607625 44.75886081 65.75999650     1    385   389   390   391
H 1470.55134814 46.33865375 66.71057354     6    388    0    0    0
H 1470.64711474 42.90800343 66.15005145     6    388    0    0    0
H 1467.74379089 44.69348475 66.66706719     6    388    0    0    0
H 1470.35731733 86.89088589 51.11433329     6     393    0    0    0 
C 1471.64533146 85.34120949 51.58245377     1     392    394    395    396
H 1473.22229612 86.30470943 52.29888235     6     393    0    0    0
H 1471.00272161 84.29999799 53.13415189     6     393    0    0    0
C 1472.18728432 83.69341186 49.38243156     2     393    397    398    399
H 1470.41831268 82.75091458 49.08587198     6     396    0    0    0
H 1472.62715713 84.67808634 47.60237786     6     396    0    0    0
C 1474.18566556 81.67766497 49.55109918     2     396    400   401   402
H 1475.79778792 82.42257951 50.61497176     6     399    0    0    0
H 1473.91308011 80.10270012 50.90149691     6     399    0    0    0
C 1475.41974384 80.87528922 47.01094339     2     399   403   404   405
H 1474.10161454 80.28490201 45.65296462     6    402    0    0    0
H 1476.32069150 82.62419071 46.41214784     6    402    0    0    0
C 1477.31979489 78.87576680 47.35054025     2    402   406   407   408
H 1478.70657194 79.05507812 48.88899759     6    405    0    0    0
H 1476.00077912 77.44712569 48.01268343     6    405    0    0    0
C 1478.66621371 78.18956604 44.82621367     2    405   409   410   411
H 1477.23921859 77.50156506 43.37043030     6    408    0    0    0
H 1479.84634544 79.79013860 44.19094162     6    408    0    0    0
C 1480.35081570 75.76529351 45.03090436     2    408   412   413   414
H 1481.91597811 76.03347568 46.28113912     6    411    0    0    0
H 1479.18008197 74.11108854 45.62107222     6    411    0    0    0
C 1481.64198383 75.08780151 42.54246057     2    411   415   416   417
H 1480.51546392 75.21048314 40.84635456     6    414    0    0    0
H 1483.11330917 76.65117260 42.28988220     6    414    0    0    0
C 1483.17968682 72.49840905 42.63586533     2    414   418   419   420
H 1484.71989719 72.52714986 43.98719968     6    417    0    0    0
H 1481.98131060 71.03839876 43.30518922     6    417    0    0    0
C 1484.33294327 71.91335168 40.05146423     2    417   421   422   423
H 1482.82690003 71.36019761 38.65186738     6    420    0    0    0
H 1485.40096807 73.40466544 39.12048306     6    420    0    0    0
C 1486.27041423 69.71894043 40.05942377     2    420   424   425   426
H 1486.70198499 69.27250177 37.96624859     6    423    0    0    0
H 1487.97469002 70.43727942 41.09636906     6    423    0    0    0
C 1485.13512915 67.48454273 41.62220015     1    423   427   428   429
H 1486.46028032 66.00146455 41.49314551     6    426    0    0    0
H 1483.22618039 66.71520439 41.05339371     6    426    0    0    0
H 1485.07804223 68.14277880 43.66912540     6    426    0    0    0
H 1473.40475397 56.44863044 44.22776753     6     431    0    0    0 
C 1473.37391281 56.99347533 42.22591581     1     430    432    433    434
H 1475.27961917 57.08926488 41.71419897     6     431    0    0    0
H 1472.37503681 55.68314996 41.08815376     6     431    0    0    0
C 1472.31168894 59.66947711 42.14819421     2     431    435    436    437
H 1470.60459098 59.97571688 43.31359391     6     434    0    0    0
H 1473.61155403 60.91417679 42.98977446     6     434    0    0    0
C 1471.59646904 60.57290865 39.43524879     2     434    438   439   440
H 1473.16495183 60.51585377 38.10951199     6     437    0    0    0
H 1470.40718782 59.16005662 38.50575349     6     437    0    0    0
C 1470.08139332 63.00754619 39.22237245     2     437   441   442   443
H 1469.49957610 62.77427461 37.27159037     6    440    0    0    0
H 1468.54622251 62.70233479 40.62013359     6    440    0    0    0
C 1471.38985217 65.56739901 39.67957141     2    440   444   445   446
H 1472.87509824 65.51169026 41.10105289     6    443    0    0    0
H 1472.50957921 65.72807433 37.83515613     6    443    0    0    0
C 1469.64041635 67.79479543 40.26490161     2    443   447   448   449
H 1467.80160209 67.64641877 39.31128858     6    446    0    0    0
H 1469.05556982 67.75215164 42.21764773     6    446    0    0    0
C 1470.95745801 70.31382350 39.70137303     2    446   450   451   452
H 1472.63081941 70.71239797 40.89667507     6    449    0    0    0
H 1471.62779821 70.24205022 37.68086902     6    449    0    0    0
C 1469.17402486 72.50529419 40.09132191     2    449   453   454   455
H 1467.49666633 72.02457626 39.02903751     6    452    0    0    0
H 1468.90813547 72.85342375 42.06797547     6    452    0    0    0
C 1470.06393378 75.14499746 38.88606883     2    452   456   457   458
H 1471.71203790 75.64046126 40.01784237     6    455    0    0    0
H 1470.92048805 74.93672999 36.99936986     6    455    0    0    0
C 1468.21086531 77.25328139 38.84803056     2    455   459   460   461
H 1468.89639738 78.66369046 37.37711346     6    458    0    0    0
H 1466.41992890 76.45799445 38.27784277     6    458    0    0    0
C 1467.67965897 78.51895654 41.38938009     2    458   462   463   464
H 1466.69557216 77.36360006 42.79477206     6    461    0    0    0
H 1469.29982768 79.05201832 42.22075648     6    461    0    0    0
C 1466.08629119 80.99561707 40.86540899     1    461   465   466   467
H 1464.23188817 80.35257208 40.24418718     6    464    0    0    0
H 1467.20377703 82.35040533 39.71843607     6    464    0    0    0
H 1465.51936994 81.77298669 42.55859171     6    464    0    0    0
H 1471.61232158 36.63197187 69.90289385     6     469    0    0    0 
C 1470.43871077 37.32087829 68.37695839     1     468    470    471    472
H 1468.89347766 35.99749238 68.26179618     6     469    0    0    0
H 1469.79204285 39.10214599 69.01248372     6     469    0    0    0
C 1471.77232447 37.62868030 65.72858804     2     469    473    474    475
H 1470.27644513 38.04829482 64.46649529     6     472    0    0    0
H 1472.96818428 39.38524912 65.55307545     6     472    0    0    0
C 1473.34466489 35.18392164 64.88104114     2     472    476   477   478
H 1474.98010031 34.87634426 66.07443997     6     475    0    0    0
H 1472.18278791 33.42054383 64.96407143     6     475    0    0    0
C 1474.28927761 35.46166741 62.15845704     2     475   479   480   481
H 1472.71438080 35.23376643 60.73291958     6    478    0    0    0
H 1474.92324399 37.46811007 62.03396216     6    478    0    0    0
C 1476.47523523 33.83874540 61.17091434     2    478   482   483   484
H 1478.22605573 34.44971712 61.98755392     6    481    0    0    0
H 1476.21153283 31.86175332 61.55743892     6    481    0    0    0
C 1477.19593582 34.01756265 58.29137524     2    481   485   486   487
H 1475.56417503 33.44835943 57.00263554     6    484    0    0    0
H 1477.61021682 36.04310050 58.01762321     6    484    0    0    0
C 1479.64949543 32.70351553 57.61007315     2    484   488   489   490
H 1481.10275597 33.84590942 58.68748152     6    487    0    0    0
H 1479.70347836 30.71209497 58.07080691     6    487    0    0    0
C 1480.15359557 33.20980305 54.85797244     2    487   491   492   493
H 1478.53422496 33.09391290 53.55459106     6    490    0    0    0
H 1480.57710645 35.21433248 54.54597356     6    490    0    0    0
C 1482.44938084 31.77209511 53.62227737     2    490   494   495   496
H 1484.14548987 32.12756038 54.74818534     6    493    0    0    0
H 1481.89801070 29.71243437 53.82006374     6    493    0    0    0
C 1482.97926476 32.46518483 50.83869496     2    493   497   498   499
H 1481.29963199 32.18927482 49.77013520     6    496    0    0    0
H 1483.63123879 34.44485534 50.95901246     6    496    0    0    0
C 1484.93985148 30.82023924 49.50869659     2    496   500   501   502
H 1486.76957360 31.46805205 50.03721557     6    499    0    0    0
H 1484.91574496 28.85976638 50.13845387     6    499    0    0    0
C 1484.85961516 31.23388168 46.65015708     1    499   503   504   505
H 1486.52525315 30.29523021 45.70080656     6    502    0    0    0
H 1484.94294928 33.17231648 46.16801394     6    502    0    0    0
H 1483.18543702 30.38646350 45.75066224     6    502    0    0    0
H 1501.63742340 45.63798614 44.52600114     6     507    0    0    0 
C 1500.95493730 46.60040880 42.76568174     1     506    508    509    510
H 1502.20703932 48.05511597 41.96871035     6     507    0    0    0
H 1500.75395413 45.25679402 41.16458779     6     507    0    0    0
C 1498.21870587 47.95603032 42.91110608     2     507    511    512    513
H 1496.87767989 46.52038245 42.81323719     6     510    0    0    0
H 1498.01568697 48.70185095 44.79664469     6     510    0    0    0
C 1497.57857578 49.98380520 40.98982830     2     510    514   515   516
H 1499.23596270 51.29867818 40.94242450     6     513    0    0    0
H 1497.18690011 49.13905705 39.21265220     6     513    0    0    0
C 1495.27637069 51.34680562 41.98897580     2     513   517   518   519
H 1493.77658448 49.89041759 42.03993691     6    516    0    0    0
H 1495.60163514 52.00275242 43.88810410     6    516    0    0    0
C 1494.08159691 53.42955663 40.36186792     2    516   520   521   522
H 1495.37767122 55.03762289 40.17551761     6    519    0    0    0
H 1493.80538019 52.65982424 38.51140973     6    519    0    0    0
C 1491.50835358 54.28560206 41.50629506     2    519   523   524   525
H 1490.81026837 52.60215771 42.42410378     6    522    0    0    0
H 1492.16826286 55.63299098 42.98394103     6    522    0    0    0
C 1490.00323226 55.75763042 39.59259263     2    522   526   527   528
H 1490.78046479 57.60601041 39.65725144     6    525    0    0    0
H 1490.27965401 54.86434350 37.64904142     6    525    0    0    0
C 1487.25238968 56.05276358 40.55505248     2    525   529   530   531
H 1486.47801072 54.00403395 40.73895461     6    528    0    0    0
H 1487.44497000 56.75685109 42.43615184     6    528    0    0    0
C 1485.82324833 57.91410337 38.73296635     2    528   532   533   534
H 1486.77116007 59.68673558 38.33240906     6    531    0    0    0
H 1485.62426344 57.12978741 36.82933219     6    531    0    0    0
C 1483.38733170 58.75903501 39.88551393     2    531   535   536   537
H 1482.40881844 57.19663493 40.83900776     6    534    0    0    0
H 1483.58616796 60.21542102 41.24031900     6    534    0    0    0
C 1481.73402020 59.66597480 37.70299998     2    534   538   539   540
H 1482.64267275 61.32152694 36.82986353     6    537    0    0    0
H 1481.63133786 58.15569223 36.34386314     6    537    0    0    0
C 1479.18737593 60.41277858 38.61161797     1    537   541   542   543
H 1478.12256886 61.16099934 37.03318647     6    540    0    0    0
H 1479.16567125 61.97802337 40.12031098     6    540    0    0    0
H 1478.00329243 58.86830483 39.14492676     6    540    0    0    0
H 1473.22325912 76.96385897 55.50898438     6     545    0    0    0 
C 1473.58768040 76.99498660 57.42365719     1     544    546    547    548
H 1474.82295244 75.54455883 57.96751041     6     545    0    0    0
H 1474.47531840 78.59816459 58.17379821     6     545    0    0    0
C 1471.09972005 76.56262610 58.71780147     2     545    549    550    551
H 1469.81748841 78.15161147 58.14977731     6     548    0    0    0
H 1470.19636024 74.86563756 57.95068567     6     548    0    0    0
C 1471.40308619 76.40398693 61.48065587     2     548    552   553   554
H 1473.10292035 75.13258546 61.82590105     6     551    0    0    0
H 1471.77222792 78.26526481 62.25442785     6     551    0    0    0
C 1469.07334488 75.11816769 62.70073840     2     551   555   556   557
H 1467.46159132 76.38954638 62.24732094     6    554    0    0    0
H 1469.02389932 73.06043640 62.12467676     6    554    0    0    0
C 1469.57121786 74.85039162 65.47765187     2    554   558   559   560
H 1471.00433204 73.43297052 65.89495268     6    557    0    0    0
H 1470.43876008 76.63076461 66.23001649     6    557    0    0    0
C 1467.05364846 74.53167925 66.80667604     2    557   561   562   563
H 1465.89157977 76.18701001 66.34401619     6    560    0    0    0
H 1466.19908329 72.94303013 65.79603302     6    560    0    0    0
C 1467.05460447 74.11363685 69.68838760     2    560   564   565   566
H 1468.93430869 73.48285117 70.15557760     6    563    0    0    0
H 1467.10671768 76.01667210 70.58074883     6    563    0    0    0
C 1464.94639727 72.65442032 70.96601920     2    563   567   568   569
H 1463.23145063 73.67300432 70.72663247     6    566    0    0    0
H 1464.72264220 70.95540241 70.08109914     6    566    0    0    0
C 1465.07107772 72.38098869 73.74055938     2    566   570   571   572
H 1467.05391883 71.95971757 74.09133264     6    569    0    0    0
H 1464.75790174 74.10107953 74.73169626     6    569    0    0    0
C 1463.27427445 70.17831432 74.57424189     2    569   573   574   575
H 1461.35278950 71.01292583 74.52149541     6    572    0    0    0
H 1463.12775265 68.55889513 73.32203824     6    572    0    0    0
C 1463.57476899 69.32665114 77.40769069     2    572   576   577   578
H 1463.51112256 71.10283404 78.55874543     6    575    0    0    0
H 1462.03489562 67.99709409 77.88968301     6    575    0    0    0
C 1466.18583396 68.05339466 77.88288192     1    575   579   580   581
H 1466.83942501 66.88048536 76.17096136     6    578    0    0    0
H 1466.23089737 66.77417915 79.54855483     6    578    0    0    0
H 1467.81849737 69.32587104 78.02557253     6    578    0    0    0
H 1469.91577300 43.90961648 72.93046781     6     583    0    0    0 
C 1467.87073941 43.46191723 72.66232988     1     582    584    585    586
H 1467.76074519 42.86251479 70.74114859     6     583    0    0    0
H 1467.22078422 42.02052094 74.00235742     6     583    0    0    0
C 1466.15180375 45.72378745 72.97364477     2     583    587    588    589
H 1466.88043781 47.30535630 71.89951563     6     586    0    0    0
H 1464.32855744 45.06070508 72.30290173     6     586    0    0    0
C 1465.84402308 46.45958350 75.80169888     2     586    590   591   592
H 1464.90072308 45.01056019 76.70604452     6     589    0    0    0
H 1467.71198188 46.78111301 76.88449191     6     589    0    0    0
C 1463.95922404 48.46801452 76.16592844     2     589   593   594   595
H 1464.54316148 50.16420772 75.23893618     6    592    0    0    0
H 1462.16802624 47.98259069 75.24546312     6    592    0    0    0
C 1463.38552714 49.10734959 78.95247722     2    592   596   597   598
H 1462.91747216 47.40360192 79.90903814     6    595    0    0    0
H 1465.28739606 49.80519622 79.61321397     6    595    0    0    0
C 1461.30178625 51.12569335 79.19539858     2    595   599   600   601
H 1461.57438613 52.73272663 77.94298324     6    598    0    0    0
H 1459.59237825 50.05871118 78.61756600     6    598    0    0    0
C 1460.77289193 51.81602134 81.98238147     2    598   602   603   604
H 1461.08881539 50.23556519 83.19585443     6    601    0    0    0
H 1462.30079667 53.24987111 82.57507827     6    601    0    0    0
C 1457.96548469 52.77484317 82.32317669     2    601   605   606   607
H 1457.69944016 54.42659241 81.10699121     6    604    0    0    0
H 1456.56521717 51.42499193 81.78592979     6    604    0    0    0
C 1457.47899629 53.53122083 85.02121004     2    604   608   609   610
H 1457.64661163 52.02381980 86.41320175     6    607    0    0    0
H 1459.02027088 54.71988087 85.53169638     6    607    0    0    0
C 1454.99157058 54.77620035 85.51745479     2    607   611   612   613
H 1454.73987007 56.10346345 83.99337586     6    610    0    0    0
H 1453.49290134 53.42221544 85.43899480     6    610    0    0    0
C 1454.90842403 56.60808405 87.94939712     2    610   614   615   616
H 1456.72591218 57.63990659 88.24806696     6    613    0    0    0
H 1453.53388611 58.09720178 87.53272201     6    613    0    0    0
C 1454.38004144 55.31233445 90.57215549     1    613   617   618   619
H 1454.26325367 56.76998004 92.05252084     6    616    0    0    0
H 1456.08860247 54.29486091 90.90005076     6    616    0    0    0
H 1452.70348518 53.99551887 90.53349230     6    616    0    0    0
H 1494.45290143 73.43094216 61.15007883     6     621    0    0    0 
C 1492.56132825 73.04703696 61.74145625     1     620    622    623    624
H 1491.94625364 74.80595730 62.45567156     6     621    0    0    0
H 1491.50419812 72.54161305 60.07083458     6     621    0    0    0
C 1492.26223279 71.05542468 63.83754251     2     621    625    626    627
H 1490.30984637 70.81133842 64.58084530     6     624    0    0    0
H 1492.65056551 69.28014848 63.02732420     6     624    0    0    0
C 1494.15175981 71.42319237 66.03058627     2     624    628   629   630
H 1495.97592600 71.59620949 65.25863968     6     627    0    0    0
H 1493.64441503 73.27745680 66.76344816     6     627    0    0    0
C 1494.22893117 69.41083062 68.11932839     2     627   631   632   633
H 1492.40570898 69.55842401 69.05025710     6    630    0    0    0
H 1494.71735452 67.61125168 67.27961546     6    630    0    0    0
C 1496.44827494 69.77831973 70.10264240     2    630   634   635   636
H 1498.36186482 69.87310368 69.20295116     6    633    0    0    0
H 1496.13371960 71.54557020 71.03929340     6    633    0    0    0
C 1496.27631720 67.78918156 72.18572887     2    633   637   638   639
H 1494.35132246 67.60870730 72.95438793     6    636    0    0    0
H 1496.51117999 65.95377295 71.26648504     6    636    0    0    0
C 1498.48541349 68.08521698 74.08774394     2    636   640   641   642
H 1500.16677951 68.30427410 73.05857930     6    639    0    0    0
H 1498.56505960 69.83386909 75.03734010     6    639    0    0    0
C 1498.50169485 65.83598898 75.85300093     2    639   643   644   645
H 1496.57782110 65.66198790 76.62545304     6    642    0    0    0
H 1499.07047899 64.06570850 75.03717454     6    642    0    0    0
C 1500.10593608 66.32520231 78.36961949     2    642   646   647   648
H 1502.13016868 66.44109723 78.15092019     6    645    0    0    0
H 1499.73384212 68.07510945 79.27183037     6    645    0    0    0
C 1499.44875193 64.28551799 80.41163249     2    645   649   650   651
H 1497.37876893 63.91817807 80.68287523     6    648    0    0    0
H 1500.28914341 62.48468004 79.79368485     6    648    0    0    0
C 1500.84945473 64.66613567 82.74940548     2    648   652   653   654
H 1502.87256496 64.84151812 82.18369699     6    651    0    0    0
H 1500.09951204 66.35230799 83.85468574     6    651    0    0    0
C 1500.96708906 62.47136333 84.60861326     1    651   655   656   657
H 1499.07951016 61.61827095 84.95456472     6    654    0    0    0
H 1501.72904657 63.24096495 86.36180545     6    654    0    0    0
H 1502.11685985 60.99205387 83.81856164     6    654    0    0    0
H 1478.69343560 52.35631140 75.09884143     6     659    0    0    0 
C 1477.37646849 53.02927162 76.58622921     1     658    660    661    662
H 1478.26083922 53.06044684 78.41964043     6     659    0    0    0
H 1476.94767339 55.00050956 76.16942958     6     659    0    0    0
C 1475.13723546 51.24107989 76.57446715     2     659    663    664    665
H 1474.20647983 51.29867171 74.65636474     6     662    0    0    0
H 1475.82784432 49.29090502 76.89602451     6     662    0    0    0
C 1473.22852358 51.83014330 78.67439509     2     662    666   667   668
H 1472.36827396 50.10247349 79.44405952     6     665    0    0    0
H 1474.39875877 52.49916096 80.22360927     6     665    0    0    0
C 1471.16096718 53.82628853 78.17079292     2     665   669   670   671
H 1471.91510669 55.56933908 77.53016262     6    668    0    0    0
H 1470.20006742 53.20494553 76.49172949     6    668    0    0    0
C 1469.18879671 54.04200989 80.29238902     2    668   672   673   674
H 1468.67556742 52.04316738 80.82477186     6    671    0    0    0
H 1470.06258906 54.76024579 82.15909376     6    671    0    0    0
C 1466.80469937 55.49082518 79.63277865     2    671   675   676   677
H 1465.68097122 54.54063713 78.12515970     6    674    0    0    0
H 1465.60407397 55.06495970 81.26129986     6    674    0    0    0
C 1467.32761807 58.30774577 79.03358910     2    674   678   679   680
H 1468.69410272 58.98953773 80.29490688     6    677    0    0    0
H 1468.23484258 58.43305722 77.19525487     6    677    0    0    0
C 1464.90627894 59.97569098 78.93929735     2    677   681   682   683
H 1465.21283125 61.83749860 77.95718571     6    680    0    0    0
H 1463.45567917 59.35224354 77.71051295     6    680    0    0    0
C 1463.67908606 60.40015238 81.48787198     2    680   684   685   686
H 1463.17620557 58.63977405 82.18652992     6    683    0    0    0
H 1464.97013259 61.15386614 82.88937085     6    683    0    0    0
C 1461.07560867 61.70503477 81.68968595     2    683   687   688   689
H 1461.21131731 63.58910912 81.16922914     6    686    0    0    0
H 1459.74536075 61.15256553 80.21538501     6    686    0    0    0
C 1460.42010096 61.72049780 84.45574296     2    686   690   691   692
H 1460.30146104 59.78752534 84.83835791     6    689    0    0    0
H 1461.96160672 62.41163529 85.84618655     6    689    0    0    0
C 1457.80974826 62.93225639 85.16514232     1    689   693   694   695
H 1457.00381755 62.21946274 86.89252095     6    692    0    0    0
H 1456.34171416 62.49748329 83.81023147     6    692    0    0    0
H 1457.89555010 65.10962794 85.18387654     6    692    0    0    0
H 1470.35583131 84.35440902 73.31729019     6     697    0    0    0 
C 1469.04295166 85.02273767 71.77292322     1     696    698    699    700
H 1467.43030078 85.47555661 72.73024640     6     697    0    0    0
H 1469.78132352 86.86552464 71.07411317     6     697    0    0    0
C 1468.46167238 83.09497536 69.67244969     2     697    701    702    703
H 1469.55303677 81.31539748 69.98998209     6     700    0    0    0
H 1466.45656414 82.50550409 69.50250973     6     700    0    0    0
C 1469.43604940 83.96111424 67.01760172     2     700    704   705   706
H 1469.37738540 86.00705339 66.67645182     6     703    0    0    0
H 1471.43191869 83.32725465 66.83028166     6     703    0    0    0
C 1467.74310728 82.72126072 65.09437455     2     703   707   708   709
H 1467.64039184 80.69595783 65.32924506     6    706    0    0    0
H 1465.85963897 83.43856528 65.25448629     6    706    0    0    0
C 1468.48781341 83.43134919 62.35539293     2    706   710   711   712
H 1468.92302098 85.42977076 62.50339782     6    709    0    0    0
H 1470.19778578 82.45427703 61.90161245     6    709    0    0    0
C 1466.29623981 82.90514767 60.55327352     2    709   713   714   715
H 1465.86182306 80.84470161 60.75788609     6    712    0    0    0
H 1464.50347419 83.88632898 61.11956650     6    712    0    0    0
C 1466.82858022 83.26498526 57.74545578     2    712   716   717   718
H 1467.23366666 85.21185404 57.09792421     6    715    0    0    0
H 1468.50382743 82.13139209 57.26504617     6    715    0    0    0
C 1464.72706653 82.20859339 56.07419913     2    715   719   720   721
H 1464.97646081 80.20661233 55.76533007     6    718    0    0    0
H 1462.95518684 82.40887622 56.98288670     6    718    0    0    0
C 1464.52183824 83.35474210 53.54298327     2    718   722   723   724
H 1464.56099752 85.48425871 53.65687201     6    721    0    0    0
H 1466.25983454 83.04606179 52.64360117     6    721    0    0    0
C 1462.09104935 82.66978671 51.81496208     2    721   725   726   727
H 1462.40754113 80.72753377 51.24268267     6    724    0    0    0
H 1460.34929046 83.01304008 52.90448861     6    724    0    0    0
C 1461.92892859 84.21072760 49.32235637     2    724   728   729   730
H 1463.72797175 84.09994813 48.39056003     6    727    0    0    0
H 1460.54694095 83.15631717 48.17982874     6    727    0    0    0
C 1460.76728378 86.92453510 49.54616275     1    727   731   732   733
H 1459.67674691 87.26982181 47.85358590     6    730    0    0    0
H 1462.07031299 88.47635460 49.66581735     6    730    0    0    0
H 1459.36317487 87.07109263 50.95581127     6    730    0    0    0
H 1464.43316951 48.86402122 55.44057633     6     735    0    0    0 
C 1463.41950751 47.24067874 54.77024891     1     734    736    737    738
H 1461.42980613 47.48304035 55.01768645     6     735    0    0    0
H 1463.70438800 47.24794535 52.74613628     6     735    0    0    0
C 1464.55641218 44.70493364 55.68551528     2     735    739    740    741
H 1464.31235461 44.44172136 57.77872141     6     738    0    0    0
H 1463.65798811 43.06876090 54.73843167     6     738    0    0    0
C 1467.29793175 44.56040686 54.88665114     2     738    742   743   744
H 1467.38360875 44.99896296 52.76389139     6     741    0    0    0
H 1468.67062681 45.85290636 55.73564280     6     741    0    0    0
C 1468.33925598 41.95519668 55.31201462     2     741   745   746   747
H 1468.23446711 41.72252006 57.32659827     6    744    0    0    0
H 1467.16636002 40.43435586 54.51466322     6    744    0    0    0
C 1471.02833667 41.39269667 54.27395507     2    744   748   749   750
H 1470.94225400 41.80885562 52.32409462     6    747    0    0    0
H 1472.50559788 42.61277158 54.91907338     6    747    0    0    0
C 1472.24422667 38.79494978 54.78399015     2    747   751   752   753
H 1472.71180980 38.97174597 56.77156199     6    750    0    0    0
H 1470.91025675 37.25286748 54.69026911     6    750    0    0    0
C 1474.56679491 37.99944740 53.40431016     2    750   754   755   756
H 1476.21145811 39.18312152 53.76191091     6    753    0    0    0
H 1475.22986749 36.24418562 54.19813768     6    753    0    0    0
C 1474.36279673 37.32288358 50.76705263     2    753   757   758   759
H 1472.87468790 35.98268391 50.47295493     6    756    0    0    0
H 1473.72293817 39.03081128 49.92312170     6    756    0    0    0
C 1476.63699255 36.37817618 49.29342793     2    756   760   761   762
H 1478.17385610 37.68248636 49.54649576     6    759    0    0    0
H 1477.18528150 34.55883848 50.09954706     6    759    0    0    0
C 1476.25014271 35.89734117 46.46990610     2    759   763   764   765
H 1474.70280570 34.42736380 46.44277674     6    762    0    0    0
H 1475.28738561 37.55446234 45.52769187     6    762    0    0    0
C 1478.39811359 34.93817517 44.87700373     2    762   766   767   768
H 1479.92957753 36.27554246 44.48638661     6    765    0    0    0
H 1479.63797341 33.60776023 45.88963137     6    765    0    0    0
C 1477.47754677 33.61955745 42.44363747     1    765   769   770   771
H 1477.09477492 31.62602856 42.88614680     6    768    0    0    0
H 1478.86024965 33.54335613 41.08358193     6    768    0    0    0
H 1475.68788309 34.38376013 41.66554927     6    768    0    0    0
H 1506.24647820 69.54853415 76.32018464     6     773    0    0    0 
C 1507.47636714 68.69234886 74.93305426     1     772    774    775    776
H 1509.18034779 69.76534878 74.34306224     6     773    0    0    0
H 1508.40069901 67.29454988 76.11923532     6     773    0    0    0
C 1505.99238397 67.27053291 72.93380686     2     773    777    778    779
H 1507.21178281 65.69510826 72.44457004     6     776    0    0    0
H 1504.28660210 66.58524867 73.85753577     6     776    0    0    0
C 1505.52670436 68.97827729 70.61410653     2     776    780   781   782
H 1504.60255833 70.89241900 71.00739110     6     779    0    0    0
H 1507.20086541 69.67088926 69.72096521     6     779    0    0    0
C 1504.03239490 67.49123055 68.58238195     2     779   783   784   785
H 1504.79721498 65.52649706 68.38057643     6    782    0    0    0
H 1502.19438941 67.22502089 69.33086340     6    782    0    0    0
C 1503.98180881 69.01871967 66.03368330     2    782   786   787   788
H 1503.10018083 70.87792709 66.27152579     6    785    0    0    0
H 1505.99491048 69.27217450 65.47847917     6    785    0    0    0
C 1502.78694573 67.60405313 63.72389268     2    785   789   790   791
H 1504.00007191 66.07723329 63.14897973     6    788    0    0    0
H 1500.84624244 66.93694036 64.27290129     6    788    0    0    0
C 1502.37085506 69.39429571 61.51624458     2    788   792   793   794
H 1501.46166197 71.02142042 62.37174455     6    791    0    0    0
H 1504.28846976 69.83905266 60.64004489     6    791    0    0    0
C 1501.06966121 68.20923822 59.22483099     2    791   795   796   797
H 1502.16119509 66.56787697 58.67601238     6    794    0    0    0
H 1499.28191827 67.27504524 59.83642975     6    794    0    0    0
C 1500.69273383 69.99869724 57.00385196     2    794   798   799   800
H 1499.38789835 71.61090248 57.41815625     6    797    0    0    0
H 1502.58045730 70.97935008 56.71270343     6    797    0    0    0
C 1500.04427071 68.65878950 54.47357629     2    797   801   802   803
H 1501.41072911 67.46703867 53.49274375     6    800    0    0    0
H 1498.69922076 67.09671364 54.73073648     6    800    0    0    0
C 1499.17634259 70.33578436 52.21672071     2    800   804   805   806
H 1497.23740653 71.16140290 52.69262760     6    803    0    0    0
H 1500.58073298 71.97213063 51.96791059     6    803    0    0    0
C 1498.98417745 68.71010785 49.73451818     1    803   807   808   809
H 1498.35203138 69.83550770 48.14984447     6    806    0    0    0
H 1497.83976832 66.96622350 50.04291707     6    806    0    0    0
H 1500.89208909 67.88491973 49.50394804     6    806    0    0    0
H 1474.53421292 46.54545174 70.38799983     6     811    0    0    0 
C 1476.15511505 45.75961481 71.38677679     1     810    812    813    814
H 1476.24922761 46.12872351 73.45564440     6     811    0    0    0
H 1476.35232282 43.71030042 70.98762243     6     811    0    0    0
C 1478.53715037 47.13233206 70.65861702     2     811    815    816    817
H 1478.39703959 49.04190806 71.20672261     6     814    0    0    0
H 1480.10168745 46.18620007 71.61566120     6     814    0    0    0
C 1479.30335866 46.84870591 67.83719338     2     814    818   819   820
H 1478.80909319 44.93736242 67.28006764     6     817    0    0    0
H 1477.91897650 47.98186416 66.60988337     6     817    0    0    0
C 1482.12565180 47.64232751 67.27044308     2     817   821   822   823
H 1482.42247888 49.75883927 67.44582140     6    820    0    0    0
H 1483.53070246 46.75257553 68.62293116     6    820    0    0    0
C 1482.93701939 46.86394113 64.58326537     2    820   824   825   826
H 1482.98096209 44.78264289 64.56731116     6    823    0    0    0
H 1481.57364515 47.63925578 63.24457031     6    823    0    0    0
C 1485.57100167 47.78970618 63.78512563     2    823   827   828   829
H 1485.64852446 49.87108411 63.48292416     6    826    0    0    0
H 1486.77041683 47.33856561 65.37582884     6    826    0    0    0
C 1486.74519016 46.27894432 61.66548036     2    826   830   831   832
H 1486.68598375 44.18629376 62.19027843     6    829    0    0    0
H 1485.47841563 46.31725464 60.07976517     6    829    0    0    0
C 1489.25567309 47.30246779 60.63613889     2    829   833   834   835
H 1488.98193332 49.33269823 60.14390033     6    832    0    0    0
H 1490.59375252 47.04204432 62.28220117     6    832    0    0    0
C 1490.24042235 45.92517684 58.25185682     2    832   836   837   838
H 1490.48176791 43.83275309 58.47617262     6    835    0    0    0
H 1488.97447337 45.97142882 56.77017505     6    835    0    0    0
C 1492.86046003 46.84399082 57.50108881     2    835   839   840   841
H 1492.40781752 48.67562106 56.57645375     6    838    0    0    0
H 1494.19814522 47.12112743 59.26786004     6    838    0    0    0
C 1493.96505039 45.63633920 55.05809513     2    838   842   843   844
H 1493.56858062 43.74386947 54.80326240     6    841    0    0    0
H 1492.80111127 46.56801462 53.74246119     6    841    0    0    0
C 1496.64528966 46.20985677 54.42782705     1    841   845   846   847
H 1497.16254398 48.34783660 54.70190582     6    844    0    0    0
H 1497.20496725 45.83379436 52.45161619     6    844    0    0    0
H 1497.79750143 45.23477806 55.80632237     6    844    0    0    0
H 1469.05307653 60.11860831 94.01399462     6     849    0    0    0 
C 1468.30444594 59.01338627 92.31853307     1     848    850    851    852
H 1466.70610382 57.92350726 92.76017611     6     849    0    0    0
H 1467.38365059 60.21439082 91.04646963     6     849    0    0    0
C 1470.29875825 57.28506499 91.24722089     2     849    853    854    855
H 1471.74679137 58.38630852 90.19761588     6     852    0    0    0
H 1471.39661270 56.64408740 92.74469295     6     852    0    0    0
C 1469.29002071 55.07191618 89.67335742     2     852    856   857   858
H 1468.38816991 53.75736405 90.78785853     6     855    0    0    0
H 1467.80878373 55.79002993 88.53456209     6     855    0    0    0
C 1471.25315829 53.46136632 88.21325185     2     855   859   860   861
H 1472.11873141 54.65101772 86.88652337     6    858    0    0    0
H 1472.70499302 52.79002421 89.60867746     6    858    0    0    0
C 1470.15404438 51.13343463 86.70923509     2    858   862   863   864
H 1469.15745621 49.94233210 87.84397356     6    861    0    0    0
H 1468.53302738 51.64531754 85.51635766     6    861    0    0    0
C 1472.13516150 49.73454289 85.18283316     2    861   865   866   867
H 1473.33990368 50.90275958 83.87913633     6    864    0    0    0
H 1473.64540670 49.28328844 86.53900075     6    864    0    0    0
C 1471.15081570 47.23205513 84.02758707     2    864   868   869   870
H 1470.66370804 45.71321354 85.44406062     6    867    0    0    0
H 1469.36325011 47.74466896 83.14261415     6    867    0    0    0
C 1473.02775847 45.93244551 82.21182604     2    867   871   872   873
H 1474.20536936 47.09877995 81.00893146     6    870    0    0    0
H 1474.57577983 45.17110731 83.37668595     6    870    0    0    0
C 1471.93006507 43.94083355 80.59788285     2    870   874   875   876
H 1470.96797785 42.46991293 81.62151933     6    873    0    0    0
H 1470.39854480 44.83890845 79.69563010     6    873    0    0    0
C 1473.82920341 42.93416548 78.74893012     2    873   877   878   879
H 1473.86735667 44.36898352 77.23636540     6    876    0    0    0
H 1475.75758364 42.93152538 79.55312203     6    876    0    0    0
C 1473.05213831 40.54676269 77.55914507     2    876   880   881   882
H 1472.44135401 39.36639804 79.25064962     6    879    0    0    0
H 1471.42329310 40.90352849 76.23228146     6    879    0    0    0
C 1475.31694119 39.22078788 76.25410411     1    879   883   884   885
H 1476.99327999 39.14890668 77.45462530     6    882    0    0    0
H 1476.04901762 40.00618581 74.40422794     6    882    0    0    0
H 1474.78929139 37.19933083 75.91593560     6    882    0    0    0
H 1486.07245246 54.78813623 62.77919846     6     887    0    0    0 
C 1486.32630941 56.44545429 63.88555805     1     886    888    889    890
H 1487.33865735 55.81872858 65.60575890     6     887    0    0    0
H 1487.55353049 57.86853264 62.99202986     6     887    0    0    0
C 1483.64095584 57.47865676 64.69215979     2     887    891    892    893
H 1483.72956496 58.68406224 66.46958799     6     890    0    0    0
H 1482.96779719 58.69706125 63.23012861     6     890    0    0    0
C 1481.92735364 55.23535700 65.20565317     2     890    894   895   896
H 1482.06533605 53.91980767 63.59760100     6     893    0    0    0
H 1482.64987648 54.26458647 66.90319866     6     893    0    0    0
C 1479.03236818 56.04001390 65.46088569     2     893   897   898   899
H 1478.99521270 57.09274134 67.25614662     6    896    0    0    0
H 1478.31767030 57.23181489 63.85948590     6    896    0    0    0
C 1477.18498969 53.74798044 65.80053697     2    896   900   901   902
H 1477.16780499 52.52202201 64.05695796     6    899    0    0    0
H 1477.76842714 52.61033495 67.49391899     6    899    0    0    0
C 1474.37880581 54.89242795 66.46632320     2    899   903   904   905
H 1474.51706431 55.72696890 68.38298203     6    902    0    0    0
H 1473.99067663 56.60768967 65.45881490     6    902    0    0    0
C 1472.25733543 53.04138726 66.36816992     2    902   906   907   908
H 1472.03055122 52.43371427 64.32770218     6    905    0    0    0
H 1472.96957162 51.40664828 67.21912245     6    905    0    0    0
C 1469.80413124 54.16726764 67.47766865     2    905   909   910   911
H 1470.03744958 54.93919400 69.44986390     6    908    0    0    0
H 1469.23897504 55.72951035 66.31815539     6    908    0    0    0
C 1467.80915007 52.13445517 67.75491642     2    908   912   913   914
H 1467.20569151 51.21870405 66.10791723     6    911    0    0    0
H 1468.54688571 50.71076304 69.04043434     6    911    0    0    0
C 1465.35588265 52.89628676 69.03005814     2    911   915   916   917
H 1465.76919385 53.62982727 70.92834702     6    914    0    0    0
H 1464.42065177 54.22787596 67.99743108     6    914    0    0    0
C 1463.32796028 50.78188320 69.14687033     2    914   918   919   920
H 1462.98840122 49.87780676 67.25026181     6    917    0    0    0
H 1463.95746373 49.31329237 70.39155117     6    917    0    0    0
C 1461.01768336 51.71589975 70.48803978     1    917   921   922   923
H 1460.40982558 53.22638542 69.45618513     6    920    0    0    0
H 1461.46259768 52.42707581 72.31284951     6    920    0    0    0
H 1459.56961206 50.19594395 70.67763276     6    920    0    0    0
H 1487.53352130 67.03700015 88.10419553     6     925    0    0    0 
C 1486.95172923 65.13863009 88.21435360     1     924    926    927    928
H 1486.49883816 64.43676397 86.31196516     6     925    0    0    0
H 1488.30552800 63.89745520 88.95920079     6     925    0    0    0
C 1484.55848580 64.94573479 89.86807136     2     925    929    930    931
H 1485.16404659 65.84240077 91.64185706     6     928    0    0    0
H 1483.04602399 65.89578112 88.87657076     6     928    0    0    0
C 1483.47872565 62.40863636 90.19703313     2     928    932   933   934
H 1484.81515993 61.22074514 91.24592635     6     931    0    0    0
H 1481.65409907 62.54471198 91.40230244     6     931    0    0    0
C 1482.96769609 60.95084727 87.66109623     2     931   935   936   937
H 1481.72390880 62.12912847 86.51061793     6    934    0    0    0
H 1484.70323431 60.66453759 86.52436682     6    934    0    0    0
C 1481.97673161 58.24212860 88.16168598     2    934   938   939   940
H 1483.46577974 57.17134811 89.24571670     6    937    0    0    0
H 1480.45809842 58.12063023 89.40107832     6    937    0    0    0
C 1481.30764833 56.86792952 85.65270248     2    937   941   942   943
H 1480.17641942 58.35627978 84.74263046     6    940    0    0    0
H 1482.90151236 56.51173536 84.32726620     6    940    0    0    0
C 1479.47271452 54.53558214 85.66976386     2    940   944   945   946
H 1477.89532392 55.08225788 86.82294751     6    943    0    0    0
H 1478.71169992 54.18988927 83.97514254     6    943    0    0    0
C 1480.96929938 52.14805584 86.52404847     2    943   947   948   949
H 1482.90010790 52.50387485 86.10565020     6    946    0    0    0
H 1480.54611818 51.97171348 88.50596368     6    946    0    0    0
C 1480.19805836 49.65044221 85.15278912     2    946   950   951   952
H 1478.19539211 49.68807876 85.17531181     6    949    0    0    0
H 1480.92260518 49.67415227 83.10831221     6    949    0    0    0
C 1481.04722247 47.27638420 86.43591732     2    949   953   954   955
H 1483.00193143 47.80967589 86.95982746     6    952    0    0    0
H 1480.06659322 46.87685162 88.20792623     6    952    0    0    0
C 1481.13727975 44.94391274 84.82778221     2    952   956   957   958
H 1481.86203956 43.68048898 86.29110484     6    955    0    0    0
H 1479.25445804 44.19291341 84.35867867     6    955    0    0    0
C 1483.03638461 44.97795469 82.51058441     1    955   959   960   961
H 1483.21795326 43.06563225 81.76859379     6    958    0    0    0
H 1484.88180884 45.57518692 83.29713512     6    958    0    0    0
H 1482.28977077 46.42220760 81.21624102     6    958    0    0    0
H 1474.40567556 53.33042250 49.72679906     6     963    0    0    0 
C 1475.61308579 54.53356030 51.09905544     1     962    964    965    966
H 1474.62686033 54.85241655 52.81421968     6     963    0    0    0
H 1477.14968080 53.42502167 51.80752870     6     963    0    0    0
C 1476.51978586 56.65168159 49.44038784     2     963    967    968    969
H 1478.28186972 57.37590676 50.08578473     6     966    0    0    0
H 1477.08189571 56.08714864 47.60891943     6     966    0    0    0
C 1474.58929821 58.88411612 49.51944403     2     966    970   971   972
H 1472.89810241 58.49139983 48.50324659     6     969    0    0    0
H 1474.05466802 59.16310698 51.37108128     6     969    0    0    0
C 1475.78965619 61.26077693 48.60646334     2     969   973   974   975
H 1477.72751754 61.55335513 49.63664256     6    972    0    0    0
H 1476.30450355 61.08642264 46.64499172     6    972    0    0    0
C 1474.00052347 63.57035327 48.89415029     2    972   976   977   978
H 1472.41523108 63.26253828 47.55287598     6    975    0    0    0
H 1473.27562110 63.61510579 50.75257722     6    975    0    0    0
C 1475.40532031 66.11893911 48.29630968     2    975   979   980   981
H 1477.12258828 66.57129478 49.28872867     6    978    0    0    0
H 1475.81737702 66.09551196 46.23495194     6    978    0    0    0
C 1473.52730197 68.32978748 48.76516052     2    978   982   983   984
H 1471.68241912 68.16115672 47.78077373     6    981    0    0    0
H 1473.05910727 68.75030083 50.79688675     6    981    0    0    0
C 1474.57779023 70.61784608 47.45536409     2    981   985   986   987
H 1476.31597087 71.18169735 48.41124981     6    984    0    0    0
H 1475.40462330 70.06597997 45.67966667     6    984    0    0    0
C 1472.82674681 72.84269302 47.31215287     2    984   988   989   990
H 1473.81071834 74.53587556 46.51925172     6    987    0    0    0
H 1471.24628281 72.52742611 45.98291804     6    987    0    0    0
C 1471.65288960 73.95834173 49.80208927     2    987   991   992   993
H 1470.62504529 72.35796308 50.69505475     6    990    0    0    0
H 1472.95071890 74.57258574 51.17925913     6    990    0    0    0
C 1469.52966546 75.99658748 49.33458140     2    990   994   995   996
H 1470.60489294 77.64420992 48.61825670     6    993    0    0    0
H 1468.44763202 75.29739826 47.82356811     6    993    0    0    0
C 1468.16469975 76.61941838 51.87742840     1    993   997   998   999
H 1467.18977933 75.02043084 52.79824052     6    996    0    0    0
H 1466.56893469 77.66305209 51.45309128     6    996    0    0    0
H 1469.26978104 77.86630845 53.15572191     6    996    0    0    0
H 1478.14129521 41.84786006 38.46985473     6     1001    0    0    0 
C 1477.41833321 40.57893006 40.00469744     1     1000    1002    1003    1004
H 1476.37716873 38.95963450 39.14622362     6     1001    0    0    0
H 1478.85384526 39.70986008 41.10983419     6     1001    0    0    0
C 1475.57599195 42.23121646 41.58945360     2     1001    1005    1006    1007
H 1474.43387853 40.99250771 42.82485229     6     1004    0    0    0
H 1476.76556175 43.31397189 42.90678502     6     1004    0    0    0
C 1474.13327563 43.91187334 39.83210134     2     1004    1008   1009   1010
H 1475.33897898 44.78273408 38.42968307     6     1007    0    0    0
H 1472.86286492 42.80397761 38.72251830     6     1007    0    0    0
C 1472.68373002 46.09728628 41.19770641     2     1007   1011   1012   1013
H 1471.23340691 45.27131840 42.38781896     6    1010    0    0    0
H 1474.08176053 47.15681941 42.50922502     6    1010    0    0    0
C 1471.74533818 48.20846485 39.34259745     2    1010   1014   1015   1016
H 1473.46488774 48.94434875 38.37310144     6    1013    0    0    0
H 1470.93341237 47.35992959 37.82703685     6    1013    0    0    0
C 1470.12478316 50.21132719 40.69878582     2    1013   1017   1018   1019
H 1468.70565636 49.31779119 42.04490873     6    1016    0    0    0
H 1471.27627899 51.25894932 41.91865079     6    1016    0    0    0
C 1468.79101892 51.97634466 38.78934275     2    1016   1020   1021   1022
H 1470.11008015 52.82572982 37.55487823     6    1019    0    0    0
H 1467.43656909 50.91332614 37.70094160     6    1019    0    0    0
C 1467.25496814 54.15701706 40.02905184     2    1019   1023   1024   1025
H 1468.04148935 54.90124309 41.75345227     6    1022    0    0    0
H 1467.00253796 55.63485456 38.70585100     6    1022    0    0    0
C 1464.53717022 53.55403340 40.68701371     2    1022   1026   1027   1028
H 1463.39930759 52.97538224 38.85996826     6    1025    0    0    0
H 1464.48169774 52.02328132 41.89684442     6    1025    0    0    0
C 1463.25098780 55.95351267 41.83575634     2    1025   1029   1030   1031
H 1463.86413593 55.81799889 43.82054155     6    1028    0    0    0
H 1463.93972097 57.79307292 41.07171727     6    1028    0    0    0
C 1460.38655483 55.68162364 41.68996758     2    1028   1032   1033   1034
H 1459.84199375 56.19815552 39.82901192     6    1031    0    0    0
H 1459.88196551 53.86093940 42.13328682     6    1031    0    0    0
C 1458.79001328 57.50131912 43.17954115     1    1031   1035   1036   1037
H 1456.84128597 57.58693344 42.42856451     6    1034    0    0    0
H 1459.60208684 59.34102960 42.95104230     6    1034    0    0    0
H 1458.68759766 57.14386646 45.24731243     6    1034    0    0    0
H 1492.60844043 63.77468530 57.46006466     6     1039    0    0    0 
C 1494.16838301 64.31175201 58.64239809     1     1038    1040    1041    1042
H 1495.77863575 64.76475660 57.53265136     6     1039    0    0    0
H 1493.53376804 66.10377680 59.58720630     6     1039    0    0    0
C 1494.74623780 62.13222885 60.54153681     2     1039    1043    1044    1045
H 1493.00397167 61.87425674 61.42888863     6     1042    0    0    0
H 1495.11838068 60.23734484 59.57562524     6     1042    0    0    0
C 1496.73625121 62.63446131 62.56331029     2     1042    1046   1047   1048
H 1498.43602523 63.06661669 61.55648990     6     1045    0    0    0
H 1496.20757755 64.41054031 63.60867330     6     1045    0    0    0
C 1497.10101848 60.56035640 64.53692449     2     1045   1049   1050   1051
H 1495.33180299 60.16206444 65.53489044     6    1048    0    0    0
H 1497.69867743 58.84985831 63.51262878     6    1048    0    0    0
C 1499.04836756 61.46210221 66.53748684     2    1048   1052   1053   1054
H 1500.71863285 61.92059268 65.61868777     6    1051    0    0    0
H 1498.28798902 63.13648736 67.36745829     6    1051    0    0    0
C 1499.54061184 59.50888499 68.70674689     2    1051   1055   1056   1057
H 1497.69520202 59.03465696 69.61622192     6    1054    0    0    0
H 1500.25028954 57.67287140 67.85295832     6    1054    0    0    0
C 1501.20783020 60.37375226 70.76843588     2    1054   1058   1059   1060
H 1503.00092279 60.97077089 69.81847348     6    1057    0    0    0
H 1500.61886277 62.07687657 71.73269771     6    1057    0    0    0
C 1501.46786885 58.44259418 72.99223821     2    1057   1061   1062   1063
H 1499.63797888 57.98070847 73.71418040     6    1060    0    0    0
H 1502.37852814 56.71653749 72.33170043     6    1060    0    0    0
C 1503.13622994 59.62048376 75.04506798     2    1060   1064   1065   1066
H 1504.77794428 60.36048663 73.98224960     6    1063    0    0    0
H 1502.17335068 61.27512433 75.59873455     6    1063    0    0    0
C 1503.89284579 57.90070801 77.37405901     2    1063   1067   1068   1069
H 1502.12522743 57.55895922 78.29145224     6    1066    0    0    0
H 1504.65148986 56.14979916 76.73752204     6    1066    0    0    0
C 1505.65695182 59.29266231 79.17994497     2    1066   1070   1071   1072
H 1507.53438601 59.68487177 78.16364442     6    1069    0    0    0
[...]
 1803      H    1495.1893715800    74.6505543800    82.2211448300
 1804      H    1492.3219894300    76.1338969700    82.3974848200
 1805      C    1493.0294968900    74.9994381400    78.6599718600
 1806      H    1491.6656781500    76.4205979800    77.8902007200
 1807      H    1494.5238604900    74.6987111800    77.1685483700
 1808      C    1491.7359833600    72.3823249800    79.0771262700
 1809      H    1493.2832282600    71.3102903400    79.8170934100
 1810      H    1490.2375942300    72.7622147700    80.5412918900
 1811      C    1490.6322448900    71.2165103500    76.7267498600
 1812      H    1488.8909064600    72.4354241300    76.4783282900
 1813      H    1491.9211786300    71.3083237900    75.1599696900
 1814      C    1489.9360129400    68.4329487100    77.3134419700
 1815      H    1491.6433132800    67.2242839900    77.6670242900
 1816      H    1488.8087232800    68.5894649200    79.1240530400
 1817      C    1488.3271847700    67.2323879700    75.2692801100
 1818      H    1486.7990656300    68.4686578600    74.8102426200
 1819      H    1489.3540086100    67.0009855800    73.5013874700
 1820      C    1487.2477416000    64.6570944400    75.7999000400
 1821      H    1488.6403476100    63.5827191200    76.8976350500
 1822      H    1485.6335573200    64.9030126000    77.0495581500
 1823      C    1486.2658522700    63.2128536000    73.3426557800
 1824      H    1485.0861107500    64.7412735400    72.4535151800
 1825      H    1487.8989457600    62.6266638200    72.2727745000
 1826      C    1484.7165091500    60.7988375500    74.0141447100
 1827      H    1485.5642170800    59.3806548200    75.1849878000
 1828      H    1483.1072307300    61.3997186900    74.9766626700
 1829      C    1483.6860074100    59.4021603600    71.7219197900
 1830      H    1482.3590918500    60.5408869200    70.6784783500
 1831      H    1485.2058888000    59.2047795600    70.3061680800
 1832      C    1482.6028587400    56.8956591200    72.3946425300
 1833      H    1480.8864133500    56.9260756900    73.5199801300
 1834      H    1483.8407072700    55.9974527200    73.6394554100
 1835      H    1482.3665346100    55.7447562200    70.7750203100
 1836      H    1473.6625907800    60.8001782100    68.1284746600
 1837      C    1475.3321829600    61.2956512500    69.4385891300
 1838      H    1477.1810996300    60.5876227600    68.8440781900
 1839      H    1475.4725353100    63.3089869900    69.4286651200
 1840      C    1474.7448177600    60.3085212200    72.0945888400
 1841      H    1472.8456254500    60.8325319100    72.7924963400
 1842      H    1474.8121069500    58.3038093300    71.9247235000
 1843      C    1476.6344429600    61.1172606000    74.0227017800
 1844      H    1478.3012947600    59.8762745600    73.8471230400
 1845      H    1477.2408781900    63.0582397800    73.7584502600
 1846      C    1475.9126943200    61.0304871800    76.8043739500
 1847      H    1474.2806200400    62.1799031400    76.9975224400
 1848      H    1475.0233974200    59.2202416100    77.2961521800
 1849      C    1478.0758387500    61.9258748900    78.6042363400
 1850      H    1479.7588518400    60.9495292800    78.2723876800
 1851      H    1478.7004120500    63.7761176800    78.3049338900
 1852      C    1477.3998881700    61.7659890600    81.5326290900
 1853      H    1476.8552952800    59.8471316800    82.1197714200
 1854      H    1479.2513625200    62.0792910200    82.4114499800
 1855      C    1475.3936415000    63.5778370400    82.2622528900
 1856      H    1475.7552870700    65.4393448600    81.4090940900
 1857      H    1473.5483982100    62.9311309700    81.4178321400
 1858      C    1475.2163923800    64.0198461400    85.1647494900
 1859      H    1473.1353776800    64.1066574000    85.6578689900
 1860      H    1475.7909455300    62.3480185000    86.1822963900
 1861      C    1476.7531803000    66.2936838800    85.9744415400
 1862      H    1478.6254020800    65.6090091100    85.7708441200
 1863      H    1476.5643949700    67.9996657100    84.7178636600
 1864      C    1476.0426171900    66.8109263200    88.6978857000
 1865      H    1474.1420717400    67.5456327700    88.8273887300
 1866      H    1476.1393705600    65.0747788900    89.7356950500
 1867      C    1477.8476058700    68.7204156300    89.9649930400
 1868      H    1479.8331843100    68.1186066600    89.4116667700
 1869      H    1477.5293517100    70.6515192100    89.0849875200
 1870      C    1477.5652149300    68.5316535600    92.8687434100
 1871      H    1478.9657673500    69.6780832100    93.8032159200
 1872      H    1477.9529140800    66.5801151200    93.7037803300
 1873      H    1475.7123009300    68.9898556900    93.6839636000
 1874      H    1478.2677513300    89.3569414400    62.8285065000
 1875      C    1479.3489156400    88.4046318200    61.2531420800
 1876      H    1479.4636493000    89.7954809400    59.7326199900
 1877      H    1481.1725351000    87.9081907900    61.8734742000
 1878      C    1478.1426877300    85.9085110900    60.3094320500
 1879      H    1478.3020064600    84.7132574900    61.9265025200
 1880      H    1476.1286240400    86.1225593100    59.7333627300
 1881      C    1479.5852547000    84.7997597200    57.9670564000
 1882      H    1479.6293779400    86.1274056100    56.2612528700
 1883      H    1481.4462153900    84.5657802600    58.5304961300
 1884      C    1478.6834517800    82.3014669500    56.9763494700
 1885      H    1478.3324528300    81.2711428200    58.7754456700
 1886      H    1476.9369697600    82.7263698100    55.7676854800
 1887      C    1480.7919467300    80.7412439800    55.5995913700
 1888      H    1481.6256174700    81.9190294600    54.0870174100
 1889      H    1482.2732085600    80.3293077700    56.8144011800
 1890      C    1479.6983149200    78.1185063400    54.6935570100
 1891      H    1479.1055998500    77.2521947500    56.3683250500
 1892      H    1478.0283344900    78.3056533600    53.5817586800
 1893      C    1481.6023694400    76.3450519500    53.4329908600
 1894      H    1481.9695257500    77.0729560200    51.6129853600
 1895      H    1483.4051832200    76.4732792800    54.5366584200
 1896      C    1480.8380135200    73.5370803200    53.2754852400
 1897      H    1481.3548602300    72.4767821100    54.8754528500
 1898      H    1478.8604424900    73.1896769200    52.6709079400
 1899      C    1482.4100601600    72.3499931700    51.1317039100
 1900      H    1481.6313400700    72.8226079100    49.2959451300
 1901      H    1484.4070046600    72.7616260600    51.2501711600
 1902      C    1481.8079629200    69.5450649700    51.0200529900
 1903      H    1482.3344221300    68.5049086900    52.7186207600
 1904      H    1479.7937062600    69.2761880900    50.7097177400
 1905      C    1483.1145361300    68.0813560200    48.8427226800
 1906      H    1483.0409461800    68.9427405500    46.9769189300
 1907      H    1485.0695022000    67.7763858000    49.3293714700
 1908      C    1482.0306740100    65.4683455200    48.6025925400
 1909      H    1480.4443978300    65.5691821200    47.3865765700
 1910      H    1481.4797106400    64.8310641100    50.4500086400
 1911      H    1483.3819991000    64.0693443600    47.8813435000
 ----------------------------------------------------------------
 Nuclear Repulsion Energy =           0.00000000 hartrees
 There are     2498 alpha and     2498 beta electrons

 Total QAlloc Memory Limit   2000 MB
 Mega-Array Size       204 MB
 MEM_STATIC part       192 MB
   **** Step 1: MM calculation on the entire system **** 
 OPLSAA force field loaded.
Reading user-defined FF parameters...
 Reading user defined atom types.
 Found 3 user defined AtomTypes
finished.
Determining angles, torsions, etc. from user defined input
Determining VDW/Coulomb pairs... (useList = 0)

 Time req'd to get MM system information: 0.2 s (CPU) 0.3 s (wall)

 ------ MM Energies ------
   Ebond:           555.188197782560
   Eangle:          872.441780090177
   EUreyBrad:         0.000000000000
   Eimptors:          0.000000000000
   Etorsion:        233.707701879806
   Evdw:        1055647.919080320047
   Ecoulomb:        183.756444296983
   Etot:        1057493.013204369694 Kcal/mol (   1685.222394363463 hartree)
 -------------------------
 Time req'd to calc MM energy: 0.1 s (CPU) 0.1 s (wall)
 OPLSAA force field loaded.
Reading user-defined FF parameters...
 Reading user defined atom types.
 Found 3 user defined AtomTypes
finished.
 Time req'd to get MM system information: 0.0 s (CPU) 0.0 s (wall)
 Time req'd to calc MM gradient: 0.2 s (CPU) 0.2 s (wall)
   **** Step 2: MM calculation on the model system **** 
 Reading user defined atom types.
 Found 3 user defined AtomTypes
 ----------------------------------------------------------------
             Standard Nuclear Orientation (Bohr)
    I     Atom           X                Y                Z
 ----------------------------------------------------------------
    1      Fe   1475.8844095200    68.8272834900    59.7898058900
    2      C    1475.9264722600    67.6721271400    56.6110283700
    3      C    1475.3689671000    70.1247332700    62.9089002100
    4      C    1472.6113125300    69.2113770500    59.3186443500
    5      C    1477.3577524300    65.9386692100    60.9116646300
    6      C    1478.0267182400    71.5116573700    59.3375627200
    7      O    1475.9122816700    67.0066007200    54.5729654800
    8      O    1474.9843966600    71.3294861300    64.7486884400
    9      O    1470.4672337700    69.5542119000    58.6631309000
   10      O    1478.3289748400    64.0224136000    61.3639233700
   11      O    1479.5306269600    73.1779711000    59.3720651300
 ----------------------------------------------------------------
 Nuclear Repulsion Energy =         801.10214516 hartrees
 There are       48 alpha and       48 beta electrons
 OPLSAA force field loaded.
Reading user-defined FF parameters...
 Reading user defined atom types.
 Found 3 user defined AtomTypes
finished.
Determining VDW/Coulomb pairs... (useList = 0)

 No MM bonds in system. Return all possible pairs.
 Time req'd to get MM system information: 0.0 s (CPU) 0.0 s (wall)

 ------ MM Energies ------
   Ebond:             0.000000000000
   Eangle:            0.000000000000
   EUreyBrad:         0.000000000000
   Eimptors:          0.000000000000
   Etorsion:          0.000000000000
   Evdw:        1056108.948194002500
   Ecoulomb:         -6.420843399450
   Etot:        1056102.527350603137 Kcal/mol (   1683.006514097065 hartree)
 -------------------------
 Eold: 1685.2223944 mm_energy: 1683.0065141 Enew:    2.2158803
 Time req'd to calc MM energy: 0.0 s (CPU) 0.0 s (wall)
 OPLSAA force field loaded.
Reading user-defined FF parameters...
 Reading user defined atom types.
 Found 3 user defined AtomTypes
finished.
Determining VDW/Coulomb pairs... (useList = 0)

 No MM bonds in system. Return all possible pairs.
 Time req'd to get MM system information: 0.0 s (CPU) 0.0 s (wall)
 Number of fixed atoms: 0
 Time req'd to calc MM gradient: 0.0 s (CPU) 0.0 s (wall)
   **** Step 3: QM calculation on the model system **** 
 Requested basis set is def2-mSVP
 There are 80 shells and 174 basis functions

                       Distance Matrix (Bohrs)
             Fe(  1)   C (  2)   C (  3)   C (  4)   C (  5)   C (  6)
   C (  2)  3.382423
   C (  3)  3.417281  6.781540
   C (  4)  3.329067  4.548710  4.618313
   C (  5)  3.431239  4.852722  5.046519  5.981390
   C (  6)  3.464083  5.156260  4.662794  5.883729  5.829538
   O (  7)  5.525494  2.144021  8.916600  6.186995  6.588548  6.889685
   O (  8)  5.626860  8.971360  2.232520  6.293115  7.029685  6.210410
   O (  9)  5.580646  6.128348  6.509919  2.268107  8.099833  7.837873
   O ( 10)  5.616095  6.456194  6.956070  7.987501  2.195415  7.764423
   O ( 11)  5.691915  7.136356  6.257066  7.975816  7.713575  2.244890
             O (  7)   O (  8)   O (  9)   O ( 10)
   O (  8) 11.094758
   O (  9)  7.271061  7.783982
   O ( 10)  7.801467  8.719871  9.985091
   O ( 11)  8.614499  7.279642  9.786691  9.446465

 A cutoff of  1.0D-11 yielded   2497 shell pairs
 There are     12927 function pairs (     14811 Cartesian)
 Smallest overlap matrix eigenvalue = 2.49E-03
 Guess MOs from SCF MO coefficient file
 Reading MOs from coefficient file
 Reading MOs from coefficient file
 A restricted Kohn-Sham SCF calculation will be
 performed using Pulay DIIS extrapolation
 Exchange:  B88      Correlation:  P86
 Using SG-1 standard quadrature grid
 SCF converges when DIIS error is below 1.0E-08
 Using Q-Chem read-in guess as SCF_GUESS READ specified.

 using 2 threads for integral computing
 -------------------------------------------------------
 OpenMP Integral computing Module                
 Release: version 1.0, May 2013, Q-Chem Inc. Pittsburgh 
 -------------------------------------------------------
 ---------------------------------------
  Cycle       Energy         DIIS Error
 ---------------------------------------
    1   -1830.5183194954      2.37E-09
    2   -1830.5183194956      6.94E-09 Convergence criterion met
 ---------------------------------------
 SCF time:  CPU 2.90 s  wall 1.52 s
 E(QM + QM/MM):    -1830.5183194956 E(MM):    2.2158803 E(Tot): -1828.302439229208 
 SCF   energy in the final basis set = -1828.30243923
 Total energy in the final basis set = -1828.30243923

 --------------------------------------------------------------

                    Orbital Energies (a.u.)
 --------------------------------------------------------------

 Alpha MOs
 -- Occupied --
******** -29.6385 -25.5980 -25.5854 -25.5820 -18.8907 -18.8893 -18.8788
-18.8764 -18.8699 -10.0629 -10.0536 -10.0468 -10.0460 -10.0437  -3.3237
 -2.1594  -2.1355  -2.1267  -1.0799  -1.0525  -1.0520  -1.0354  -1.0244
 -0.5788  -0.5309  -0.5206  -0.5182  -0.5147  -0.4592  -0.4505  -0.4450
 -0.4364  -0.4344  -0.4296  -0.4235  -0.4181  -0.4106  -0.4090  -0.4024
 -0.4005  -0.3957  -0.3938  -0.3761  -0.2814  -0.2755  -0.2333  -0.2290
 -- Virtual --
 -0.1043  -0.0963  -0.0899  -0.0791  -0.0766  -0.0699  -0.0667  -0.0621
 -0.0520  -0.0355  -0.0234   0.0109   0.1851   0.2127   0.2244   0.2544
  0.2978   0.3257   0.3428   0.3971   0.4062   0.4194   0.4293   0.4347
  0.4432   0.4809   0.4892   0.5084   0.5248   0.5470   0.5678   0.5898
  0.5918   0.6088   0.6251   0.6557   0.7376   0.7534   0.7633   0.7717
  0.7887   0.8251   0.8360   0.8608   0.8890   0.9070   0.9389   0.9537
  0.9699   0.9783   0.9928   0.9998   1.0073   1.0195   1.0247   1.0504
  1.2065   1.2389   1.2832   1.3056   1.3971   1.4029   1.4055   1.4120
  1.4226   1.4231   1.4294   1.4330   1.4414   1.4539   1.4873   1.4998
  1.5216   1.5339   1.5643   1.5788   1.6092   1.6324   1.6458   1.6718
  1.6946   1.8128   1.8274   1.8338   1.8376   1.8398   1.8418   1.8477
  1.8575   1.8647   1.8779   1.8899   1.8932   1.9157   1.9236   1.9540
  2.3646   2.3799   2.4076   2.4368   2.4465   2.4542   2.4650   2.4895
  2.4966   2.5014   2.6253   2.6392   2.6503   2.6707   2.6770   2.8135
  2.8241   2.8763   2.9039   2.9677  13.2706  13.2946  13.3217  13.3475
 13.4567  24.9066  24.9102  24.9478  24.9807  25.0243
 --------------------------------------------------------------

          Ground-State Mulliken Net Atomic Charges

     Atom                 Charge (a.u.)
  ----------------------------------------
      1 Fe                   -0.473543
      2 C                     0.188457
      3 C                     0.213591
      4 C                     0.205049
      5 C                     0.224533
      6 C                     0.239719
      7 O                    -0.082081
      8 O                    -0.119739
      9 O                    -0.151105
     10 O                    -0.111675
     11 O                    -0.133206
  ----------------------------------------
  Sum of atomic charges =     0.000000

 -----------------------------------------------------------------
                    Cartesian Multipole Moments
 -----------------------------------------------------------------
    Charge (ESU x 10^10)
                -0.0000
    Dipole Moment (Debye)
         X       0.1795117251      Y      -0.3412619788      Z       0.0158340317
       Tot       0.3859208652
    Quadrupole Moments (Debye-Ang)
        XX     209.1607     XY    -259.9162     YY     -95.1142
        XZ      17.2023     YZ     -10.5432     ZZ     -66.9524
    Octopole Moments (Debye-Ang^2)
       XXX  161588.8032    XXY -200435.1653    XYY  -74048.3631
       YYY   -9044.6933    XXZ   14960.5704    XYZ   -8054.2020
       YYZ   -3015.2821    XZZ  -52160.8876    YZZ   -2805.2314
       ZZZ   -6402.0671
    Hexadecapole Moments (Debye-Ang^3)
      XXXX ************   XXXY ************   XXYY ************
      XYYY ************   YYYY -627309.8920   XXXZ ************
      XXYZ ************   XYYZ ************   YYYZ -287117.0193
      XXZZ ************   XYZZ ************   YYZZ -186313.7060
      XZZZ ************   YZZZ -245481.5961   ZZZZ -406847.3020
 -----------------------------------------------------------------
 Calculating MO derivatives via CPSCF
 Full subspace dimension requested for CIS/TDDFT
 MAX_CIS_SUBSPACE fits in available memory
    1     0    36    0.0400967  
    2     0    36    0.0065861  
    3     0    36    0.0007025  
    4     0    36    0.0000546  
    5    34     2    0.0000015  
    6    36     0    0.0000001  Converged
 Time for AOints: 6.5 s (CPU) 3.3 s (wall)
 ------------------------------------------------------------------------------
                     AOints        : Timing summary (seconds)
 ------------------------------------------------------------------------------
     job step          cpu (% of tot)      sys (% of tot)     wall (% of tot)
 ------------------------------------------------------------------------------
  AOints            0.6461E+01 ( 3.7)   0.9000E-05 ( 9.6)   0.3291E+01 ( 3.7)
 ------------------------------------------------------------------------------
   Grand Totals     0.1757E+03          0.9400E-04          0.8845E+02
 ------------------------------------------------------------------------------
 Polarizability Matrix (a.u.)
            1           2           3
    1 -90.2684242   1.6825309  -3.4033731
    2   1.6825309 -90.9236076  -9.6866190
    3  -3.4033731  -9.6866190 -93.2503023
 Derivative of Dipole Moment Matrix (a.u.)
            1           2           3
    1  -1.9296640   0.0238082  -0.0635863
    2  -0.0066267  -1.8892226  -0.0176363
    3   0.0046263  -0.0502130  -1.9146621
    4   0.4355319   0.0377153   0.0475136
    5   0.0293122   0.6838451   0.5590577
    6  -0.0539404   0.6183710   2.0909426
    7   0.4527014  -0.1389795  -0.2812720
    8  -0.1203391   0.7761057   0.7711866
    9  -0.2189987   0.5880362   1.7831725
   10   2.2125334  -0.1679204   0.3544350
   11  -0.2628590   0.4339866  -0.0837421
   12   0.4779376  -0.0864617   0.4461245
   13   0.8235598  -0.7382886   0.2448542
   14  -0.7774292   1.9113814  -0.4983863
   15   0.1985249  -0.4010778   0.5609090
   16   1.2172848   0.9241562  -0.1423318
   17   0.9375851   1.5047595  -0.2119478
   18  -0.0107881  -0.0285822   0.3802329
   19  -0.1429554  -0.0203807  -0.0356079
   20  -0.0027748  -0.3212352  -0.4441339
   21   0.0265993  -0.4971122  -1.4869207
   22  -0.1868336   0.1077534   0.2352785
   23   0.1196508  -0.4591849  -0.6853759
   24   0.1815892  -0.4617731  -1.2152077
   25  -1.5666998   0.1387273  -0.2607307
   26   0.2177074  -0.2156052   0.0560270
   27  -0.4320313   0.0613828  -0.2356562
   28  -0.4803816   0.5945092  -0.2049360
   29   0.6038039  -1.3776766   0.4163702
   30  -0.1408007   0.2841890  -0.2550347
   31  -0.8350769  -0.7611003   0.1063834
   32  -0.7380306  -1.0471538   0.1385808
   33  -0.0327180  -0.0267590  -0.1539001
 -----------------------------------------
 Net:  -0.00000  -0.00000  -0.00000
 -----------------------------------------

 Calculating analytic Hessian of the SCF energy
