                  Welcome to Q-Chem
     A Quantum Leap Into The Future Of Chemistry


 Q-Chem 5.4 (devel), Q-Chem, Inc., Pleasanton, CA (2021)

 E. Epifanovsky,  A. T. B. Gilbert,  Xintian Feng,  Joonho Lee,  Yuezhi Mao,  
 N. Mardirossian,  P. Pokhilko,  A. White,  M. Wormit,  M. P. Coons,  
 A. L. Dempwolff,  Zhengting Gan,  D. Hait,  P. R. Horn,  L. D. Jacobson,  
 I. Kaliman,  J. Kussmann,  A. W. Lange,  Ka Un Lao,  D. S. Levine,  Jie Liu,  
 S. C. McKenzie,  A. F. Morrison,  K. Nanda,  F. Plasser,  D. R. Rehn,  
 M. L. Vidal,  Zhi-Qiang You,  Ying Zhu,  B. Alam,  B. Albrecht,  
 A. Aldossary,  E. Alguire,  J. H. Andersen,  D. Barton,  K. Begam,  A. Behn,  
 Y. A. Bernard,  E. J. Berquist,  H. Burton,  A. Carreras,  K. Carter-Fenk,  
 R. Chakraborty,  A. D. Chien,  K. D. Closser,  V. Cofer-Shabica,  
 S. Dasgupta,  Jia Deng,  M. de Wergifosse,  M. Diedenhofen,  Hainam Do,  
 S. Ehlert,  Po-Tung Fang,  S. Fatehi,  Qingguo Feng,  T. Friedhoff,  
 J. Gayvert,  Qinghui Ge,  G. Gidofalvi,  M. Goldey,  J. Gomes,  
 C. Gonzalez-Espinoza,  S. Gulania,  A. Gunina,  M. W. D. Hanson-Heine,  
 P. H. P. Harbach,  A. W. Hauser,  M. F. Herbst,  M. Hernandez Vera,  
 M. Hodecker,  Z. C. Holden,  S. Houck,  Xunkun Huang,  Kerwin Hui,  
 B. C. Huynh,  M. Ivanov,  Hyunjun Ji,  Hanjie Jiang,  B. Kaduk,  S. Kaehler,  
 K. Khistyaev,  Jaehoon Kim,  P. Klunzinger,  Z. Koczor-Benda,  
 Joong Hoon Koh,  D. Kosenkov,  L. Koulias,  T. Kowalczyk,  C. M. Krauter,  
 K. Kue,  A. Kunitsa,  T. Kus,  A. Landau,  K. V. Lawler,  D. Lefrancois,  
 S. Lehtola,  Rain Li,  Yi-Pei Li,  Jiashu Liang,  M. Liebenthal,  
 Hung-Hsuan Lin,  You-Sheng Lin,  Fenglai Liu,  Kuan-Yu Liu,  
 M. Loipersberger,  A. Luenser,  A. Manjanath,  P. Manohar,  E. Mansoor,  
 S. F. Manzer,  Shan-Ping Mao,  A. V. Marenich,  T. Markovich,  S. Mason,  
 S. A. Maurer,  P. F. McLaughlin,  M. F. S. J. Menger,  J.-M. Mewes,  
 S. A. Mewes,  P. Morgante,  J. W. Mullinax,  K. J. Oosterbaan,  G. Paran,  
 Alexander C. Paul,  Suranjan K. Paul,  F. Pavosevic,  Zheng Pei,  S. Prager,  
 E. I. Proynov,  E. Ramos,  B. Rana,  A. E. Rask,  A. Rettig,  R. M. Richard,  
 F. Rob,  E. Rossomme,  T. Scheele,  M. Scheurer,  M. Schneider,  
 N. Sergueev,  S. M. Sharada,  W. Skomorowski,  D. W. Small,  C. J. Stein,  
 Yu-Chuan Su,  E. J. Sundstrom,  Zhen Tao,  J. Thirman,  T. Tsuchimochi,  
 N. M. Tubman,  S. P. Veccham,  O. Vydrov,  J. Wenzel,  J. Witte,  A. Yamada,  
 Kun Yao,  S. Yeganeh,  S. R. Yost,  A. Zech,  Igor Ying Zhang,  Xing Zhang,  
 Yu Zhang,  D. Zuev,  A. Aspuru-Guzik,  A. T. Bell,  N. A. Besley,  
 K. B. Bravaya,  B. R. Brooks,  D. Casanova,  Jeng-Da Chai,  S. Coriani,  
 C. J. Cramer,  A. E. DePrince, III,  R. A. DiStasio Jr.,  A. Dreuw,  
 B. D. Dunietz,  T. R. Furlani,  W. A. Goddard III,  S. Grimme,  
 S. Hammes-Schiffer,  T. Head-Gordon,  W. J. Hehre,  Chao-Ping Hsu,  
 T.-C. Jagau,  Yousung Jung,  A. Klamt,  Jing Kong,  D. S. Lambrecht,  
 WanZhen Liang,  N. J. Mayhall,  C. W. McCurdy,  J. B. Neaton,  
 C. Ochsenfeld,  J. A. Parkhill,  R. Peverati,  V. A. Rassolov,  Yihan Shao,  
 L. V. Slipchenko,  T. Stauch,  R. P. Steele,  J. E. Subotnik,  
 A. J. W. Thom,  A. Tkatchenko,  D. G. Truhlar,  T. Van Voorhis,  
 T. A. Wesolowski,  K. B. Whaley,  H. L. Woodcock III,  P. M. Zimmerman,  
 S. Faraji,  P. M. W. Gill,  M. Head-Gordon,  J. M. Herbert,  A. I. Krylov

 Additional authors for Version 5.4.1: 
 S. Kotaru,  Shaozhi Li,  Xiangyuan Li,  F. Matz,  A. Molle,  Haisheng Ren,  
 Yingli Su,  Hung-Yi Tsai,  C. Utku,  Fang Wang

 Contributors to earlier versions of Q-Chem not listed above: 
 R. D. Adamson,  B. Austin,  R. Baer,  J. Baker,  G. J. O. Beran,  
 K. Brandhorst,  S. T. Brown,  E. F. C. Byrd,  A. K. Chakraborty,  
 G. K. L. Chan,  Chun-Min Chang,  Yunqing Chen,  C.-L. Cheng,  
 Siu Hung Chien,  D. M. Chipman,  D. L. Crittenden,  H. Dachsel,  
 R. J. Doerksen,  A. D. Dutoi,  R. G. Edgar,  J. Fosso-Tande,  
 L. Fusti-Molnar,  D. Ghosh,  A. Ghysels,  A. Golubeva-Zadorozhnaya,  
 J. Gonthier,  M. S. Gordon,  S. R. Gwaltney,  G. Hawkins,  J. E. Herr,  
 A. Heyden,  S. Hirata,  E. G. Hohenstein,  G. Kedziora,  F. J. Keil,  
 C. Kelley,  Jihan Kim,  R. A. King,  R. Z. Khaliullin,  P. P. Korambath,  
 W. Kurlancheek,  A. Laurent,  A. M. Lee,  M. S. Lee,  S. V. Levchenko,  
 Ching Yeh Lin,  D. Liotard,  E. Livshits,  R. C. Lochan,  I. Lotan,  
 L. A. Martinez-Martinez,  P. E. Maslen,  N. Nair,  D. P. O'Neill,  
 D. Neuhauser,  E. Neuscamman,  C. M. Oana,  R. Olivares-Amaya,  R. Olson,  
 T. M. Perrine,  B. Peters,  P. A. Pieniazek,  A. Prociuk,  Y. M. Rhee,  
 J. Ritchie,  M. A. Rohrdanz,  E. Rosta,  N. J. Russ,  H. F. Schaefer III,  
 M. W. Schmidt,  N. E. Schultz,  S. Sharma,  N. Shenvi,  C. D. Sherrill,  
 A. C. Simmonett,  A. Sodt,  T. Stein,  D. Stuck,  K. S. Thanthiriwatte,  
 V. Vanovschi,  L. Vogt,  Tao Wang,  A. Warshel,  M. A. Watson,  
 C. F. Williams,  Q. Wu,  X. Xu,  Jun Yang,  W. Zhang,  Yan Zhao

 Please cite Q-Chem as follows:
 Y. Shao et al., Mol. Phys. 113, 184-215 (2015)
 DOI: 10.1080/00268976.2014.952696

 Q-Chem 5.4.1 for Intel X86 EM64T Linux

 Parts of Q-Chem use Armadillo 9.900.5 (Nocturnal Misbehaviour).
 http://arma.sourceforge.net/

 Q-Chem begins on Wed Jun 22 08:05:25 2022  

 Host: p09r16n04.grace.hpc.yale.internal
0

     Scratch files written to /home/tl686/scratch60/qchem_dev/scratch/qchem69565//
 Processing $rem in /home/tl686/qchem_dev/qchem/config/preferences:
 Processing $rem in /home/tl686/.qchemrc:
Applying user defined connections for MM calculations

 Checking the input file for inconsistencies... 	...done.

--------------------------------------------------------------
User input:
--------------------------------------------------------------
$molecule
0   1
 Fe -24.03021988 17.94957654 40.26891767    -1  0   0   0   0
C -22.42316763 15.11026182 40.84906580    -2  0   0   0   0 
C -25.56366791 20.89632475 39.63591033    -2  0   0   0   0
C -22.91124821 19.19236135 43.41557881    -2  0   0   0   0
C -21.95237408 18.70613745 37.65535219    -2  0   0   0   0
C -26.93858891 16.27856651 39.71357930    -2  0   0   0   0
O -21.27108435 13.19264057 41.13454073    -3  0   0   0   0
O -26.73699372 22.77686538 39.32929347    -3  0   0   0   0 
O -21.54208954 19.78729459 44.97967493    -3  0   0   0   0
O -20.56025822 18.86021137 36.07022663    -3  0   0   0   0 
O -28.67984169 15.09954925 38.98589542    -3  0   0   0   0
H -1.28790505 5.71851674 48.96647496      6     13    0    0    0 
C -0.49780017 3.91835859 48.46089180     1     12    14    15    16
H 1.31529508 3.73233045 49.47385237     6     13    0    0    0
H -1.65696770 2.50059399 49.35931813     6     13    0    0    0
C 0.04197691 3.52741743 45.62046923     2     13    17    18    19
H 0.63905503 5.31294757 45.18320119     6     16    0    0    0
H 1.78833276 2.34856616 45.22937188     6     16    0    0    0
C -2.31179523 2.89009928 44.07138637     2     16    20   21   22
H -2.89541416 0.97050347 44.36320879     6     19    0    0    0
H -3.96912740 4.09546174 44.65096087     6     19    0    0    0
C -1.86476052 2.97940959 41.16084248     2     19   23   24   25
H -0.92278455 4.81279037 40.85172505     6    22    0    0    0
H -0.70028035 1.37603793 40.62942806     6    22    0    0    0
C -4.41735142 2.95874064 39.72413967     2    22   26   27   28
H -5.41728589 1.15898739 39.95495868     6    25    0    0    0
H -5.72443100 4.27585291 40.88345067     6    25    0    0    0
C -4.33050697 3.63754097 36.87525127     2    25   29   30   31
H -3.44826382 5.55971870 36.64290181     6    28    0    0    0
H -3.03847726 2.26376244 35.88955916     6    28    0    0    0
C -7.04205358 3.60265812 35.59581998     2    28   32   33   34
H -7.79945113 1.76722594 35.98107444     6    31    0    0    0
H -8.23485674 5.00459929 36.53793448     6    31    0    0    0
C -7.01312617 4.20973829 32.77608389     2    31   35   36   37
H -6.45833172 6.20060329 32.36046579     6    34    0    0    0
H -5.77567022 2.79497108 31.73817508     6    34    0    0    0
C -9.56217006 3.66732968 31.68698392     2    34   38   39   40
H -9.95426387 1.66997934 32.35541980     6    37    0    0    0
H -10.96952736 4.83551343 32.62746116     6    37    0    0    0
C -9.79238366 3.84233211 28.77128711     2    37   41   42   43
H -9.33379556 5.70586625 28.09150803     6    40    0    0    0
H -8.21120696 2.63373192 27.99352859     6    40    0    0    0
C -12.34374269 2.89616298 27.71363003     2    40   44   45   46
H -12.27258865 0.94593958 27.75032359     6    43    0    0    0
H -13.95867376 3.29073346 28.92944137     6    43    0    0    0
C -12.85319078 3.80464437 24.97624967     1    43   47   48   49
H -13.06374641 5.91863957 25.18091576     6    46    0    0    0
H -14.68372237 2.95654698 24.34840043     6    46    0    0    0
H -11.58579705 3.14656111 23.66229053     6    46    0    0    0
H -24.13392149 13.05303594 31.30250361     6     51    0    0    0 
C -23.29986134 12.72006715 33.28039522     1     50    52    53    54
H -22.59495790 14.48895907 33.82375243     6     51    0    0    0
H -24.84953236 12.20726475 34.54284617     6     51    0    0    0
C -21.19530115 10.75348887 33.43157621     2     51    55    56    57
H -20.66311840 10.29938065 35.33903992     6     54    0    0    0
H -21.82156583 8.87232713 33.06206011     6     54    0    0    0
C -18.82474243 11.49434919 31.98178647     2     54    58   59   60
H -18.30882528 13.52560452 32.16375166     6     57    0    0    0
H -17.32807508 10.49640628 32.84907733     6     57    0    0    0
C -19.04691531 10.73162361 29.35277919     2     57   61   62   63
H -19.15589483 8.65505030 29.48673522     6    60    0    0    0
H -20.67002959 11.64722223 28.53902001     6    60    0    0    0
C -16.83537805 11.17086774 27.74652059     2    60   64   65   66
H -16.35991396 13.22390854 27.60350060     6    63    0    0    0
H -15.18765603 10.26326184 28.73683695     6    63    0    0    0
C -16.97717505 9.88730805 25.14420016     2    63   67   68   69
H -15.26331479 10.26550699 24.03507424     6    66    0    0    0
H -17.14302756 7.84308287 25.46387340     6    66    0    0    0
C -19.15911986 11.09588667 23.50357469     2    66   70   71   72
H -20.95274699 10.60691458 24.19309330     6    69    0    0    0
H -18.95804269 13.16549828 23.53684959     6    69    0    0    0
C -19.05344770 10.25385575 20.75976350     2    69   73   74   75
H -17.51971412 11.23896476 19.94787493     6    72    0    0    0
H -18.39131024 8.37071252 20.78305840     6    72    0    0    0
C -21.53570547 10.79449796 19.37298172     2    72   76   77   78
H -23.07905295 10.28668261 20.70215225     6    75    0    0    0
H -21.69651611 12.71877861 18.81185308     6    75    0    0    0
C -21.84636403 9.06955711 17.09574398     2    75   79   80   81
H -20.63466136 9.57885010 15.68824148     6    78    0    0    0
H -21.49379350 7.20428461 17.66480467     6    78    0    0    0
C -24.66866500 9.08016525 15.94147717     2    78   82   83   84
H -25.92108122 7.70906706 16.68149505     6    81    0    0    0
H -25.66488379 10.92920389 16.23143808     6    81    0    0    0
C -24.55142807 8.69305919 13.11494339     1    81   85   86   87
H -26.39750896 8.46842551 12.26463809     6    84    0    0    0
H -23.89632099 6.82197365 12.47402352     6    84    0    0    0
H -23.42944504 10.21333416 12.04762679     6    84    0    0    0
H 7.77371454 18.38043502 35.36767228     6     89    0    0    0 
C 7.97010557 16.68081509 34.24550107     1     88    90    91    92
H 9.94529564 16.01539063 34.33818281     6     89    0    0    0
H 6.90342588 15.23351857 35.14377127     6     89    0    0    0
C 6.98333503 17.49574356 31.53598130     2     89    93    94    95
H 5.22730184 18.56312262 31.67798356     6     92    0    0    0
H 8.43760070 18.62818829 30.69452196     6     92    0    0    0
C 6.60675091 15.04553817 29.97577197     2     92    96   97   98
H 8.30630810 13.83210698 30.27059661     6     95    0    0    0
H 4.82008148 14.25790211 30.91169360     6     95    0    0    0
C 5.80108338 15.40893966 27.29609247     2     95   99   100   101
H 3.95143760 16.11560392 26.81443318     6    98    0    0    0
H 6.99643610 17.03329215 26.56966730     6    98    0    0    0
C 6.41727233 12.92288688 25.71179568     2    98   102   103   104
H 8.45267384 12.92784744 25.59185950     6    101    0    0    0
H 5.90119707 11.18853673 26.82078861     6    101    0    0    0
C 5.30250760 13.04471272 23.10268495     2    101   105   106   107
H 3.33082142 13.58658335 23.06036291     6    104    0    0    0
H 6.40752615 14.49066602 22.02324896     6    104    0    0    0
C 5.48812443 10.55571492 21.62100704     2    104   108   109   110
H 7.19261066 9.53313408 22.06938652     6    107    0    0    0
H 4.03084611 9.30886741 22.53361534     6    107    0    0    0
C 5.00121430 10.54271291 18.90420261     2    107   111   112   113
H 3.04734768 11.11853726 18.77028482     6    110    0    0    0
H 5.95345269 11.83509496 17.65749080     6    110    0    0    0
C 5.18958557 7.92189348 17.66185288     2    110   114   115   116
H 7.10210294 7.74263618 16.96647736     6    113    0    0    0
H 5.07999528 6.37696779 19.05336236     6    113    0    0    0
C 3.24102889 7.69799007 15.52335215     2    113   117   118   119
H 1.30548268 7.46577634 16.11671766     6    116    0    0    0
H 3.27673007 9.50612305 14.33531169     6    116    0    0    0
C 3.83286404 5.61130067 13.70473630     2    116   120   121   122
H 2.57429114 5.95415670 12.11106323     6    119    0    0    0
H 5.79721196 5.73751561 13.07687897     6    119    0    0    0
C 3.24092023 2.97726351 14.45254774     1    119   123   124   125
H 4.10767149 1.84100224 13.10358525     6    122    0    0    0
H 1.21640234 2.79840165 14.62748322     6    122    0    0    0
H 4.03886678 2.71684222 16.33069852     6    122    0    0    0
H 4.07332633 34.55001317 42.27171494     6     127    0    0    0 
C 4.37294306 32.50899236 42.29142493     1     126    128    129    130
H 4.95861958 32.09288319 40.33621326     6     127    0    0    0
H 6.08294115 31.99426765 43.49767832     6     127    0    0    0
C 1.98727260 31.08535928 42.84212264     2     127    131    132    133
H 0.69823883 31.64543631 41.15454692     6     130    0    0    0
H 2.08149319 29.10873417 42.89979380     6     130    0    0    0
C 0.96223887 32.07013337 45.38647034     2     130    134   135   136
H 1.89946065 31.40023730 47.02950828     6     133    0    0    0
H 1.01003987 34.10157290 45.25050818     6     133    0    0    0
C -1.89048203 31.49536265 45.75322751     2     133   137   138   139
H -3.01396275 32.30271706 44.30128292     6    136    0    0    0
H -1.89101637 29.40908172 45.68800611     6    136    0    0    0
C -2.68883562 32.41546942 48.37559624     2    136   140   141   142
H -1.24884725 31.74371992 49.61296722     6    139    0    0    0
H -2.58969192 34.61045738 48.56211951     6    139    0    0    0
C -5.32548306 31.40076651 49.21371674     2    139   143   144   145
H -6.53437849 32.32658468 47.91259896     6    142    0    0    0
H -5.52041840 29.43600987 48.75686355     6    142    0    0    0
C -6.18782306 32.05965310 51.88584545     2    142   146   147   148
H -4.57678614 31.79814747 53.17989988     6    145    0    0    0
H -6.39779637 34.08732522 52.04149283     6    145    0    0    0
C -8.48182696 30.79677251 53.06958214     2    145   149   150   151
H -10.25334729 30.87754623 51.99191128     6    148    0    0    0
H -7.97610301 28.74709581 53.31262604     6    148    0    0    0
C -9.14128339 31.82767647 55.71875353     2    148   152   153   154
H -7.42579992 32.09633928 56.81041993     6    151    0    0    0
H -9.98222420 33.70735983 55.86882561     6    151    0    0    0
C -10.87724589 30.02582346 57.21646294     2    151   155   156   157
H -11.55220675 30.94647554 58.83619666     6    154    0    0    0
H -12.61634832 29.75485126 56.06567841     6    154    0    0    0
C -9.77888460 27.48533371 57.98371825     2    154   158   159   160
H -9.68038420 26.21385819 56.31590911     6    157    0    0    0
H -7.94231154 27.55915520 58.67809134     6    157    0    0    0
C -11.60500736 26.14564438 59.94139606     1    157   161   162   163
H -11.55461575 27.55319455 61.48618314     6    160    0    0    0
H -10.91769429 24.41491914 60.68347134     6    160    0    0    0
H -13.59447595 26.01909051 59.28077219     6    160    0    0    0
H 0.90091615 45.47089108 34.00917968     6     165    0    0    0 
C 1.76043987 44.01511809 35.19180171     1     164    166    167    168
H 0.55203252 42.45668136 34.75476130     6     165    0    0    0
H 3.58170398 43.45849223 34.40485686     6     165    0    0    0
C 1.99777359 44.79883232 38.00432405     2     165    169    170    171
H 3.10478498 46.60793320 38.27444350     6     168    0    0    0
H 0.15768965 45.15484122 38.62202488     6     168    0    0    0
C 3.40460477 42.66538893 39.30233227     2     168    172   173   174
H 2.45582548 40.91304016 38.77490173     6     171    0    0    0
H 5.34874913 42.54558683 38.63898491     6     171    0    0    0
C 3.27469749 43.06383574 42.20480447     2     171   175   176   177
H 3.89941238 44.86490547 42.79145723     6    174    0    0    0
H 1.28775396 43.20929814 42.76616933     6    174    0    0    0
C 4.43111403 40.87843970 43.71158214     2    174   178   179   180
H 3.39555249 39.19322898 42.91897232     6    177    0    0    0
H 6.29946454 40.35612556 43.15753260     6    177    0    0    0
C 4.09952184 41.14010529 46.51579316     2    177   181   182   183
H 5.71859548 42.45793311 47.02485626     6    180    0    0    0
H 2.34625398 42.06772444 47.16851054     6    180    0    0    0
C 4.33268515 38.83700442 48.24523682     2    180   184   185   186
H 2.86777160 37.59563831 47.50020993     6    183    0    0    0
H 6.08892735 37.87938094 47.91244625     6    183    0    0    0
C 3.58620033 39.29591785 51.17179786     2    183   187   188   189
H 5.16798967 40.04414657 51.86173776     6    186    0    0    0
H 1.87467458 40.55376214 51.29801561     6    186    0    0    0
C 3.15854264 36.74917178 52.59026942     2    186   190   191   192
H 1.26186730 36.22038464 52.22292789     6    189    0    0    0
H 4.50950177 35.32444576 51.86969955     6    189    0    0    0
C 3.80601584 37.26301377 55.23879335     2    189   193   194   195
H 5.49655724 38.33178408 55.62172396     6    192    0    0    0
H 2.21871703 38.18694656 56.26630382     6    192    0    0    0
C 4.24802278 34.76586961 56.70360530     2    192   196   197   198
H 2.41286759 33.73460023 56.64920136     6    195    0    0    0
H 5.57887918 33.41668040 55.80976206     6    195    0    0    0
C 4.79148005 35.22701919 59.53519586     1    195   199   200   201
H 4.53515399 33.56848284 60.72272490     6    198    0    0    0
H 3.23561182 36.40275358 60.17961155     6    198    0    0    0
H 6.77160985 35.92334366 59.75048584     6    198    0    0    0
H -11.16082022 31.14821639 24.45022189     6     203    0    0    0 
C -10.02253308 32.86660740 24.29347214     1     202    204    205    206
H -11.30762911 34.45890918 24.11483018     6     203    0    0    0
H -9.02959986 33.07089637 26.00282824     6     203    0    0    0
C -8.00652491 32.55401295 22.02434673     2     203    207    208    209
H -6.44850094 33.83307498 22.14382715     6     206    0    0    0
H -7.29085292 30.62803956 22.28717369     6     206    0    0    0
C -9.34938801 32.64954544 19.36137170     2     206    210   211   212
H -7.99860873 32.15240296 17.75346649     6     209    0    0    0
H -10.89148845 31.28846453 19.43856547     6     209    0    0    0
C -10.29964087 35.18056009 18.47708228     2     209   213   214   215
H -11.79059249 35.43782937 19.81428005     6    212    0    0    0
H -8.69278919 36.40819840 18.70368259     6    212    0    0    0
C -11.73476066 35.05599241 15.85457759     2    212   216   217   218
H -10.23324084 34.87021937 14.46277539     6    215    0    0    0
H -12.99542715 33.24953325 15.74600672     6    215    0    0    0
C -13.51785157 37.21822292 15.41823102     2    215   219   220   221
H -15.04154181 36.97893716 16.69171915     6    218    0    0    0
H -12.48580528 38.86846953 15.80980643     6    218    0    0    0
C -14.68202201 37.06554602 12.76777851     2    218   222   223   224
H -13.31377174 36.71416542 11.30902541     6    221    0    0    0
H -15.76489521 35.40047548 12.88114167     6    221    0    0    0
C -16.56258417 39.11420874 12.33134937     2    221   225   226   227
H -17.73721559 39.61849921 13.98230544     6    224    0    0    0
H -15.40648658 40.78617884 11.89883423     6    224    0    0    0
C -17.88932196 38.61905209 9.83624034     2    224   228   229   230
H -16.47448229 38.08844059 8.43682786     6    227    0    0    0
H -19.05736910 36.95891642 10.50255158     6    227    0    0    0
C -19.73042047 40.73497252 8.89319032     2    227   231   232   233
H -21.20047685 40.64621127 10.41497713     6    230    0    0    0
H -18.69399985 42.41858177 8.98032735     6    230    0    0    0
C -20.73753407 40.42323892 6.26521705     2    230   234   235   236
H -19.10351404 40.75844662 4.90690822     6    233    0    0    0
H -21.33764474 38.40656314 6.09571116     6    233    0    0    0
C -23.11427262 42.23494076 5.88580302     1    233   237   238   239
H -23.34742239 42.64468400 3.77252983     6    236    0    0    0
H -23.15464732 44.18492191 6.84723964     6    236    0    0    0
H -24.76489164 41.42144640 6.60990827     6    236    0    0    0
H -16.74922569 10.64257278 11.90790526     6     241    0    0    0 
C -15.20200087 11.86990215 12.85816789     1     240    242    243    244
H -14.31967624 13.10062156 11.48409314     6     241    0    0    0
H -15.81837580 13.02502232 14.41076312     6     241    0    0    0
C -12.94798932 10.13282186 13.92405240     2     241    245    246    247
H -12.08226536 9.15567250 12.41703066     6     244    0    0    0
H -11.64696527 11.56240773 14.76588234     6     244    0    0    0
C -13.63667766 8.00172806 15.73043031     2     244    248   249   250
H -12.00989865 6.99675855 16.43744788     6     247    0    0    0
H -14.45182118 9.08273402 17.39338570     6     247    0    0    0
C -15.57833463 6.03704199 14.83353635     2     247   251   252   253
H -16.16134824 4.73683852 16.37229862     6    250    0    0    0
H -17.23761939 7.03230003 14.50767341     6    250    0    0    0
C -14.90646349 4.49669028 12.38472004     2    250   254   255   256
H -14.40490369 5.69271829 10.76925213     6    253    0    0    0
H -13.27379766 3.48690615 12.78765381     6    253    0    0    0
C -16.98146855 2.71549657 11.50032776     2    253   257   258   259
H -16.20928988 1.00056037 10.53213678     6    256    0    0    0
H -18.03796357 1.96564366 13.07676203     6    256    0    0    0
C -18.84414646 4.05799449 9.92975263     2    256   260   261   262
H -19.72354544 5.69459641 11.00025010     6    259    0    0    0
H -17.99447525 4.90153476 8.23933456     6    259    0    0    0
C -20.87233457 2.15383402 9.07693395     2    259   263   264   265
H -19.71711672 0.72234055 8.22851852     6    262    0    0    0
H -21.74235881 1.44892487 10.78396329     6    262    0    0    0
C -22.79554095 3.24838742 7.15245422     2    262   266   267   268
H -23.52112036 4.91704621 7.98776847     6    265    0    0    0
H -21.78361918 3.80375128 5.37573214     6    265    0    0    0
C -24.79408676 1.29053147 6.41724856     2    265   269   270   271
H -23.85732463 -0.40853405 5.48062130     6    268    0    0    0
H -25.38050267 0.42533276 8.26412278     6    268    0    0    0
C -27.02232381 2.12531465 4.74573146     2    268   272   273   274
H -28.09731325 3.59561014 5.89829302     6    271    0    0    0
H -26.38849010 3.02900144 2.94162138     6    271    0    0    0
C -28.97436689 0.03986106 3.97918054     1    271   275   276   277
H -27.98936341 -1.65239933 3.12919910     6    274    0    0    0
H -30.25033283 0.74849884 2.50192027     6    274    0    0    0
H -29.94116061 -0.71774192 5.64989612     6    274    0    0    0
H -0.12244704 29.74519635 20.87011007     6     279    0    0    0 
C -1.28941010 28.70811797 19.52231063     1     278    280    281    282
H -2.27264445 30.16828829 18.44821400     6     279    0    0    0
H -0.09238482 27.71683007 18.29026919     6     279    0    0    0
C -3.17819943 26.84021475 20.58925478     2     279    283    284    285
H -2.06741229 25.65802373 21.82664562     6     282    0    0    0
H -4.65080315 27.55696265 21.71261458     6     282    0    0    0
C -4.25776366 24.91644595 18.60552615     2     282    286   287   288
H -3.01248806 24.76958521 16.96407826     6     285    0    0    0
H -4.56440047 23.06160315 19.40456901     6     285    0    0    0
C -6.69068454 25.89926481 17.57452345     2     285   289   290   291
H -7.74434734 25.65501078 19.18923004     6    288    0    0    0
H -6.59280501 27.89625189 16.90369591     6    288    0    0    0
C -7.74490405 24.44554964 15.33592107     2    288   292   293   294
H -6.71877263 25.05989591 13.57590282     6    291    0    0    0
H -7.42637678 22.37263974 15.33677489     6    291    0    0    0
C -10.63491324 25.12612251 15.01417385     2    291   295   296   297
H -11.51506622 24.41028291 16.77119994     6    294    0    0    0
H -10.86327365 27.24618454 14.86247739     6    294    0    0    0
C -11.89605476 23.91038265 12.68978944     2    294   298   299   300
H -10.84186981 24.11593856 10.96245248     6    297    0    0    0
H -12.00827650 21.81587035 12.98054992     6    297    0    0    0
C -14.61661403 24.63706938 12.66121175     2    297   301   302   303
H -15.36911182 24.39756906 14.52011875     6    300    0    0    0
H -14.96280625 26.76916728 12.00414526     6    300    0    0    0
C -16.33231825 23.11151439 10.77539155     2    300   304   305   306
H -15.38195767 23.38772747 8.89630121     6    303    0    0    0
H -16.31942760 21.09717340 11.14183096     6    303    0    0    0
C -19.07699366 24.07736596 10.54702371     2    303   307   308   309
H -19.98097980 23.49547282 12.38118870     6    306    0    0    0
H -19.18515803 26.19324852 10.62290286     6    306    0    0    0
C -20.69790774 22.97485997 8.45972063     2    306   310   311   312
H -20.16918219 23.52487105 6.49241143     6    309    0    0    0
H -20.30577838 20.99194756 8.37070692     6    309    0    0    0
C -23.49556741 23.24552232 8.82411328     1    309   313   314   315
H -24.29312047 25.15638630 8.77789198     6    312    0    0    0
H -24.02853660 22.58205454 10.65467893     6    312    0    0    0
H -24.41620484 21.98998259 7.50655295     6    312    0    0    0
H -1.58786319 17.44740658 31.81086603     6     317    0    0    0 
C -1.60796351 19.41100962 31.65380500     1     316    318    319    320
H 0.33844642 19.94181417 31.20731413     6     317    0    0    0
H -2.80301489 20.07455013 30.03540068     6     317    0    0    0
C -2.26420295 20.67582541 34.16842116     2     317    321    322    323
H -2.34798235 22.63221427 33.89431584     6     320    0    0    0
H -4.12349533 20.01719109 34.56359013     6     320    0    0    0
C -0.62191861 19.97101011 36.43650046     2     320    324   325   326
H 0.70536121 18.41609665 36.09702685     6     323    0    0    0
H 0.44347558 21.49170565 37.14791802     6     323    0    0    0
C -2.31932747 19.09985757 38.78542093     2     323   327   328   329
H -3.84022106 20.47636045 39.16705335     6    326    0    0    0
H -2.96113736 17.23971737 38.11590620     6    326    0    0    0
C -0.57357972 18.79489170 41.11219747     2    326   330   331   332
H 0.92256293 17.44331743 40.71645726     6    329    0    0    0
H 0.60872368 20.48238488 41.40357203     6    329    0    0    0
C -2.08109883 17.97113204 43.38154063     2    329   333   334   335
H -2.95698885 16.21532640 42.96144537     6    332    0    0    0
H -0.84259298 17.58055237 44.97520944     6    332    0    0    0
C -3.99301281 19.88349755 44.47662202     2    332   336   337   338
H -2.70973355 21.08710783 45.52230007     6    335    0    0    0
H -4.77843531 21.25052455 43.08973465     6    335    0    0    0
C -5.86161548 18.67465858 46.35128810     2    335   339   340   341
H -6.96824200 17.09251589 45.53990649     6    338    0    0    0
H -4.71623384 17.85135538 47.83941661     6    338    0    0    0
C -7.50458671 20.72276308 47.48024274     2    338   342   343   344
H -6.17526960 21.79166872 48.60408604     6    341    0    0    0
H -8.12936786 21.97870396 46.13079365     6    341    0    0    0
C -9.70915774 19.95456711 49.18608297     2    341   345   346   347
H -11.39403263 20.82142046 48.30604318     6    344    0    0    0
H -10.10116482 17.91192138 48.92889611     6    344    0    0    0
C -9.29645483 20.70295951 51.96727217     2    344   348   349   350
H -7.82782871 19.61028185 52.73946312     6    347    0    0    0
H -8.76669179 22.64765099 51.79406461     6    347    0    0    0
C -11.53892700 20.84614234 53.56021447     1    347   351   352   353
H -11.17516875 22.05492507 55.19419823     6    350    0    0    0
H -12.20068202 18.98203386 54.12263603     6    350    0    0    0
H -13.08757972 21.81337130 52.58982216     6    350    0    0    0
H -13.75225274 13.28529159 18.89074677     6     355    0    0    0 
C -12.21890668 13.18491000 20.38159283     1     354    356    357    358
H -12.88191777 13.73983531 22.18411340     6     355    0    0    0
H -11.63742859 11.25017472 20.50772226     6     355    0    0    0
C -9.95799092 14.76174647 19.42667518     2     355    359    360    361
H -8.77984208 13.62378353 18.17320887     6     358    0    0    0
H -10.72672654 16.22760455 18.25848727     6     358    0    0    0
C -8.12853027 15.57883554 21.67569357     2     358    362   363   364
H -9.25708794 16.57399750 22.98274793     6     361    0    0    0
H -7.45169586 13.90305466 22.77448227     6     361    0    0    0
C -5.80137563 17.15649840 20.65414192     2     361   365   366   367
H -4.78236786 15.67052400 19.80526493     6    364    0    0    0
H -6.07929020 18.63585563 19.21119116     6    364    0    0    0
C -4.14283680 18.04594935 22.83598424     2    364   368   369   370
H -4.91430021 19.68337384 23.71843894     6    367    0    0    0
H -4.21047147 16.58351402 24.41310008     6    367    0    0    0
C -1.30026442 18.46109646 22.29626135     2    367   371   372   373
H -0.35224908 16.72822220 21.75115459     6    370    0    0    0
H -1.07584429 19.52382002 20.51982236     6    370    0    0    0
C 0.23377151 20.11923162 24.27227387     2    370   374   375   376
H -0.76593694 21.81511368 24.56064735     6    373    0    0    0
H 0.21426614 19.10157850 25.99288463     6    373    0    0    0
C 2.95194386 20.65853110 23.48840925     2    373   377   378   379
H 3.59966251 18.91944982 22.70582341     6    376    0    0    0
H 2.91361635 21.82003865 21.80159091     6    376    0    0    0
C 4.55948224 21.61719825 25.70610798     2    376   380   381   382
H 4.27034390 20.74496387 27.50976862     6    379    0    0    0
H 6.54565295 21.26454193 25.37169540     6    379    0    0    0
C 4.32845666 24.64106354 25.98981768     2    379   383   384   385
H 5.10038736 25.34818647 24.23262652     6    382    0    0    0
H 2.28703993 24.91958044 26.06283751     6    382    0    0    0
C 5.56882368 25.52308127 28.41001745     2    382   386   387   388
H 5.11350155 27.52896600 28.73710330     6    385    0    0    0
H 4.86989526 24.35141528 30.11434409     6    385    0    0    0
C 8.57050029 25.20252136 28.45212696     1    385   389   390   391
H 9.60403779 25.83895833 26.74713141     6    388    0    0    0
H 8.92280822 23.13290356 28.46025498     6    388    0    0    0
H 9.41011443 26.03871051 30.06748130     6    388    0    0    0
H -32.73822842 11.47869851 62.24338875     6     393    0    0    0 
C -32.52916443 9.62106756 61.44320853     1     392    394    395    396
H -30.66964079 8.94521413 62.15906789     6     393    0    0    0
H -34.23189871 8.69811208 62.16755540     6     393    0    0    0
C -32.37761014 9.98671607 58.54975459     2     393    397    398    399
H -33.67565641 11.49292693 57.87836336     6     396    0    0    0
H -30.50951761 11.03612835 58.12048784     6     396    0    0    0
C -33.06261656 7.46164613 57.11845288     2     396    400   401   402
H -31.85699879 5.91676964 57.68795010     6     399    0    0    0
H -34.96570546 6.91608339 57.69404459     6     399    0    0    0
C -32.57588225 7.68347889 54.15420664     2     399   403   404   405
H -33.77270613 9.20757022 53.53012535     6    402    0    0    0
H -30.86712211 8.30458844 53.44527765     6    402    0    0    0
C -33.37284041 5.31267987 52.57668590     2    402   406   407   408
H -32.00262624 3.91918674 53.07200625     6    405    0    0    0
H -35.04324429 4.36500444 53.47364503     6    405    0    0    0
C -33.30718182 5.83883532 49.74047077     2    405   409   410   411
H -34.89500013 7.12499194 49.60272919     6    408    0    0    0
H -31.57336409 6.89492804 49.27832831     6    408    0    0    0
C -33.50967299 3.41594905 48.22481325     2    408   412   413   414
H -32.04359179 1.97000427 48.54358232     6    411    0    0    0
H -35.22307844 2.52096349 48.78111918     6    411    0    0    0
C -33.26362832 4.04701370 45.35692789     2    411   415   416   417
H -34.14798327 5.77753810 44.80948395     6    414    0    0    0
H -31.28820597 4.07965323 45.06513562     6    414    0    0    0
C -34.20798480 1.74854347 43.82495818     2    414   418   419   420
H -33.33007531 0.06102109 44.38507037     6    417    0    0    0
H -36.20907007 1.49430257 44.08285356     6    417    0    0    0
C -33.72186860 1.86206793 41.06641934     2    417   421   422   423
H -34.65999787 3.45747549 40.24964342     6    420    0    0    0
H -31.76973948 1.99480851 40.44627040     6    420    0    0    0
C -34.81059201 -0.47345941 39.83277612     2    420   424   425   426
H -34.01580909 -0.82498424 38.00560178     6    423    0    0    0
H -34.03826489 -2.03755363 40.75710683     6    423    0    0    0
C -37.74708147 -0.32374759 39.60114696     1    423   427   428   429
H -38.41010603 -2.19914936 39.10682002     6    426    0    0    0
H -38.31671879 0.92841609 37.98221728     6    426    0    0    0
H -38.61214668 0.21093505 41.37209691     6    426    0    0    0
H -15.98196011 -8.36058416 39.46788572     6     431    0    0    0 
C -15.53653981 -7.28360205 41.22420357     1     430    432    433    434
H -14.58784664 -8.56553067 42.58363331     6     431    0    0    0
H -14.38401111 -5.60100194 40.79080778     6     431    0    0    0
C -17.86527543 -6.09931531 42.64756110     2     431    435    436    437
H -19.26451721 -5.20908070 41.43622802     6     434    0    0    0
H -18.76674116 -7.66893786 43.65720532     6     434    0    0    0
C -17.01887587 -4.13268645 44.53750141     2     434    438   439   440
H -15.75773492 -5.07583423 45.92865154     6     437    0    0    0
H -15.57422214 -2.77837871 43.73369960     6     437    0    0    0
C -19.19195519 -2.55448850 45.96817275     2     437   441   442   443
H -18.38570102 -1.17311831 47.20786808     6    440    0    0    0
H -20.02632649 -1.44640353 44.46846279     6    440    0    0    0
C -21.28061826 -4.14709477 47.46414030     2    440   444   445   446
H -22.13222434 -5.18323338 45.95518270     6    443    0    0    0
H -20.44058508 -5.57430259 48.64631289     6    443    0    0    0
C -23.28841419 -2.53411609 48.86446104     2    443   447   448   449
H -22.66704598 -1.37432075 50.40539378     6    446    0    0    0
H -24.21010952 -1.11215732 47.62169217     6    446    0    0    0
C -25.24539732 -4.28192993 50.11354334     2    446   450   451   452
H -25.95192004 -5.32938276 48.54806534     6    449    0    0    0
H -24.38959629 -5.66616589 51.30312224     6    449    0    0    0
C -27.38670069 -3.24037749 51.58507423     2    449   453   454   455
H -26.51208547 -2.30368401 53.14536059     6    452    0    0    0
H -28.41321687 -1.65336676 50.54129365     6    452    0    0    0
C -29.20815978 -5.34455423 52.23849409     2    452   456   457   458
H -30.18584533 -5.64506543 50.39280270     6    455    0    0    0
H -28.34971936 -7.20761476 52.59927392     6    455    0    0    0
C -30.77339089 -4.59833007 54.51829225     2    455   459   460   461
H -32.16907071 -6.09591171 54.86839757     6    458    0    0    0
H -29.42989884 -4.52521130 56.04898210     6    458    0    0    0
C -32.15435773 -2.06899341 54.19209142     2    458   462   463   464
H -30.79083571 -0.59101730 53.73466548     6    461    0    0    0
H -33.40794177 -2.12378425 52.63709538     6    461    0    0    0
C -33.33495989 -0.98722359 56.60830288     1    461   465   466   467
H -32.08930634 -1.35215695 58.28760925     6    464    0    0    0
H -35.28512324 -1.72669948 57.23494161     6    464    0    0    0
H -33.48377960 1.01583254 56.55432917     6    464    0    0    0
H 7.76229007 23.37068257 18.35944359     6     469    0    0    0 
C 9.32826167 22.01259838 17.77189069     1     468    470    471    472
H 10.09466993 22.70180061 16.01451526     6     469    0    0    0
H 10.51974039 22.32640592 19.24279568     6     469    0    0    0
C 8.50045682 19.30188257 17.52851379     2     469    473    474    475
H 10.04566713 18.12348814 16.79992371     6     472    0    0    0
H 7.93230014 18.51412759 19.33531635     6     472    0    0    0
C 6.28783808 19.27558257 15.65736084     2     472    476   477   478
H 5.05277570 20.82666618 16.25947056     6     475    0    0    0
H 7.19479528 19.58470576 13.73471262     6     475    0    0    0
C 4.67847248 16.77671631 15.69635576     2     475   479   480   481
H 5.96655644 15.30658288 14.97677819     6    478    0    0    0
H 4.34848688 16.19322320 17.78690890     6    478    0    0    0
C 2.20141936 16.99544747 14.11689833     2    478   482   483   484
H 1.06617248 18.68466406 14.47522470     6    481    0    0    0
H 2.80803579 17.26476282 12.07038066     6    481    0    0    0
C 0.47770857 14.59431349 13.89588193     2    481   485   486   487
H 1.75194398 13.02340346 13.35004196     6    484    0    0    0
H -0.26635583 14.24238984 15.75960644     6    484    0    0    0
C -1.69573332 14.94148508 11.87496374     2    484   488   489   490
H -2.87132449 16.50812489 12.59441172     6    487    0    0    0
H -0.72783545 15.71491938 10.15528625     6    487    0    0    0
C -3.32579523 12.58612794 11.24433163     2    487   491   492   493
H -2.14390335 10.89303390 11.16920869     6    490    0    0    0
H -4.44435349 12.23762331 12.82682346     6    490    0    0    0
C -5.02622884 12.59248370 8.87267209     2    490   494   495   496
H -6.07162268 14.28181942 8.94829889     6    493    0    0    0
H -3.92652733 12.61761382 7.14407893     6    493    0    0    0
C -6.87643870 10.29622279 8.63286613     2    493   497   498   499
H -5.90459049 8.59396980 9.17986899     6    496    0    0    0
H -8.38449205 10.51262879 9.92332857     6    496    0    0    0
C -7.83288001 9.89620391 5.98442210     2    496   500   501   502
H -8.76531335 11.63050110 5.40860801     6    499    0    0    0
H -6.30657661 9.67009708 4.47738036     6    499    0    0    0
C -9.64325097 7.56032561 5.82472243     1    499   503   504   505
H -10.30488151 7.26185084 3.97160310     6    502    0    0    0
H -11.46220465 7.64021020 6.87202080     6    502    0    0    0
H -8.66561084 5.88869000 6.53585569     6    502    0    0    0
H -27.90920758 -7.69049289 15.44729712     6     507    0    0    0 
C -28.09772555 -7.80428583 17.46567007     1     506    508    509    510
H -29.45687747 -6.40439491 17.93317726     6     507    0    0    0
H -28.85826406 -9.58884553 18.06598601     6     507    0    0    0
C -25.71884938 -6.84435257 18.84202474     2     507    511    512    513
H -24.34266235 -8.24307913 18.59043342     6     510    0    0    0
H -25.04108632 -5.05972485 18.06981946     6     510    0    0    0
C -26.10674130 -6.57090841 21.76558495     2     510    514   515   516
H -27.43964407 -5.03530278 22.14049215     6     513    0    0    0
H -26.81431487 -8.33951487 22.61662751     6     513    0    0    0
C -23.63091914 -6.16211465 23.14736503     2     513   517   518   519
H -22.42501063 -7.63975763 22.75157254     6    516    0    0    0
H -22.58113451 -4.45515968 22.40685070     6    516    0    0    0
C -23.94040754 -5.74128145 25.93234259     2    516   520   521   522
H -25.84079723 -4.93528005 26.24100323     6    519    0    0    0
H -23.97340128 -7.55447281 26.60879832     6    519    0    0    0
C -21.82612716 -4.37214313 27.18563291     2    519   523   524   525
H -20.19302788 -4.99021222 26.20673464     6    522    0    0    0
H -22.02961766 -2.46306194 26.70081581     6    522    0    0    0
C -21.58707468 -4.79465859 29.98845824     2    522   526   527   528
H -21.28404457 -6.82863010 30.33935963     6    525    0    0    0
H -20.02151828 -3.68579407 30.52749756     6    525    0    0    0
C -23.85665524 -3.77703721 31.52499017     2    525   529   530   531
H -24.07902527 -1.84658268 31.00645768     6    528    0    0    0
H -25.50766001 -4.62481492 30.85254031     6    528    0    0    0
C -23.46391830 -3.76678740 34.37767370     2    528   532   533   534
H -22.95524527 -5.71328572 34.80178902     6    531    0    0    0
H -21.74327430 -2.68397712 34.54361480     6    531    0    0    0
C -25.58578840 -2.70121247 36.00579695     2    531   535   536   537
H -26.67268215 -1.30018903 34.99555949     6    534    0    0    0
H -26.74328846 -4.33555382 36.73806385     6    534    0    0    0
C -24.51968111 -1.29874676 38.34413007     2    534   538   539   540
H -23.17574477 -2.60084370 39.23155018     6    537    0    0    0
H -23.44004637 0.28079495 37.71121000     6    537    0    0    0
C -26.64601878 -0.67147575 40.20901845     1    537   541   542   543
H -25.89220887 0.40183333 41.85463287     6    540    0    0    0
H -27.55848426 -2.41891978 41.03454359     6    540    0    0    0
H -28.15457007 0.32550985 39.18035926     6    540    0    0    0
H -22.03061458 11.19469231 48.30641452     6     545    0    0    0 
C -22.87306597 13.04283142 48.61286316     1     544    546    547    548
H -23.48171222 13.78669966 46.81886926     6     545    0    0    0
H -24.61487169 12.91545886 49.73472293     6     545    0    0    0
C -20.97176505 14.60648467 50.15799730     2     545    549    550    551
H -20.06966081 13.55889787 51.77765734     6     548    0    0    0
H -19.42160176 15.02462432 49.01121218     6     548    0    0    0
C -21.91870462 17.05312359 51.47202539     2     548    552   553   554
H -23.36122507 17.81997513 50.25558574     6     551    0    0    0
H -22.87396087 16.55884617 53.17149148     6     551    0    0    0
C -19.81170490 19.02556917 51.98698000     2     551   555   556   557
H -17.89761838 18.11083475 52.45755087     6    554    0    0    0
H -19.66700029 19.90765689 50.24564043     6    554    0    0    0
C -20.51367719 21.00715669 54.01757113     2    554   558   559   560
H -22.57885580 21.42601437 54.02587359     6    557    0    0    0
H -20.23007505 20.00959228 55.84047401     6    557    0    0    0
C -18.82762928 23.22446096 54.17429285     2    557   561   562   563
H -17.04324086 22.29166806 53.88039411     6    560    0    0    0
H -19.62047050 24.32076847 52.49160614     6    560    0    0    0
C -19.21107183 24.57122917 56.77516246     2    560   564   565   566
H -21.06265300 24.41403274 57.69281297     6    563    0    0    0
H -18.10680810 23.65388596 58.18435130     6    563    0    0    0
C -18.49674172 27.45933092 56.35122345     2    563   567   568   569
H -16.42764864 27.45561482 55.94893108     6    566    0    0    0
H -19.40918032 28.26155979 54.73281496     6    566    0    0    0
C -19.00900395 29.07919648 58.76979304     2    566   570   571   572
H -20.99089961 28.78998060 59.27600902     6    569    0    0    0
H -17.83272799 28.08019919 60.19087286     6    569    0    0    0
C -18.36911309 31.91466638 58.29346589     2    569   573   574   575
H -16.52234926 32.00630905 57.27671238     6    572    0    0    0
H -19.75239928 32.69482091 57.01774655     6    572    0    0    0
C -18.44808936 33.77669542 60.62828130     2    572   576   577   578
H -16.78913122 33.61146492 61.90872289     6    575    0    0    0
H -18.41475640 35.73354040 60.31698710     6    575    0    0    0
C -20.94032242 33.47818617 62.07881236     1    575   579   580   581
H -22.41888219 33.54613696 60.73627875     6    578    0    0    0
H -21.25603829 34.94985109 63.40556917     6    578    0    0    0
H -21.06475785 31.71280876 63.31215729     6    578    0    0    0
H 0.50687868 30.67575430 25.43242968     6     583    0    0    0 
C 0.52485552 32.38467478 26.56688667     1     582    584    585    586
H 2.07127875 33.67691873 25.79519550     6     583    0    0    0
H -1.30819566 33.41210675 26.17292225     6     583    0    0    0
C 1.09678174 31.95777225 29.26570152     2     583    587    588    589
H -0.21971611 30.45131009 29.89808107     6     586    0    0    0
H 3.07981196 31.37698738 29.32730923     6     586    0    0    0
C 0.45096683 34.36094642 30.87915068     2     586    590   591   592
H 1.88964756 35.80456278 30.95597740     6     589    0    0    0
H -1.25316094 35.25713748 29.99280849     6     589    0    0    0
C -0.12637668 33.80756752 33.55876734     2     589   593   594   595
H -1.68551672 32.30276566 33.63860142     6    592    0    0    0
H 1.53145915 32.95047298 34.42577068     6    592    0    0    0
C -1.02536486 36.09739398 34.91089371     2    592   596   597   598
H 0.34501387 37.60301042 34.98318990     6    595    0    0    0
H -2.64063568 36.75820732 33.68366000     6    595    0    0    0
C -1.91996665 35.38432107 37.60918443     2    595   599   600   601
H -3.43160163 33.85936193 37.58005273     6    598    0    0    0
H -0.16386858 34.63694659 38.45427205     6    598    0    0    0
C -2.82485947 37.61085952 39.05876858     2    598   602   603   604
H -1.67381822 39.26769100 38.79282004     6    601    0    0    0
H -4.46087701 38.17899511 38.17043153     6    601    0    0    0
C -3.39697781 37.15469142 41.86213540     2    601   605   606   607
H -4.65112503 35.55778480 42.22791529     6    604    0    0    0
H -1.56685540 36.54778137 42.47021217     6    604    0    0    0
C -4.25750773 39.74078900 43.04052472     2    604   608   609   610
H -2.98005567 41.20803403 42.46430014     6    607    0    0    0
H -6.24039331 40.14602011 42.35329978     6    607    0    0    0
C -4.43030749 39.68622467 45.92498494     2    607   611   612   613
H -5.10768618 37.79164519 46.19425667     6    610    0    0    0
H -2.47046002 39.94920084 46.49705242     6    610    0    0    0
C -6.30259567 41.66294416 47.16867718     2    610   614   615   616
H -6.01271025 43.53753964 46.29785606     6    613    0    0    0
H -8.17528128 41.19867995 46.71214971     6    613    0    0    0
C -6.18688926 41.64731297 50.08508979     1    613   617   618   619
H -7.19724377 43.15067287 51.02564237     6    616    0    0    0
H -4.07214184 41.92003413 50.60306277     6    616    0    0    0
H -6.83954263 39.86419457 50.93789147     6    616    0    0    0
H -36.75739743 25.56865308 37.21392182     6     621    0    0    0 
C -37.21322628 24.55526016 35.54341728     1     620    622    623    624
H -35.89489257 23.05916740 35.02811607     6     621    0    0    0
H -39.24240989 24.11143972 35.88757391     6     621    0    0    0
C -37.28660795 26.32909943 33.39835265     2     621    625    626    627
H -37.42271199 25.18882043 31.65010730     6     624    0    0    0
H -39.03876910 27.28842536 33.53437789     6     624    0    0    0
C -35.12815752 28.16806496 33.16398052     2     624    628   629   630
H -35.14132318 29.47741122 34.63766238     6     627    0    0    0
H -33.62786521 27.04415533 33.32964601     6     627    0    0    0
C -34.68810489 29.60657706 30.59128092     2     627   631   632   633
H -32.81416092 30.41263849 30.65787708     6    630    0    0    0
H -34.82660448 28.14606751 29.11206149     6    630    0    0    0
C -36.71640509 31.49799203 30.08695242     2    630   634   635   636
H -38.45355389 30.40899614 29.65649480     6    633    0    0    0
H -37.04733652 32.77669725 31.63581917     6    633    0    0    0
C -36.26182607 32.82200812 27.57742997     2    633   637   638   639
H -34.82715951 34.24998376 27.78216978     6    636    0    0    0
H -35.53060769 31.44613047 26.10394519     6    636    0    0    0
C -38.68579443 34.07745608 26.38413534     2    636   640   641   642
H -39.76353744 32.79850295 25.31709658     6    639    0    0    0
H -39.89811029 34.80056266 27.91631751     6    639    0    0    0
C -38.19675504 36.10895477 24.42252963     2    639   643   644   645
H -37.17280660 37.63140279 25.30413996     6    642    0    0    0
H -36.94414735 35.33583400 23.05408278     6    642    0    0    0
C -40.65565420 37.29570146 23.27704233     2    642   646   647   648
H -40.03301834 38.51880104 21.80020791     6    645    0    0    0
H -41.94095568 36.03878261 22.32694175     6    645    0    0    0
C -41.98790871 39.29267776 24.72191430     2    645   649   650   651
H -42.48642708 38.55283993 26.59503245     6    648    0    0    0
H -40.54221817 40.80046921 25.21554022     6    648    0    0    0
C -44.37035656 40.46529290 23.44615911     2    648   652   653   654
H -43.66954996 41.12963617 21.62291961     6    651    0    0    0
H -45.63426610 38.94389222 22.89434041     6    651    0    0    0
C -45.64206579 42.32718619 25.19046041     1    651   655   656   657
H -46.53919122 41.42848544 26.91663276     6    654    0    0    0
H -47.18368636 43.14578548 24.05005191     6    654    0    0    0
H -44.48330067 44.04140720 25.62203490     6    654    0    0    0
H -8.57368244 33.83133658 32.49789902     6     659    0    0    0 
C -9.10898247 33.80574881 34.50210847     1     658    660    661    662
H -10.54440016 32.35442731 34.60056534     6     659    0    0    0
H -7.65142643 32.81548000 35.70396686     6     659    0    0    0
C -10.03352279 36.37804646 35.20624739     2     659    663    664    665
H -8.18461603 37.32012679 35.67362592     6     662    0    0    0
H -10.93038101 37.47117445 33.69314486     6     662    0    0    0
C -11.83334370 36.54902043 37.53954472     2     662    666   667   668
H -11.98170555 38.54041869 37.53242914     6     665    0    0    0
H -13.75153444 35.78704708 37.05420354     6     665    0    0    0
C -10.58711609 35.65787742 39.93674788     2     665   669   670   671
H -10.33861587 33.52540649 39.93436054     6    668    0    0    0
H -8.64465061 36.49234023 39.92655290     6    668    0    0    0
C -12.00231783 36.63164692 42.27225469     2    668   672   673   674
H -11.88680353 38.67570669 42.24956523     6    671    0    0    0
H -14.02964463 35.84987180 42.02740143     6    671    0    0    0
C -10.98796133 35.70895390 44.77017090     2    671   675   676   677
H -11.57998022 33.70261662 44.68440486     6    674    0    0    0
H -8.97856223 35.88135794 45.10197049     6    674    0    0    0
C -12.39599037 36.87250790 47.18635888     2    674   678   679   680
H -10.89123321 37.58612822 48.47879083     6    677    0    0    0
H -13.38620428 38.61859120 46.71737702     6    677    0    0    0
C -14.21536751 34.95419814 48.35022421     2    677   681   682   683
H -15.76649177 34.83547023 46.95266646     6    680    0    0    0
H -13.51249821 33.08189792 48.64131462     6    680    0    0    0
C -15.75845508 36.14637243 50.52468643     2    680   684   685   686
H -16.05650889 38.19850810 50.15617970     6    683    0    0    0
H -17.64969343 35.33191023 50.95981907     6    683    0    0    0
C -14.32012532 35.87928286 53.00985307     2    683   687   688   689
H -14.32820495 33.92045937 53.68417763     6    686    0    0    0
H -12.31191627 35.85609096 52.49151760     6    686    0    0    0
C -14.85198003 37.83613443 55.08905974     2    686   690   691   692
H -15.29366667 39.49799484 54.11843112     6    689    0    0    0
H -16.68974749 37.30004312 56.01102813     6    689    0    0    0
C -12.78516470 38.04833714 57.01804423     1    689   693   694   695
H -12.46761190 36.36146294 58.15552171     6    692    0    0    0
H -13.34185927 39.45723506 58.54855869     6    692    0    0    0
H -10.97240755 38.58469859 56.17130758     6    692    0    0    0
H -30.25302390 29.97690705 73.78218547     6     697    0    0    0 
C -28.89291399 29.57619963 72.31325217     1     696    698    699    700
H -29.46260922 30.05161438 70.42720698     6     697    0    0    0
H -27.16620354 30.70000001 72.70128070     6     697    0    0    0
C -28.30383513 26.74183265 71.93945044     2     697    701    702    703
H -27.07535673 26.01993257 73.37581381     6     700    0    0    0
H -30.02847304 25.51800031 72.26726638     6     700    0    0    0
C -27.40744752 26.05527149 69.36450549     2     700    704   705   706
H -28.98846138 26.60366714 68.07567406     6     703    0    0    0
H -25.84926006 27.13642061 68.86774616     6     703    0    0    0
C -26.69135423 23.18222775 69.32416026     2     703   707   708   709
H -24.92561920 23.06929150 70.13021779     6    706    0    0    0
H -27.78413343 22.06700910 70.71732824     6    706    0    0    0
C -27.01174514 21.98557845 66.71427999     2    706   710   711   712
H -28.99168133 21.41549935 66.39606519     6    709    0    0    0
H -26.67096303 23.45528922 65.25617544     6    709    0    0    0
C -25.24236652 19.66113218 66.35537105     2    709   713   714   715
H -25.33708435 19.10953291 64.39740682     6    712    0    0    0
H -23.32860390 20.47127302 66.55503681     6    712    0    0    0
C -25.52780205 17.46570217 68.08588851     2    712   716   717   718
H -25.61773585 18.20707571 70.09142479     6    715    0    0    0
H -27.36577733 16.66903987 67.73774016     6    715    0    0    0
C -23.48208596 15.48709121 67.49831542     2    715   719   720   721
H -23.08249759 15.24380747 65.43412810     6    718    0    0    0
H -21.69902596 16.10408629 68.29740091     6    718    0    0    0
C -24.10741910 12.85389483 68.48368713     2    718   722   723   724
H -24.58101234 12.84632725 70.48921214     6    721    0    0    0
H -26.03152213 12.23664542 67.76176230     6    721    0    0    0
C -22.08638423 10.96297443 67.78393135     2    721   725   726   727
H -20.20120553 11.63774106 68.20926310     6    724    0    0    0
H -22.38555412 9.40948780 69.08540625     6    724    0    0    0
C -22.36285582 10.15808135 65.10086514     2    724   728   729   730
H -22.96260674 11.56096922 63.58120161     6    727    0    0    0
H -20.73198732 9.11319623 64.46746777     6    727    0    0    0
C -24.52530210 8.12119132 64.74715371     1    727   731   732   733
H -24.41829289 7.84689320 62.70474772     6    730    0    0    0
H -26.41955805 8.84720225 65.11658928     6    730    0    0    0
H -23.96297809 6.41415962 65.66286359     6    730    0    0    0
H -0.51058198 9.13473897 40.46176199     6     735    0    0    0 
C 1.16954048 9.54472178 39.58269691     1     734    736    737    738
H 2.50907598 10.13136259 40.98423333     6     735    0    0    0
H 2.18793806 7.94747328 38.73548045     6     735    0    0    0
C 0.95344159 11.54463592 37.51083802     2     735    739    740    741
H 0.10328767 13.29827255 38.24610425     6     738    0    0    0
H 2.76664551 11.94649672 36.88776955     6     738    0    0    0
C -0.83911321 10.54405870 35.43849529     2     738    742   743   744
H 0.01077527 8.93327035 34.55885594     6     741    0    0    0
H -2.48783769 9.65617241 36.41210104     6     741    0    0    0
C -1.98021777 12.73386864 33.88863737     2     741   745   746   747
H -3.00925967 13.83116033 35.33700643     6    744    0    0    0
H -0.35333308 13.82632438 33.27676620     6    744    0    0    0
C -3.65493023 11.95702386 31.58901608     2    744   748   749   750
H -5.13336990 10.67135652 32.34214140     6    747    0    0    0
H -4.53940386 13.72680275 30.90432738     6    747    0    0    0
C -2.15027504 10.71150312 29.33462711     2    747   751   752   753
H -0.43984697 11.88913198 29.12224401     6    750    0    0    0
H -1.63990064 8.77514860 30.00342407     6    750    0    0    0
C -3.75692380 10.71849917 26.93061986     2    750   754   755   756
H -5.53398132 9.62284949 27.18661323     6    753    0    0    0
H -4.11235045 12.64639384 26.46767388     6    753    0    0    0
C -2.39815029 9.46496385 24.72034321     2    753   757   758   759
H -0.55215482 10.32546027 24.55329084     6    756    0    0    0
H -2.08622254 7.41711091 25.13370853     6    756    0    0    0
C -4.01145068 9.61819629 22.24001955     2    756   760   761   762
H -5.84976082 9.26412338 22.92999636     6    759    0    0    0
H -4.29514338 11.40399345 21.39815567     6    759    0    0    0
C -3.42431500 7.69398337 20.12998502     2    759   763   764   765
H -1.44968644 7.61511900 19.46425594     6    762    0    0    0
H -3.86341064 5.83860711 21.02480103     6    762    0    0    0
C -5.27011866 7.83159761 17.97305656     2    762   766   767   768
H -7.20996250 7.39500791 18.76346695     6    765    0    0    0
H -5.45891312 9.76067969 17.21804886     6    765    0    0    0
C -4.26342524 6.06065689 15.89286745     1    765   769   770   771
H -2.53495752 6.63267266 15.28219914     6    768    0    0    0
H -5.28290825 6.42935879 14.10151827     6    768    0    0    0
H -4.45020636 4.10433369 16.34902048     6    768    0    0    0
H -41.59927718 18.25395266 34.55689664     6     773    0    0    0 
C -41.50324638 18.08937920 32.45452731     1     772    774    775    776
H -42.90735636 19.28553118 31.58605695     6     773    0    0    0
H -39.62775427 18.88651133 32.09865748     6     773    0    0    0
C -41.43946180 15.34175950 31.52809887     2     773    777    778    779
H -41.48171826 15.24752547 29.45201359     6     776    0    0    0
H -39.73464696 14.55077763 32.21437145     6     776    0    0    0
C -43.46574682 13.79634971 32.95463591     2     776    780   781   782
H -43.39543332 14.34718548 34.95428001     6     779    0    0    0
H -45.24092133 14.60364693 32.31627883     6     779    0    0    0
C -43.23135561 10.89312062 32.92805617     2     779   783   784   785
H -44.58046884 9.88146568 31.73092448     6    782    0    0    0
H -41.20792817 10.44908204 32.30648637     6    782    0    0    0
C -43.83528818 9.75869123 35.54791476     2    782   786   787   788
H -42.31960704 10.32854048 37.02322734     6    785    0    0    0
H -45.72323714 10.50292991 36.22282619     6    785    0    0    0
C -43.75972367 6.82410843 35.73320729     2    785   789   790   791
H -44.55427422 5.91321333 33.94013397     6    788    0    0    0
H -41.71671186 6.50138314 35.83223206     6    788    0    0    0
C -45.44621928 5.54152190 37.55010479     2    788   792   793   794
H -45.57845783 6.21542183 39.54010376     6    791    0    0    0
H -47.33682384 5.70711892 36.84495252     6    791    0    0    0
C -44.62919676 2.75713756 37.89452151     2    791   795   796   797
H -44.41893978 1.85144685 36.07505302     6    794    0    0    0
H -42.85238511 2.89900587 38.82069843     6    794    0    0    0
C -46.33818315 1.23934405 39.67969308     2    794   798   799   800
H -46.28991933 1.72572293 41.64211396     6    797    0    0    0
H -48.08558092 1.87096523 39.21033074     6    797    0    0    0
C -45.78589022 -1.65100244 39.21886642     2    797   801   802   803
H -46.63005298 -2.42359533 37.35184952     6    800    0    0    0
H -43.79243946 -2.33717487 39.07135167     6    800    0    0    0
C -47.24453108 -3.34628753 41.09480347     2    800   804   805   806
H -46.49550434 -2.90036553 42.98599120     6    803    0    0    0
H -49.20641148 -2.97617572 41.23261053     6    803    0    0    0
C -46.83271480 -6.06224372 40.25175213     1    803   807   808   809
H -47.48956124 -7.29193028 41.80327480     6    806    0    0    0
H -44.89791560 -6.29463709 40.09916939     6    806    0    0    0
H -47.91168957 -6.63530948 38.49288273     6    806    0    0    0
H -2.59418984 27.17204285 26.73200143     6     811    0    0    0 
C -4.02176750 26.59533500 27.99845513     1     810    812    813    814
H -3.44734472 24.61496987 28.30203852     6     811    0    0    0
H -3.67935448 27.91766665 29.51128959     6     811    0    0    0
C -6.66141576 26.74027646 26.78836201     2     811    815    816    817
H -7.88185927 27.13865303 28.26965386     6     814    0    0    0
H -6.55843886 28.37777929 25.67631728     6     814    0    0    0
C -7.56585526 24.24260374 25.30810740     2     814    818   819   820
H -6.07588034 23.60197703 23.97894002     6     817    0    0    0
H -7.80084302 22.63177784 26.65109369     6     817    0    0    0
C -10.39364553 24.34312312 24.38157414     2     817   821   822   823
H -11.83274926 24.14388778 25.88476236     6    820    0    0    0
H -10.68167179 26.08397165 23.13646489     6    820    0    0    0
C -10.96216240 22.15268126 22.59010999     2    820   824   825   826
H -9.54848216 22.06376991 21.09823824     6    823    0    0    0
H -10.52879345 20.42300147 23.71962617     6    823    0    0    0
C -13.69118952 22.27844862 21.66627783     2    823   827   828   829
H -14.82851303 22.09430504 23.31556811     6    826    0    0    0
H -14.20867392 24.03843071 20.68993624     6    826    0    0    0
C -14.33027136 20.21646939 19.72777349     2    826   830   831   832
H -12.84326425 20.39032498 18.43186735     6    829    0    0    0
H -14.04742091 18.46703487 20.80009751     6    829    0    0    0
C -16.97738981 20.13004173 18.70925752     2    829   833   834   835
H -18.42740131 20.40004225 20.20117092     6    832    0    0    0
H -17.15289276 21.80594886 17.43765576     6    832    0    0    0
C -17.84461485 17.89042845 17.04010711     2    832   836   837   838
H -16.72923788 17.41213821 15.54576899     6    835    0    0    0
H -17.85478266 16.15134110 18.13192168     6    835    0    0    0
C -20.55281397 18.50658272 15.80824510     2    835   839   840   841
H -21.95766401 18.18908884 17.20645581     6    838    0    0    0
H -20.49821688 20.52273224 15.25034719     6    838    0    0    0
C -20.90071864 17.00431896 13.33342049     2    838   842   843   844
H -19.79364878 18.04841749 11.99688454     6    841    0    0    0
H -19.98938269 15.27513085 13.46294576     6    841    0    0    0
C -23.62765792 16.95932568 12.53008488     1    841   845   846   847
H -24.51040770 18.76162064 13.24624705     6    844    0    0    0
H -24.78411752 15.50910648 13.30989406     6    844    0    0    0
H -23.73900033 17.10339233 10.45041825     6    844    0    0    0
H -11.00286078 50.06053818 52.43089737     6     849    0    0    0 
C -12.67257563 48.74472736 52.49575907     1     848    850    851    852
H -12.76654044 47.75882397 54.39032822     6     849    0    0    0
H -14.25287940 49.88981151 52.24009349     6     849    0    0    0
C -12.35325846 46.82251775 50.44733813     2     849    853    854    855
H -10.64925402 45.68008751 50.65281564     6     852    0    0    0
H -13.91357476 45.49549444 50.78269021     6     852    0    0    0
C -12.69969972 47.57224652 47.71758019     2     852    856   857   858
H -14.60958373 48.43469775 47.33183039     6     855    0    0    0
H -11.29919546 49.11478599 47.45852440     6     855    0    0    0
C -12.09567743 45.45723010 45.70687783     2     855   859   860   861
H -10.50901209 44.38892967 46.19579670     6    858    0    0    0
H -13.71715824 44.04539127 45.61551416     6    858    0    0    0
C -11.64961543 46.79956090 43.15802629     2    858   862   863   864
H -13.19250213 47.99825454 42.63334927     6    861    0    0    0
H -9.96290203 48.08984624 43.28688293     6    861    0    0    0
C -11.17143029 44.70482977 41.07836454     2    861   865   866   867
H -10.46318218 42.92402868 41.83531685     6    864    0    0    0
H -13.07094315 44.28133128 40.16618402     6    864    0    0    0
C -9.51121751 45.80782066 38.95973949     2    864   868   869   870
H -10.64990828 47.37713147 38.27298514     6    867    0    0    0
H -7.67763387 46.27313459 39.74906924     6    867    0    0    0
C -9.24091576 43.96742978 36.79050902     2    867   871   872   873
H -7.92207050 42.58250558 37.40864555     6    870    0    0    0
H -11.09383599 43.02838236 36.81314100     6    870    0    0    0
C -8.50151016 45.13562178 34.24055800     2    870   874   875   876
H -8.85120295 43.69115764 32.77041203     6    873    0    0    0
H -9.66091550 46.67020329 33.67796392     6    873    0    0    0
C -5.51642124 45.78931199 34.06162366     2    873   877   878   879
H -5.34933818 46.97611671 35.67130225     6    876    0    0    0
H -4.27804790 44.25411426 34.24844410     6    876    0    0    0
C -4.89096396 47.59151326 31.92742804     2    876   880   881   882
H -5.72854415 49.38016521 32.31176044     6    879    0    0    0
H -2.84009957 48.07422819 31.97999055     6    879    0    0    0
C -5.60968714 46.49635443 29.46212557     1    879   883   884   885
H -7.73748255 46.30284536 29.44269858     6    882    0    0    0
H -4.80195003 44.74528571 29.19275335     6    882    0    0    0
H -5.18665617 47.78180763 27.85155495     6    882    0    0    0
H -21.27877878 17.63695452 22.44134890     6     887    0    0    0 
C -22.91378592 17.53913091 23.73340826     1     886    888    889    890
H -23.94699599 19.21935444 23.25842399     6     887    0    0    0
H -23.94010821 15.82893939 23.47031204     6     887    0    0    0
C -21.66108754 17.49677425 26.33570919     2     887    891    892    893
H -23.09047598 17.49030474 27.79576792     6     890    0    0    0
H -20.70053375 15.70004649 26.34257780     6     890    0    0    0
C -19.68917309 19.65664736 26.57223405     2     890    894   895   896
H -18.54525392 19.50693937 24.92534567     6     893    0    0    0
H -20.70440793 21.51358243 26.54522997     6     893    0    0    0
C -18.13986721 19.49717227 29.03883244     2     893   897   898   899
H -19.32247984 19.81960788 30.61001041     6    896    0    0    0
H -17.43947129 17.56902577 29.33439686     6    896    0    0    0
C -15.81154989 21.47212758 29.11666489     2    896   900   901   902
H -14.71012814 20.91880187 27.42848969     6    899    0    0    0
H -16.34488188 23.34153349 28.53708414     6    899    0    0    0
C -14.05700311 21.32602959 31.59846812     2    899   903   904   905
H -15.35374097 21.84399526 33.16294538     6    902    0    0    0
H -13.20494542 19.34571498 31.81130867     6    902    0    0    0
C -11.99863939 23.44992096 31.47838457     2    902   906   907   908
H -10.82138304 23.04016414 29.81615663     6    905    0    0    0
H -12.60957125 25.28334299 30.97590979     6    905    0    0    0
C -10.54308292 23.88292398 34.04948597     2    905   909   910   911
H -11.82931732 24.57521771 35.70399232     6    908    0    0    0
H -9.96049200 22.05802418 34.83829865     6    908    0    0    0
C -8.29000601 25.49540797 33.63975109     2    908   912   913   914
H -6.88930070 24.52674125 32.43631336     6    911    0    0    0
H -9.01420734 27.15154884 32.64319635     6    911    0    0    0
C -7.12043006 25.89535297 36.19824458     2    911   915   916   917
H -8.42126856 26.91523779 37.42177716     6    914    0    0    0
H -6.58000034 24.16791380 37.26375713     6    914    0    0    0
C -4.75572286 27.48114755 35.82540813     2    914   918   919   920
H -3.51739605 26.47004319 34.58318881     6    917    0    0    0
H -5.29347222 29.35734361 34.94119702     6    917    0    0    0
C -3.67830185 28.22260224 38.34836613     1    917   921   922   923
H -2.07973072 29.52173923 38.06241642     6    920    0    0    0
H -2.91664306 26.45125382 39.03640183     6    920    0    0    0
H -5.09613380 29.19440721 39.55061565     6    920    0    0    0
H -26.78390709 51.46382436 32.88568331     6     925    0    0    0 
C -27.88297580 49.72711520 32.71047658     1     924    926    927    928
H -29.13960775 49.69703811 34.25857852     6     925    0    0    0
H -28.90949683 50.04462679 31.03668896     6     925    0    0    0
C -26.16583189 47.35620168 32.83827295     2     925    929    930    931
H -25.34576861 47.17125514 34.68728077     6     928    0    0    0
H -27.17768757 45.65163298 32.40908610     6     928    0    0    0
C -23.96593976 47.77737864 31.08328445     2     928    932   933   934
H -24.59345186 48.16428747 29.01694175     6     931    0    0    0
H -22.98490481 49.55035604 31.46261146     6     931    0    0    0
C -22.27060556 45.41453234 30.81124703     2     931   935   936   937
H -21.63853518 45.00678407 32.76689685     6    934    0    0    0
H -23.43236351 43.90702021 29.95429623     6    934    0    0    0
C -19.97368910 45.76066520 29.01659904     2    934   938   939   940
H -20.65530613 46.24498333 27.16939342     6    937    0    0    0
H -18.67244033 47.38707298 29.57197747     6    937    0    0    0
C -18.38801066 43.20648587 28.63506609     2    937   941   942   943
H -17.68289033 42.65371429 30.51844877     6    940    0    0    0
H -19.80067395 41.81367778 27.91962275     6    940    0    0    0
C -15.93391340 43.33599048 26.97352461     2    940   944   945   946
H -16.11763416 44.26649021 25.24139397     6    943    0    0    0
H -14.53158449 44.43468226 28.03250624     6    943    0    0    0
C -14.93570999 40.75062577 26.58153779     2    943   947   948   949
H -14.75350267 39.75045273 28.38744138     6    946    0    0    0
H -16.06432941 39.74394944 25.17777089     6    946    0    0    0
C -12.33182646 40.61809247 25.39837915     2    946   950   951   952
H -11.94112533 38.67426620 24.99123554     6    949    0    0    0
H -12.47209772 41.64712006 23.57722698     6    949    0    0    0
C -10.02136422 41.29746663 26.91403388     2    949   953   954   955
H -9.76307795 43.26915801 26.64993484     6    952    0    0    0
H -10.54209647 40.90944824 28.90036383     6    952    0    0    0
C -7.64191873 39.84403105 26.25153908     2    952   956   957   958
H -6.42004276 39.90425003 27.84589587     6    955    0    0    0
H -7.88841228 37.84066769 25.85812741     6    955    0    0    0
C -6.23905289 41.27710703 24.03852372     1    955   959   960   961
H -4.20520736 40.75137133 24.08610740     6    958    0    0    0
H -6.12765778 43.31993504 24.16414754     6    958    0    0    0
H -6.69717536 40.58420604 22.20951544     6    958    0    0    0
H -13.67884729 2.55289288 36.78618197     6     963    0    0    0 
C -15.20423079 3.13174113 35.58231050     1     962    964    965    966
H -14.77626047 5.05872690 35.18015806     6     963    0    0    0
H -15.06690205 1.87489229 33.99241283     6     963    0    0    0
C -17.60337879 2.78893352 37.03742853     2     963    967    968    969
H -19.10918079 3.22285365 35.68288053     6     966    0    0    0
H -17.87667482 0.79266846 37.47438093     6     966    0    0    0
C -17.82999609 4.48073573 39.30969087     2     966    970   971   972
H -16.14698022 4.28309643 40.56033557     6     969    0    0    0
H -18.12492711 6.38483731 38.72073547     6     969    0    0    0
C -20.20072666 3.62380316 40.93580798     2     969   973   974   975
H -21.95245403 4.03093989 39.95347306     6    972    0    0    0
H -20.32269560 1.55409719 41.14020462     6    972    0    0    0
C -20.23721966 5.03327959 43.36889730     2    972   976   977   978
H -18.42569791 4.85125533 44.33942228     6    975    0    0    0
H -20.26168410 6.96898845 43.13952008     6    975    0    0    0
C -22.49638524 4.10227116 45.02763439     2    975   979   980   981
H -24.36237766 4.47319483 44.17986560     6    978    0    0    0
H -22.42651336 2.11072823 45.11732069     6    978    0    0    0
C -22.60211676 5.22432814 47.65162789     2    978   982   983   984
H -21.40450025 4.11067881 48.88773838     6    981    0    0    0
H -22.14533126 7.19198032 47.59325263     6    981    0    0    0
C -25.30590868 4.67389527 48.60280197     2    981   985   986   987
H -26.61449711 6.23783065 48.03956628     6    984    0    0    0
H -26.30389905 2.93020442 47.95837742     6    984    0    0    0
C -25.45378061 4.76670350 51.41733015     2    984   988   989   990
H -27.63252265 4.57323235 51.77693356     6    987    0    0    0
H -24.22440870 3.25594839 52.26907563     6    987    0    0    0
C -24.87180343 7.45797242 52.56557652     2    987   991   992   993
H -22.89214623 8.03713524 52.32207130     6    990    0    0    0
H -25.83403525 8.80119097 51.41211321     6    990    0    0    0
C -25.24724235 7.52031319 55.40693458     2    990   994   995   996
H -27.13171577 6.84834710 55.86007613     6    993    0    0    0
H -23.99493121 6.23699828 56.31697498     6    993    0    0    0
C -24.85601761 10.19305774 56.50102793     1    993   997   998   999
H -23.10422006 11.11701044 56.11293102     6    996    0    0    0
H -25.18164215 10.25580987 58.52396800     6    996    0    0    0
H -26.31783550 11.51259943 55.81436286     6    996    0    0    0
H -15.87406287 -5.22518076 23.97388876     6     1001    0    0    0 
C -14.25999597 -4.81606441 25.24316787     1     1000    1002    1003    1004
H -12.66863659 -5.95433876 24.67108172     6     1001    0    0    0
H -13.64217121 -2.98114366 25.05728814     6     1001    0    0    0
C -14.89503434 -5.47359943 27.90615252     2     1001    1005    1006    1007
H -16.50072911 -4.28498890 28.46940614     6     1004    0    0    0
H -15.44564688 -7.44315911 27.86821468     6     1004    0    0    0
C -12.58056681 -5.12327194 29.56625375     2     1004    1008   1009   1010
H -11.18385910 -6.33906439 28.85262244     6     1007    0    0    0
H -11.93492350 -3.26124334 29.23881113     6     1007    0    0    0
C -12.98493513 -5.15467466 32.38782315     2     1007   1011   1012   1013
H -14.21079509 -3.45020457 33.03164470     6    1010    0    0    0
H -13.86487312 -7.02048898 32.89360849     6    1010    0    0    0
C -10.40546228 -5.18006174 33.80965185     2    1010   1014   1015   1016
H -9.41854908 -7.07400523 33.99205659     6    1013    0    0    0
H -9.21043444 -3.75067586 32.77580985     6    1013    0    0    0
C -10.74968691 -4.51527815 36.51536411     2    1013   1017   1018   1019
H -12.11652903 -3.04144657 36.83457693     6    1016    0    0    0
H -11.39597548 -6.21321569 37.43298007     6    1016    0    0    0
C -8.47640351 -3.75472834 37.98112263     2    1016   1020   1021   1022
H -7.23376316 -5.39856837 37.94849803     6    1019    0    0    0
H -7.61883177 -2.31382573 36.90143420     6    1019    0    0    0
C -8.87706617 -2.88769738 40.63652809     2    1019   1023   1024   1025
H -9.53385763 -4.36760026 41.86755662     6    1022    0    0    0
H -7.06976498 -2.36887475 41.52483733     6    1022    0    0    0
C -10.54210599 -0.55654322 40.94009324     2    1022   1026   1027   1028
H -9.88312732 0.98395513 39.68569852     6    1025    0    0    0
H -12.40594352 -1.08952821 40.28879427     6    1025    0    0    0
C -10.79935183 0.45589809 43.68281398     2    1025   1029   1030   1031
H -10.89153330 -1.03032649 45.03650553     6    1028    0    0    0
H -8.97514381 1.51101497 44.15963838     6    1028    0    0    0
C -12.95000679 2.32276215 43.98098078     2    1028   1032   1033   1034
H -12.62208441 3.69938673 42.34998273     6    1031    0    0    0
H -14.66053233 1.28281921 43.52739081     6    1031    0    0    0
C -12.89780222 3.58073866 46.53401077     1    1031   1035   1036   1037
H -14.51566441 4.88859379 46.98591570     6    1034    0    0    0
H -11.31771515 4.77262905 46.99923540     6    1034    0    0    0
H -13.02990253 1.90395476 47.88859330     6    1034    0    0    0
H -32.33841532 15.93279620 28.96138430     6     1039    0    0    0 
C -33.83981588 17.34707862 29.04507103     1     1038    1040    1041    1042
H -35.72024841 16.55859672 29.41265175     6     1039    0    0    0
H -33.66613055 18.68360354 30.52909271     6     1039    0    0    0
C -33.74066104 18.53556569 26.26633637     2     1039    1043    1044    1045
H -31.74250016 19.23204582 25.99039859     6     1042    0    0    0
H -34.19617988 16.86831348 25.05909313     6     1042    0    0    0
C -35.57896568 20.66847685 25.94380508     2     1042    1046   1047   1048
H -37.61562377 20.15167970 25.98049159     6     1045    0    0    0
H -35.32566369 21.87903395 27.62788612     6     1045    0    0    0
C -34.87615960 22.01197234 23.51871378     2     1045   1049   1050   1051
H -32.85161948 22.53224697 23.53327572     6    1048    0    0    0
H -35.14352906 20.75685940 21.99303396     6    1048    0    0    0
C -36.32431230 24.47829798 23.07246835     2    1048   1052   1053   1054
H -38.31847463 23.98522054 22.79971194     6    1051    0    0    0
H -36.41895727 25.55647815 24.91171292     6    1051    0    0    0
C -35.17138517 26.10102988 20.90559925     2    1051   1055   1056   1057
H -33.43376752 26.74580401 21.67315513     6    1054    0    0    0
H -34.16513935 24.82769438 19.47443208     6    1054    0    0    0
C -36.55969133 28.30320892 19.57799129     2    1054   1058   1059   1060
H -38.25581182 27.65546266 18.69211304     6    1057    0    0    0
H -37.33843869 29.67177334 20.96097896     6    1057    0    0    0
C -34.69065600 29.54041265 17.65108556     2    1057   1061   1062   1063
H -32.74315500 29.99026736 18.29502712     6    1060    0    0    0
H -34.45588293 28.14545802 16.20153291     6    1060    0    0    0
C -35.81964101 31.96626564 16.51400805     2    1060   1064   1065   1066
H -37.37361843 31.50948531 15.27861886     6    1063    0    0    0
H -36.16693951 33.23112510 18.04918976     6    1063    0    0    0
C -33.85610093 33.42620083 14.80558303     2    1063   1067   1068   1069
H -32.14912163 33.79910433 15.90330607     6    1066    0    0    0
H -33.28686610 32.41566207 13.15545678     6    1066    0    0    0
C -35.13425173 35.94661720 13.90828546     2    1066   1070   1071   1072
H -37.10453699 35.47862973 13.21941363     6    1069    0    0    0
H -35.34678884 37.10030836 15.55932825     6    1069    0    0    0
C -33.42677821 37.19928478 11.95955577     1    1069   1073   1074   1075
H -34.10351681 39.04688247 11.32712053     6    1072    0    0    0
H -33.33968670 36.23559163 10.23191903     6    1072    0    0    0
H -31.46854605 37.24452528 12.58848733     6    1072    0    0    0
H -30.17918047 46.99618253 27.07325904     6     1077    0    0    0 
C -31.05350547 46.32182079 25.32481697     1     1076    1078    1079    1080
H -32.18656633 44.77306833 25.69943432     6     1077    0    0    0
H -32.45394325 47.74347546 24.59921700     6     1077    0    0    0
C -28.99399915 45.56460711 23.52443177     2     1077    1081    1082    1083
H -29.74740186 45.27539751 21.61717168     6     1080    0    0    0
H -27.96659856 47.30583898 23.21629537     6     1080    0    0    0
C -27.25716323 43.49411278 24.56078252     2     1080    1084   1085   1086
H -26.12317487 44.40414747 26.02335488     6     1083    0    0    0
H -28.00208063 41.94929720 25.51149695     6     1083    0    0    0
C -25.75148031 42.44781678 22.32127418     2     1083   1087   1088   1089
H -26.74798529 41.37919766 20.95457838     6    1086    0    0    0
H -24.44937587 43.78350931 21.61015950     6    1086    0    0    0
C -24.03997496 40.29433336 23.31062162     2    1086   1090   1091   1092
H -23.30786705 40.60269833 25.20081332     6    1089    0    0    0
H -25.25168726 38.73165195 23.59698282     6    1089    0    0    0
C -21.88200491 39.45947838 21.67063109     2    1089   1093   1094   1095
H -22.43235254 39.23423542 19.74999120     6    1092    0    0    0
H -20.33824551 40.68413224 21.40467356     6    1092    0    0    0
C -20.80167526 37.05247561 22.78378807     2    1092   1096   1097   1098
H -19.84559229 37.40022086 24.53995647     6    1095    0    0    0
H -22.42175064 35.93767411 23.24136164     6    1095    0    0    0
[...]
 1619      H     -53.2349999000     9.8968618300    29.9102726800
 1620      H     -52.1219410300     7.7555993700    28.0251198700
 1621      C     -50.8196448900     7.0034859600    31.7523844400
 1622      H     -49.0024974700     6.1106035100    31.1386599400
 1623      H     -50.3536352700     8.0915668800    33.4011224400
 1624      C     -52.9037059400     5.1427611900    32.5526017600
 1625      H     -54.3352926900     6.3757083100    33.2702622100
 1626      H     -53.4171270200     3.9680439900    31.0835542100
 1627      C     -51.8301193600     3.5731029900    34.7758367200
 1628      H     -49.8758127200     2.9770889200    34.4965396700
 1629      H     -52.0302815600     4.6195135000    36.5636321100
 1630      C     -53.5206057700     1.2890580100    35.1146325900
 1631      H     -55.5736146600     1.7951313500    34.9272846200
 1632      H     -53.2751906000     0.1104571400    33.3657066900
 1633      C     -53.2652026200    -0.1926720800    37.5999834300
 1634      H     -51.4153745400    -1.0446367400    37.7838026400
 1635      H     -53.6564654700     1.0639819000    39.1517852800
 1636      C     -55.1850038400    -2.3769081700    37.7636653300
 1637      H     -57.1068673900    -1.6513894100    38.2600867100
 1638      H     -55.2597183700    -3.4770575600    36.1107171500
 1639      C     -54.1559444500    -4.3338961000    39.7179078600
 1640      H     -52.3141419000    -4.9094009500    39.1822622300
 1641      H     -53.7381070500    -3.2055928300    41.3186177400
 1642      C     -56.0317016100    -6.5466021200    39.8812954100
 1643      H     -57.9460963600    -5.7753439800    40.3338492300
 1644      H     -55.4812497800    -7.8363255500    41.3740957000
 1645      H     -56.0709980700    -7.7926813500    38.1994562000
 1646      H     -35.5051649900    -8.0244477000    14.8402147200
 1647      C     -36.2492354500    -9.6090632400    16.0402097900
 1648      H     -38.3245123300    -9.6189534800    16.0415487500
 1649      H     -35.5946251800   -11.4125874800    15.2142212400
 1650      C     -34.8518216900    -9.1714924400    18.7557540000
 1651      H     -35.0129623600   -10.7679657200    20.2401139600
 1652      H     -32.7600926200    -8.9659845700    18.1277673800
 1653      C     -35.6513679100    -6.5929243000    19.8853995300
 1654      H     -35.2486993800    -5.0369795300    18.6949805100
 1655      H     -37.6073387500    -6.6652343100    20.4476909000
 1656      C     -34.2073003800    -5.8692472100    22.2296239900
 1657      H     -32.2498626000    -5.7956397100    22.0010818400
 1658      H     -35.0135786800    -4.0706305000    22.8938726400
 1659      C     -34.7378463200    -7.8263934600    24.4498728100
 1660      H     -36.6807637600    -8.4119472900    24.5286608300
 1661      H     -33.5255993900    -9.4769095200    24.0379071500
 1662      C     -33.7415332900    -6.7508196200    26.9556157500
 1663      H     -31.9501514600    -5.7325288300    27.0118203700
 1664      H     -35.1202009900    -5.4426430400    27.5084126700
 1665      C     -33.4309137100    -8.7639059500    29.1414672400
 1666      H     -35.2330530600   -10.0294122500    29.1114445300
 1667      H     -31.9481452100    -9.9424291100    28.4869222300
 1668      C     -32.9374506100    -7.2761124200    31.6387644500
 1669      H     -30.9055372100    -6.6396360300    31.5649344100
 1670      H     -34.0462393400    -5.5688195400    31.9428132100
 1671      C     -32.8499419300    -8.9763074400    34.1171396700
 1672      H     -34.5108131600   -10.1873747500    34.0785163700
 1673      H     -31.1452304700   -10.3541659200    34.1123933700
 1674      C     -32.3418363500    -7.5243881900    36.4689527500
 1675      H     -30.8966375600    -6.1245747700    36.2954796800
 1676      H     -34.0324646300    -6.3393396400    36.7482384700
 1677      C     -31.9869699500    -9.1601650600    38.9118438000
 1678      H     -33.5425205200   -10.3526561000    39.0764190100
 1679      H     -30.3400619600   -10.2963419900    38.8145205700
 1680      C     -31.5163383700    -7.3405398500    41.1615029100
 1681      H     -31.5931252200    -8.1887521600    43.0223199000
 1682      H     -32.8481189900    -5.7662496500    41.1233966000
 1683      H     -29.6796973600    -6.5579050200    40.9936889400
 1684      H     -17.0512579800    -0.9322225200    18.3179756400
 1685      C     -18.9263197900    -0.9859774400    19.0894117000
 1686      H     -20.2532327300    -1.0887756000    17.4789144600
 1687      H     -18.9999516300    -2.8976560000    20.2214088600
 1688      C     -19.4888219300     1.5013006800    20.4931267500
 1689      H     -18.5133925200     1.4877981400    22.2539714900
 1690      H     -18.7528774000     2.9871625400    19.3461482600
 1691      C     -22.2230068300     1.6618798500    21.1660076000
 1692      H     -22.9693073600     2.2137402300    19.3094981500
 1693      H     -22.7810112600    -0.2638044900    21.8218455500
 1694      C     -22.9947887200     3.8907882700    22.9429943500
 1695      H     -22.0789080200     5.6468050800    22.4164850500
 1696      H     -24.9322849000     4.4856512100    22.4238627200
 1697      C     -22.5986181900     3.3222371600    25.7903481200
 1698      H     -23.2777219300     1.4224133700    26.2082003900
 1699      H     -20.6163350000     3.4649996500    26.0296641300
 1700      C     -23.4391253500     5.4637725500    27.5840840600
 1701      H     -23.0173412000     4.6854664700    29.4793425500
 1702      H     -22.3123656400     7.1453426700    27.3658799200
 1703      C     -26.2888260400     6.1899778700    27.3417967700
 1704      H     -26.6411201600     6.8555455500    25.5217367800
 1705      H     -27.3873418000     4.5186468900    27.4847622400
 1706      C     -27.0983980300     8.1256425500    29.4539549100
 1707      H     -26.1590522700     7.5269104700    31.1275399600
 1708      H     -26.2224573900     9.9965742300    29.0012443700
 1709      C     -29.8543240900     8.5576587000    29.8760494000
 1710      H     -30.4300410600     8.6928468700    27.8737381100
 1711      H     -30.8163090300     6.7646017800    30.4860256400
 1712      C     -30.4188078000    10.8414281800    31.4713519700
 1713      H     -29.2320310100    10.8677446600    33.2144300500
 1714      H     -29.8087310300    12.4087128000    30.3862067800
 1715      C     -33.1206470000    11.4737357000    32.1466558500
 1716      H     -33.1271269800    13.4134797900    32.6818824100
 1717      H     -34.1711440100    11.5831222900    30.3807829500
 1718      C     -34.3435586600     9.4033082200    33.8580906000
 1719      H     -33.9887683000     9.9926695100    35.7538116100
 1720      H     -33.7744865400     7.4294478100    33.5852782300
 1721      H     -36.3774810300     9.7063739600    33.6258827500
 1722      H     -16.9049963800    -0.4980133800    55.5758729800
 1723      C     -17.1575130000     1.1163767600    56.7837998300
 1724      H     -19.1682667000     1.2542221100    57.3088330700
 1725      H     -16.0138648300     0.6760660200    58.4828558000
 1726      C     -16.2378044600     3.7356045100    55.9090785700
 1727      H     -16.5392288100     4.8301392200    57.5623081300
 1728      H     -14.2007530300     3.6534299000    55.7734886100
 1729      C     -17.4189259800     5.0060922600    53.5652697500
 1730      H     -17.8081181800     3.3104482500    52.3828095600
 1731      H     -19.3323699200     5.7948939900    54.0136698600
 1732      C     -15.5584387900     6.9975856800    52.6504814600
 1733      H     -14.9300686400     7.9603124700    54.3534581200
 1734      H     -13.9558127000     5.9046306500    51.7909066800
 1735      C     -16.5207549700     8.6665874800    50.4897067500
 1736      H     -17.3319430400     7.4257357600    48.9693713600
 1737      H     -18.1365158500     9.6915601500    51.0617195700
 1738      C     -14.6474628500    10.2011501300    49.0695763700
 1739      H     -14.0654438100    11.6587062600    50.3327425100
 1740      H     -12.8503599500     8.9562318400    48.7947821200
 1741      C     -15.5350033900    11.2837850400    46.4698638600
 1742      H     -15.0880016000     9.9813762900    44.9905005200
 1743      H     -17.4622098100    11.6081358600    46.6031260500
 1744      C     -14.3819493700    13.8602727600    45.9177046700
 1745      H     -14.5977984000    14.9291545800    47.7442773500
 1746      H     -12.3659047800    13.6443119500    45.4827479800
 1747      C     -15.7230227300    15.3031685700    43.6307084700
 1748      H     -15.7036034600    13.9736665700    42.0330300500
 1749      H     -17.6459586300    15.7437563500    44.1316984500
 1750      C     -14.4819077100    17.7939474100    42.8736870400
 1751      H     -14.4039598700    19.2212273700    44.3539597900
 1752      H     -12.5482902200    17.4131751100    42.4810750400
 1753      C     -15.8139066800    19.0705053600    40.5728625500
 1754      H     -16.0411658600    17.6272686100    38.9423977800
 1755      H     -17.7171322500    19.6433631700    41.0062544400
 1756      C     -14.0803613400    21.3085394500    39.5434840700
 1757      H     -14.9369541500    22.8692687600    38.4776361600
 1758      H     -12.6304136000    20.4122730800    38.4298292500
 1759      H     -13.0375434700    22.0875436700    41.1709149800
 1760      H       0.5802074600    27.1652518700    50.1086380800
 1761      C       0.9510677900    25.3916487300    51.0881713200
 1762      H       2.5798242600    25.6815982300    52.2382297900
 1763      H      -0.6700974700    24.9983852200    52.2484845600
 1764      C       1.5704540400    23.4665504100    49.0654362400
 1765      H      -0.1249919800    23.3359626200    47.8307538900
 1766      H       3.1259671000    24.2341848500    48.0028606600
 1767      C       1.9076051400    20.5971425200    50.0229220500
 1768      H       2.3615096500    19.2537856900    48.4212705700
 1769      H       3.7204923900    20.6708906600    51.0602241800
 1770      C      -0.0182232100    19.5713171200    51.9411730900
 1771      H      -0.5041303200    20.9110645100    53.3754707900
 1772      H      -1.7192551000    19.3764848500    50.6572930100
 1773      C       0.7374123300    16.8456554800    52.8888209400
 1774      H       0.2889993700    15.5185670800    51.4215939900
 1775      H       2.8384912100    16.8643215700    53.3873171600
 1776      C      -0.6660115700    16.0500695400    55.2581845000
 1777      H       0.0015724300    16.9338860900    56.9881905800
 1778      H      -2.5364752500    16.6230809400    54.9995736900
 1779      C      -0.9525219800    13.1751714500    55.5447874000
 1780      H      -1.3242685900    12.3246019900    53.7436532800
 1781      H       0.9059442200    12.3685753400    55.9991034600
 1782      C      -2.7494804900    12.3048458100    57.5625939900
 1783      H      -4.4657264700    13.4776308900    57.5264627900
 1784      H      -3.4067024400    10.4629418000    57.3215308900
 1785      C      -1.6470389200    12.5251922100    60.2713877200
 1786      H       0.3037533700    11.9015093300    60.1034308800
 1787      H      -1.5397037800    14.6291392100    60.8775359600
 1788      C      -3.1252229200    10.8826183000    62.1082927700
 1789      H      -5.1709980200    11.0499169700    61.7410195500
 1790      H      -2.5644007300     8.9229009100    61.7973124200
 1791      C      -2.9326421800    11.6540867700    64.9409344500
 1792      H      -3.7813827100    13.5227255500    65.2681546400
 1793      H      -3.8744658500    10.3260565600    66.0888603100
 1794      C      -0.1682376000    11.8011620300    65.9335331900
 1795      H       1.0729779900    13.0780417500    64.9426579400
 1796      H       0.7414985200     9.9970793700    66.0706134300
 1797      H      -0.3903518200    12.4037634400    67.8752846900
 1798      H     -38.5564223100    43.7896921600    31.8352177600
 1799      C     -37.7103156900    41.9862129200    31.3878479300
 1800      H     -38.4047033600    40.2783386900    32.4309672400
 1801      H     -38.1266186300    41.5089443300    29.5068220800
 1802      C     -34.8764325800    42.1335615900    31.7511375400
 1803      H     -33.9219619200    43.4364542900    30.4297545100
 1804      H     -34.4303437100    42.9024720500    33.6670671300
 1805      C     -33.6100340900    39.4405811800    31.3942860100
 1806      H     -34.3765912200    38.2360104500    32.8435532100
 1807      H     -34.4164483800    38.8435417200    29.5631622400
 1808      C     -30.6856841300    39.7466370100    31.6102048300
 1809      H     -30.0620972600    41.0290670700    30.2254012200
 1810      H     -30.2894752100    40.6416862300    33.4230842700
 1811      C     -29.2796834500    37.3233143500    31.3934584000
 1812      H     -28.9263301300    36.3891440500    33.1150002900
 1813      H     -30.1988339600    35.8895229400    30.2587546800
 1814      C     -26.7357201400    37.6688790700    30.2603512900
 1815      H     -26.8251613300    38.5301823500    28.4287756500
 1816      H     -25.8526282100    39.0688393000    31.5924187400
 1817      C     -25.3609867800    35.2050195600    30.1495787500
 1818      H     -25.5135927000    34.0762409800    31.9622158600
 1819      H     -26.3460806100    34.0949163200    28.5798158000
 1820      C     -22.4554386900    35.6625589500    29.8714232700
 1821      H     -21.9943596500    37.2930962100    28.6678397100
 1822      H     -21.8490797200    36.5787117100    31.6914040500
 1823      C     -21.0064151900    33.3598307700    28.9893087500
 1824      H     -21.6838418500    31.6089373600    30.0117977700
 1825      H     -21.2220325500    33.0145537200    26.9590496200
 1826      C     -18.1846862500    33.5542508600    29.6649184200
 1827      H     -17.4195923800    35.1831879600    28.6172095800
 1828      H     -18.0794555600    34.2281767800    31.6715558800
 1829      C     -16.6767252400    31.1506210400    29.2333087700
 1830      H     -17.4118241100    29.7242417300    30.5183553000
 1831      H     -16.9666650400    30.5791196900    27.2953884000
 1832      C     -13.8208651700    31.2170130100    29.7369628900
 1833      H     -12.8345555100    29.4623890700    29.3691415100
 1834      H     -13.3066676700    31.5276906000    31.7335143300
 1835      H     -12.9408287000    32.8131190600    28.6811622300
 1836      H     -21.6734932900    25.3131483600    35.6206796700
 1837      C     -19.5282210000    25.1180361300    35.2780528700
 1838      H     -19.0987378600    23.5885772500    36.5595940400
 1839      H     -19.2291041900    24.3932443200    33.4181284900
 1840      C     -18.2635978800    27.8181389700    35.7386498900
 1841      H     -16.2854299300    27.6720285000    35.2191057900
 1842      H     -19.2602020300    29.2469084400    34.6448579400
 1843      C     -18.7298028500    28.4780444700    38.5331012700
 1844      H     -20.6268611000    28.1389310900    39.3173013200
 1845      H     -17.4706978700    27.2716974000    39.6492598800
 1846      C     -17.8204557400    31.2101598600    39.0949780800
 1847      H     -17.2251827200    31.4973881000    41.0785792800
 1848      H     -16.0600071600    31.1899883500    38.1424178800
 1849      C     -19.8295682100    33.1710561800    38.3655043900
 1850      H     -20.1746955500    32.8483581700    36.3848289900
 1851      H     -21.7142900500    32.6137507200    39.1658363600
 1852      C     -19.1394458200    35.8146411900    38.9310481800
 1853      H     -17.1934891900    36.1400526100    38.5431918200
 1854      H     -20.1286480800    36.9920269700    37.5897096000
 1855      C     -19.7191594400    36.3681664400    41.7056192000
 1856      H     -21.7431680300    35.9771091300    42.0389774600
 1857      H     -18.7623907200    35.1171690100    42.9988263500
 1858      C     -18.8804680800    39.0910606300    42.1166705700
 1859      H     -16.8441266500    39.2210132000    41.8448958600
 1860      H     -19.7402192200    40.3039107900    40.6368527000
 1861      C     -19.4287628900    40.0914976900    44.7749107000
 1862      H     -21.2340623300    39.4352363100    45.1945127800
 1863      H     -17.8733079800    39.3424116500    45.8946611100
 1864      C     -19.6003184000    43.0441517700    44.8575247900
 1865      H     -18.1344325000    44.0067759700    43.8289091600
 1866      H     -21.4500678000    43.4348346500    43.7192063500
 1867      C     -19.7734136900    43.8533874700    47.6160508300
 1868      H     -21.1745756700    42.6533034700    48.5390773200
 1869      H     -17.9305706600    43.4565041600    48.4280563600
 1870      C     -20.2063350000    46.6833856300    47.8460547500
 1871      H     -20.3570257300    47.0840724500    49.7643391800
 1872      H     -21.9120419000    47.0596674600    46.7561768000
 1873      H     -18.6359015500    47.7724685200    47.0195051700
 1874      H     -36.5982873300    20.2958219800    59.2228740200
 1875      C     -34.8794166400    19.7888385500    60.1978542000
 1876      H     -34.5169697700    21.3352988700    61.5035282200
 1877      H     -35.2711934800    18.2357973400    61.4978302000
 1878      C     -32.6525634500    19.3023667000    58.6572657500
 1879      H     -32.3352486100    21.1225270400    57.6661993500
 1880      H     -31.0620949100    18.9372616400    59.8894767900
 1881      C     -33.2756785900    17.3542659100    56.5206663500
 1882      H     -34.4657455200    15.7260211300    57.2687654900
 1883      H     -34.7355898900    18.1673200700    55.2828737400
 1884      C     -30.9432526000    16.6592620100    55.0047404900
 1885      H     -29.5539106300    18.2470531500    54.7865981300
 1886      H     -30.1245606000    15.2027624800    56.2452588100
 1887      C     -31.7910027100    15.3476894300    52.5977943200
 1888      H     -32.8877362800    13.5627302900    53.0183390500
 1889      H     -32.9804966100    16.6947799200    51.6164140100
 1890      C     -29.8936604600    14.4445325500    50.6466981600
 1891      H     -28.8792516700    16.1306418300    49.9279401000
 1892      H     -28.3212804700    13.4201836200    51.3027774700
 1893      C     -30.9773324900    13.0953847200    48.3080000500
 1894      H     -31.9236350200    11.5420026200    49.3110647500
 1895      H     -32.7646045200    14.0078493900    47.6951416500
 1896      C     -29.0606469900    12.0054095900    46.2773272900
 1897      H     -27.8087217300    13.3509333300    45.5605376500
 1898      H     -27.9674059200    10.6235153200    47.3044613100
 1899      C     -30.6446541100    10.9135772900    44.0459527100
 1900      H     -32.1697065700     9.9103026300    44.8252072800
 1901      H     -31.2690588600    12.5071270300    43.0476296500
 1902      C     -29.3102345100     8.9458800000    42.4061830000
 1903      H     -27.6232187100     9.8309688700    41.6109013700
 1904      H     -28.2967695800     7.5296308900    43.5915529000
 1905      C     -30.5496951100     7.7893291900    40.0085168900
 1906      H     -32.3668932400     6.9205882300    40.6302803300
 1907      H     -31.1841281900     9.2571086800    38.7768083300
 1908      C     -28.8176791000     6.0114198600    38.6447673400
 1909      H     -29.9522209100     4.8727872100    37.3800834100
 1910      H     -27.7032189300     4.6626055000    39.7759168700
 1911      H     -27.5175671700     7.2127422100    37.5479445700
 ----------------------------------------------------------------
 Nuclear Repulsion Energy =           0.00000000 hartrees
 There are       48 alpha and       48 beta electrons
 Total job time:  124.65s(wall), 246.24s(cpu) 
 Wed Jun 22 08:07:46 2022

        *************************************************************
        *                                                           *
        *  Thank you very much for using Q-Chem.  Have a nice day.  *
        *                                                           *
        *************************************************************


