                  Welcome to Q-Chem
     A Quantum Leap Into The Future Of Chemistry


 Q-Chem 5.4 (devel), Q-Chem, Inc., Pleasanton, CA (2021)

 E. Epifanovsky,  A. T. B. Gilbert,  Xintian Feng,  Joonho Lee,  Yuezhi Mao,  
 N. Mardirossian,  P. Pokhilko,  A. White,  M. Wormit,  M. P. Coons,  
 A. L. Dempwolff,  Zhengting Gan,  D. Hait,  P. R. Horn,  L. D. Jacobson,  
 I. Kaliman,  J. Kussmann,  A. W. Lange,  Ka Un Lao,  D. S. Levine,  Jie Liu,  
 S. C. McKenzie,  A. F. Morrison,  K. Nanda,  F. Plasser,  D. R. Rehn,  
 M. L. Vidal,  Zhi-Qiang You,  Ying Zhu,  B. Alam,  B. Albrecht,  
 A. Aldossary,  E. Alguire,  J. H. Andersen,  D. Barton,  K. Begam,  A. Behn,  
 Y. A. Bernard,  E. J. Berquist,  H. Burton,  A. Carreras,  K. Carter-Fenk,  
 R. Chakraborty,  A. D. Chien,  K. D. Closser,  V. Cofer-Shabica,  
 S. Dasgupta,  Jia Deng,  M. de Wergifosse,  M. Diedenhofen,  Hainam Do,  
 S. Ehlert,  Po-Tung Fang,  S. Fatehi,  Qingguo Feng,  T. Friedhoff,  
 J. Gayvert,  Qinghui Ge,  G. Gidofalvi,  M. Goldey,  J. Gomes,  
 C. Gonzalez-Espinoza,  S. Gulania,  A. Gunina,  M. W. D. Hanson-Heine,  
 P. H. P. Harbach,  A. W. Hauser,  M. F. Herbst,  M. Hernandez Vera,  
 M. Hodecker,  Z. C. Holden,  S. Houck,  Xunkun Huang,  Kerwin Hui,  
 B. C. Huynh,  M. Ivanov,  Hyunjun Ji,  Hanjie Jiang,  B. Kaduk,  S. Kaehler,  
 K. Khistyaev,  Jaehoon Kim,  P. Klunzinger,  Z. Koczor-Benda,  
 Joong Hoon Koh,  D. Kosenkov,  L. Koulias,  T. Kowalczyk,  C. M. Krauter,  
 K. Kue,  A. Kunitsa,  T. Kus,  A. Landau,  K. V. Lawler,  D. Lefrancois,  
 S. Lehtola,  Rain Li,  Yi-Pei Li,  Jiashu Liang,  M. Liebenthal,  
 Hung-Hsuan Lin,  You-Sheng Lin,  Fenglai Liu,  Kuan-Yu Liu,  
 M. Loipersberger,  A. Luenser,  A. Manjanath,  P. Manohar,  E. Mansoor,  
 S. F. Manzer,  Shan-Ping Mao,  A. V. Marenich,  T. Markovich,  S. Mason,  
 S. A. Maurer,  P. F. McLaughlin,  M. F. S. J. Menger,  J.-M. Mewes,  
 S. A. Mewes,  P. Morgante,  J. W. Mullinax,  K. J. Oosterbaan,  G. Paran,  
 Alexander C. Paul,  Suranjan K. Paul,  F. Pavosevic,  Zheng Pei,  S. Prager,  
 E. I. Proynov,  E. Ramos,  B. Rana,  A. E. Rask,  A. Rettig,  R. M. Richard,  
 F. Rob,  E. Rossomme,  T. Scheele,  M. Scheurer,  M. Schneider,  
 N. Sergueev,  S. M. Sharada,  W. Skomorowski,  D. W. Small,  C. J. Stein,  
 Yu-Chuan Su,  E. J. Sundstrom,  Zhen Tao,  J. Thirman,  T. Tsuchimochi,  
 N. M. Tubman,  S. P. Veccham,  O. Vydrov,  J. Wenzel,  J. Witte,  A. Yamada,  
 Kun Yao,  S. Yeganeh,  S. R. Yost,  A. Zech,  Igor Ying Zhang,  Xing Zhang,  
 Yu Zhang,  D. Zuev,  A. Aspuru-Guzik,  A. T. Bell,  N. A. Besley,  
 K. B. Bravaya,  B. R. Brooks,  D. Casanova,  Jeng-Da Chai,  S. Coriani,  
 C. J. Cramer,  A. E. DePrince, III,  R. A. DiStasio Jr.,  A. Dreuw,  
 B. D. Dunietz,  T. R. Furlani,  W. A. Goddard III,  S. Grimme,  
 S. Hammes-Schiffer,  T. Head-Gordon,  W. J. Hehre,  Chao-Ping Hsu,  
 T.-C. Jagau,  Yousung Jung,  A. Klamt,  Jing Kong,  D. S. Lambrecht,  
 WanZhen Liang,  N. J. Mayhall,  C. W. McCurdy,  J. B. Neaton,  
 C. Ochsenfeld,  J. A. Parkhill,  R. Peverati,  V. A. Rassolov,  Yihan Shao,  
 L. V. Slipchenko,  T. Stauch,  R. P. Steele,  J. E. Subotnik,  
 A. J. W. Thom,  A. Tkatchenko,  D. G. Truhlar,  T. Van Voorhis,  
 T. A. Wesolowski,  K. B. Whaley,  H. L. Woodcock III,  P. M. Zimmerman,  
 S. Faraji,  P. M. W. Gill,  M. Head-Gordon,  J. M. Herbert,  A. I. Krylov

 Additional authors for Version 5.4.1: 
 S. Kotaru,  Shaozhi Li,  Xiangyuan Li,  F. Matz,  A. Molle,  Haisheng Ren,  
 Yingli Su,  Hung-Yi Tsai,  C. Utku,  Fang Wang

 Contributors to earlier versions of Q-Chem not listed above: 
 R. D. Adamson,  B. Austin,  R. Baer,  J. Baker,  G. J. O. Beran,  
 K. Brandhorst,  S. T. Brown,  E. F. C. Byrd,  A. K. Chakraborty,  
 G. K. L. Chan,  Chun-Min Chang,  Yunqing Chen,  C.-L. Cheng,  
 Siu Hung Chien,  D. M. Chipman,  D. L. Crittenden,  H. Dachsel,  
 R. J. Doerksen,  A. D. Dutoi,  R. G. Edgar,  J. Fosso-Tande,  
 L. Fusti-Molnar,  D. Ghosh,  A. Ghysels,  A. Golubeva-Zadorozhnaya,  
 J. Gonthier,  M. S. Gordon,  S. R. Gwaltney,  G. Hawkins,  J. E. Herr,  
 A. Heyden,  S. Hirata,  E. G. Hohenstein,  G. Kedziora,  F. J. Keil,  
 C. Kelley,  Jihan Kim,  R. A. King,  R. Z. Khaliullin,  P. P. Korambath,  
 W. Kurlancheek,  A. Laurent,  A. M. Lee,  M. S. Lee,  S. V. Levchenko,  
 Ching Yeh Lin,  D. Liotard,  E. Livshits,  R. C. Lochan,  I. Lotan,  
 L. A. Martinez-Martinez,  P. E. Maslen,  N. Nair,  D. P. O'Neill,  
 D. Neuhauser,  E. Neuscamman,  C. M. Oana,  R. Olivares-Amaya,  R. Olson,  
 T. M. Perrine,  B. Peters,  P. A. Pieniazek,  A. Prociuk,  Y. M. Rhee,  
 J. Ritchie,  M. A. Rohrdanz,  E. Rosta,  N. J. Russ,  H. F. Schaefer III,  
 M. W. Schmidt,  N. E. Schultz,  S. Sharma,  N. Shenvi,  C. D. Sherrill,  
 A. C. Simmonett,  A. Sodt,  T. Stein,  D. Stuck,  K. S. Thanthiriwatte,  
 V. Vanovschi,  L. Vogt,  Tao Wang,  A. Warshel,  M. A. Watson,  
 C. F. Williams,  Q. Wu,  X. Xu,  Jun Yang,  W. Zhang,  Yan Zhao

 Please cite Q-Chem as follows:
 Y. Shao et al., Mol. Phys. 113, 184-215 (2015)
 DOI: 10.1080/00268976.2014.952696

 Q-Chem 5.4.1 for Intel X86 EM64T Linux

 Parts of Q-Chem use Armadillo 9.900.5 (Nocturnal Misbehaviour).
 http://arma.sourceforge.net/

 Q-Chem begins on Wed Jun 22 08:05:25 2022  

 Host: p09r16n04.grace.hpc.yale.internal
0

     Scratch files written to /home/tl686/scratch60/qchem_dev/scratch/qchem69402//
 Processing $rem in /home/tl686/qchem_dev/qchem/config/preferences:
 Processing $rem in /home/tl686/.qchemrc:
Applying user defined connections for MM calculations

 Checking the input file for inconsistencies... 	...done.

--------------------------------------------------------------
User input:
--------------------------------------------------------------
$molecule
0   1
 Fe 1117.53531338 41.08697806 -60.29243739    -1  0   0   0   0
C 1114.09282314 42.00349809 -60.05488963    -2  0   0   0   0 
C 1120.73853473 40.63595767 -61.73593889    -2  0   0   0   0
C 1118.40731151 44.36370015 -59.87196588    -2  0   0   0   0
C 1117.90188941 39.59039954 -57.21306013    -2  0   0   0   0
C 1116.73997663 38.75119417 -62.79475804    -2  0   0   0   0
O 1112.14911101 42.75977654 -60.42834380    -3  0   0   0   0
O 1122.51572637 40.11482449 -63.04774083    -3  0   0   0   0 
O 1118.80133270 46.55800657 -59.62426456    -3  0   0   0   0
O 1118.17685945 38.65050629 -55.17362507    -3  0   0   0   0 
O 1116.51395505 37.26793210 -64.43425410    -3  0   0   0   0
H 1114.02813196 66.23875973 -47.88244855      6     13    0    0    0 
C 1112.56374946 66.13104949 -49.49142507     1     12    14    15    16
H 1112.23182994 68.11981221 -49.36695384     6     13    0    0    0
H 1113.33474001 65.47095171 -51.31013481     6     13    0    0    0
C 1109.89997501 64.69538629 -49.03555947     2     13    17    18    19
H 1108.70437261 65.54986641 -47.64907027     6     16    0    0    0
H 1108.76072182 64.74663383 -50.64357275     6     16    0    0    0
C 1110.30199037 61.80694280 -48.38901903     2     16    20   21   22
H 1111.24467836 60.74498230 -49.95247472     6     19    0    0    0
H 1111.85500126 61.78179588 -46.93852207     6     19    0    0    0
C 1107.96254245 60.35650244 -47.65616992     2     19   23   24   25
H 1107.03138213 61.52527890 -46.15656639     6    22    0    0    0
H 1106.71692589 60.27834942 -49.31588932     6    22    0    0    0
C 1108.65276201 57.88860595 -46.39321840     2    22   26   27   28
H 1109.84971321 56.74863553 -47.42981931     6    25    0    0    0
H 1109.86980904 58.09061010 -44.81754298     6    25    0    0    0
C 1106.30669018 56.39034845 -45.44989117     2    25   29   30   31
H 1105.09375413 57.77534734 -44.33806597     6    28    0    0    0
H 1105.21226178 55.83916880 -47.08913402     6    28    0    0    0
C 1106.98132109 54.01830103 -43.99375303     2    28   32   33   34
H 1108.71706338 53.18376266 -44.78642286     6    31    0    0    0
H 1107.49125114 54.65646166 -42.15424552     6    31    0    0    0
C 1104.87955602 52.18315522 -43.49347553     2    31   35   36   37
H 1103.36610648 53.19062070 -42.52401211     6    34    0    0    0
H 1103.98564200 51.34393390 -45.18406137     6    34    0    0    0
C 1105.44422375 49.99306111 -41.65722926     2    34   38   39   40
H 1107.02296949 48.69385605 -42.24375334     6    37    0    0    0
H 1105.90401353 50.61313612 -39.69813156     6    37    0    0    0
C 1103.03017429 48.49063962 -41.16075231     2    37   41   42   43
H 1101.71406834 49.64355064 -40.08076364     6    40    0    0    0
H 1102.25919154 48.09049789 -42.99729694     6    40    0    0    0
C 1103.37295132 45.88788835 -39.62434215     2    40   44   45   46
H 1104.16817444 44.37469764 -40.77797435     6    43    0    0    0
H 1104.46394261 46.12121346 -37.87019530     6    43    0    0    0
C 1100.87325336 44.81192089 -38.72986246     1    43   47   48   49
H 1099.91365274 46.28137111 -37.44773580     6    46    0    0    0
H 1101.37274304 43.18243444 -37.48877740     6    46    0    0    0
H 1099.57757778 44.01484323 -40.01679058     6    46    0    0    0
H 1109.82659769 36.64851838 -53.46515998     6     51    0    0    0 
C 1110.83188201 38.38037470 -54.21104611     1     50    52    53    54
H 1112.89170554 37.91042435 -54.02947121     6     51    0    0    0
H 1110.66881208 38.64936249 -56.33949995     6     51    0    0    0
C 1110.08737518 40.83437084 -52.63655512     2     51    55    56    57
H 1111.21526383 42.33992977 -53.42656247     6     54    0    0    0
H 1108.28361496 41.52752975 -53.19615836     6     54    0    0    0
C 1110.38024500 40.42080874 -49.80821942     2     54    58   59   60
H 1112.27073105 39.63002203 -49.47630120     6     57    0    0    0
H 1110.38830342 42.18704361 -48.85718165     6     57    0    0    0
C 1108.24876752 38.79515515 -48.68132803     2     57   61   62   63
H 1106.50664796 39.43195672 -49.28089261     6    60    0    0    0
H 1108.26284490 36.83990255 -49.26244562     6    60    0    0    0
C 1108.24300061 38.82211392 -45.69355047     2    60   64   65   66
H 1110.19870477 38.68425862 -45.06497025     6    63    0    0    0
H 1107.58196855 40.67961630 -45.05174308     6    63    0    0    0
C 1106.68212552 36.77682906 -44.43626535     2    63   67   68   69
H 1106.53121198 37.17702986 -42.36383687     6    66    0    0    0
H 1104.68406440 36.81578004 -44.83973636     6    66    0    0    0
C 1107.61327889 33.98054576 -44.61194387     2    66   70   71   72
H 1108.24425560 33.69390444 -46.47533622     6    69    0    0    0
H 1109.32419461 33.94433726 -43.53339626     6    69    0    0    0
C 1105.68229017 32.05429870 -43.78625057     2    69   73   74   75
H 1105.28214752 32.42985911 -41.80936914     6    72    0    0    0
H 1103.97003894 32.18110275 -44.89895599     6    72    0    0    0
C 1106.35776535 29.20919390 -43.55152087     2    72   76   77   78
H 1107.34409308 28.37307074 -45.15800049     6    75    0    0    0
H 1107.57055855 28.82003194 -42.05666271     6    75    0    0    0
C 1103.86741032 27.62702554 -43.08699511     2    75   79   80   81
H 1102.75959698 28.47158132 -41.54787631     6    78    0    0    0
H 1102.68446318 27.97041478 -44.69710609     6    78    0    0    0
C 1104.21074751 24.71872272 -42.51396844     2    78   82   83   84
H 1106.03918727 24.34942499 -43.35350075     6    81    0    0    0
H 1104.22142130 24.50471523 -40.41334294     6    81    0    0    0
C 1102.05355631 22.97987076 -43.33436676     1    81   85   86   87
H 1102.58429622 21.04473893 -42.56275411     6    84    0    0    0
H 1102.32236605 22.79494303 -45.26151046     6    84    0    0    0
H 1100.10634983 23.50712879 -43.00805924     6    84    0    0    0
H 1126.75258684 64.17050087 -34.88882488     6     89    0    0    0 
C 1126.65330192 62.54355806 -33.62200070     1     88    90    91    92
H 1127.96588969 61.11468088 -34.53202423     6     89    0    0    0
H 1127.49038513 62.96992157 -31.71182468     6     89    0    0    0
C 1124.02987113 61.28959042 -33.41347723     2     89    93    94    95
H 1122.75865087 62.59915985 -32.58404602     6     92    0    0    0
H 1123.16214099 60.99767078 -35.26167249     6     92    0    0    0
C 1124.07462760 58.64265655 -31.98485276     2     92    96   97   98
H 1125.32811289 57.19876991 -32.86088217     6     95    0    0    0
H 1124.96364311 58.92998351 -30.10073077     6     95    0    0    0
C 1121.49152370 57.53012738 -31.73214946     2     95   99   100   101
H 1120.30747561 58.90731800 -30.80207523     6    98    0    0    0
H 1120.80467925 57.49657680 -33.61655108     6    98    0    0    0
C 1121.28580744 54.93801402 -30.45602147     2    98   102   103   104
H 1122.32934512 53.66315046 -31.62778934     6    101    0    0    0
H 1122.15398599 54.86866660 -28.65734149     6    101    0    0    0
C 1118.57721054 53.94543129 -30.33915969     2    101   105   106   107
H 1117.34906920 55.16482126 -29.26853417     6    104    0    0    0
H 1117.79081914 53.71734969 -32.34907612     6    104    0    0    0
C 1118.29210089 51.42810272 -28.92121482     2    104   108   109   110
H 1119.49728436 49.85321127 -29.78077561     6    107    0    0    0
H 1118.78330663 51.65492242 -26.90430548     6    107    0    0    0
C 1115.60142329 50.59517575 -29.41906491     2    107   111   112   113
H 1114.49843769 52.13620204 -28.94237868     6    110    0    0    0
H 1115.44028730 49.98104405 -31.44234539     6    110    0    0    0
C 1115.05086811 48.13917576 -27.93574888     2    110   114   115   116
H 1116.40383920 46.62722320 -28.46330244     6    113    0    0    0
H 1115.14150238 48.43702246 -25.87138019     6    113    0    0    0
C 1112.16482417 47.63956168 -28.61448557     2    113   117   118   119
H 1111.21208192 49.44738134 -28.08007188     6    116    0    0    0
H 1111.73965292 47.58272810 -30.61404804     6    116    0    0    0
C 1111.04894550 45.39488329 -27.06507280     2    116   120   121   122
H 1109.76464457 44.36377076 -28.36130493     6    119    0    0    0
H 1112.48084655 43.99664657 -26.50959981     6    119    0    0    0
C 1109.73481222 46.06583500 -24.50888451     1    119   123   124   125
H 1108.70265660 44.61503969 -23.69165759     6    122    0    0    0
H 1108.52991528 47.70735034 -24.84633682     6    122    0    0    0
H 1111.15150435 47.01452419 -23.31384064     6    122    0    0    0
H 1142.63015259 44.81331196 -41.35725484     6     127    0    0    0 
C 1140.71952340 45.37990294 -41.96766602     1     126    128    129    130
H 1139.31564131 44.02606439 -41.37029515     6     127    0    0    0
H 1139.98151328 47.05119404 -41.03742817     6     127    0    0    0
C 1140.96436419 45.91934363 -44.72779720     2     127    131    132    133
H 1142.41633634 47.29750606 -45.06848260     6     130    0    0    0
H 1141.46989255 44.20322070 -45.83727060     6     130    0    0    0
C 1138.27684246 46.89996078 -45.87230247     2     130    134   135   136
H 1136.73662860 45.38770598 -45.85773290     6     133    0    0    0
H 1137.69963168 48.47262998 -44.67011848     6     133    0    0    0
C 1138.71867021 48.00470433 -48.49676801     2     133   137   138   139
H 1139.83860131 49.66373875 -48.24671732     6    136    0    0    0
H 1139.86177274 46.78838255 -49.71074507     6    136    0    0    0
C 1136.29787367 48.63713624 -49.96577188     2    136   140   141   142
H 1134.94555201 46.97232493 -50.15230727     6    139    0    0    0
H 1135.25750578 50.01222555 -48.95587493     6    139    0    0    0
C 1136.40480565 49.78141381 -52.54527130     2    139   143   144   145
H 1137.55956237 51.57845361 -52.61522852     6    142    0    0    0
H 1137.28265348 48.38476070 -53.77301568     6    142    0    0    0
C 1133.78306935 50.33797635 -53.64177668     2    142   146   147   148
H 1132.39768774 48.82216526 -53.36668277     6    145    0    0    0
H 1133.06671369 52.04796515 -52.67233446     6    145    0    0    0
C 1133.83527214 51.15063072 -56.36225520     2    145   149   150   151
H 1135.31447474 52.51583119 -56.64841327     6    148    0    0    0
H 1134.36536541 49.49345389 -57.55644706     6    148    0    0    0
C 1131.28258501 52.16859305 -57.36562255     2    148   152   153   154
H 1129.86594836 50.78002887 -56.74683657     6    151    0    0    0
H 1130.80712608 53.85178741 -56.43488639     6    151    0    0    0
C 1131.30208974 52.67501882 -60.23616664     2    151   155   156   157
H 1129.61191092 53.60773719 -60.98875012     6    154    0    0    0
H 1132.88114916 53.80892758 -60.61700949     6    154    0    0    0
C 1131.55290768 50.27982494 -61.90290803     2    154   158   159   160
H 1133.37357487 49.30789648 -61.39341436     6    157    0    0    0
H 1129.88689316 49.07850766 -61.52813120     6    157    0    0    0
C 1131.59051629 50.72260358 -64.72547622     1    157   161   162   163
H 1131.34377154 48.88462747 -65.84666297     6    160    0    0    0
H 1133.43384934 51.70336380 -65.34885168     6    160    0    0    0
H 1129.84195914 51.58339151 -65.29121397     6    160    0    0    0
H 1131.19619207 33.54087501 -23.39567605     6     165    0    0    0 
C 1133.18394118 32.88135067 -23.61466345     1     164    166    167    168
H 1134.30330184 33.97498901 -22.21423342     6     165    0    0    0
H 1133.59277674 30.97525192 -23.23456164     6     165    0    0    0
C 1134.52279419 33.59627955 -25.96855403     2     165    169    170    171
H 1133.38241041 32.88714466 -27.56397719     6     168    0    0    0
H 1134.40762328 35.59979931 -26.44302318     6     168    0    0    0
C 1137.37092978 32.79908183 -26.13180468     2     168    172   173   174
H 1138.60397324 34.09832929 -24.91385819     6     171    0    0    0
H 1137.64849230 30.93786537 -25.29676371     6     171    0    0    0
C 1138.41194400 32.95475226 -28.89097770     2     171   175   176   177
H 1137.36434204 31.33682181 -29.99311374     6    174    0    0    0
H 1137.99518661 34.59738236 -29.84007677     6    174    0    0    0
C 1141.17105968 32.44269614 -29.15347652     2    174   178   179   180
H 1142.19191402 33.72380786 -27.97580645     6    177    0    0    0
H 1141.72085189 30.58938739 -28.58871851     6    177    0    0    0
C 1142.03362637 32.78458280 -31.80040919     2    177   181   182   183
H 1141.35541741 31.24620766 -33.02395811     6    180    0    0    0
H 1140.97275401 34.32041782 -32.45871610     6    180    0    0    0
C 1144.89153053 32.71843295 -32.35593807     2    180   184   185   186
H 1145.74198893 34.36596449 -31.49981976     6    183    0    0    0
H 1145.55351309 31.07634250 -31.23708465     6    183    0    0    0
C 1145.64388195 32.88845126 -35.18719649     2    183   187   188   189
H 1144.74636670 31.22103742 -36.12834881     6    186    0    0    0
H 1145.22501020 34.65192101 -36.02180491     6    186    0    0    0
C 1148.51272691 32.78869099 -35.80105711     2    186   190   191   192
H 1149.14996635 34.46777578 -34.94055118     6    189    0    0    0
H 1149.41214061 31.35306045 -34.67877711     6    189    0    0    0
C 1149.32931180 32.72123996 -38.61557169     2    189   193   194   195
H 1148.66201033 31.09620753 -39.56184055     6    192    0    0    0
H 1148.79929040 34.44581220 -39.64258737     6    192    0    0    0
C 1152.15849150 32.84530592 -38.89456342     2    192   196   197   198
H 1153.00317606 34.53226361 -38.03619234     6    195    0    0    0
H 1153.10586713 31.21606180 -38.07055209     6    195    0    0    0
C 1152.82095189 32.93702548 -41.66662491     1    195   199   200   201
H 1154.95219791 32.81750250 -42.20757845     6    198    0    0    0
H 1152.48133253 34.79422058 -42.44316945     6    198    0    0    0
H 1151.58895466 31.76891921 -42.90663776     6    198    0    0    0
H 1131.17517396 27.97521522 -38.24846497     6     203    0    0    0 
C 1133.07405541 28.24112882 -37.30454262     1     202    204    205    206
H 1134.41496631 27.89673750 -38.77686976     6     203    0    0    0
H 1133.30191315 30.30011502 -36.99050584     6     203    0    0    0
C 1134.02951059 26.62114940 -35.12625026     2     203    207    208    209
H 1136.01999001 26.92746851 -34.67147770     6     206    0    0    0
H 1133.05843031 26.95111839 -33.32356671     6     206    0    0    0
C 1134.06234249 23.83667375 -35.59975727     2     206    210   211   212
H 1134.15974861 22.82540874 -33.81369956     6     209    0    0    0
H 1132.14932985 23.37449196 -36.38178791     6     209    0    0    0
C 1135.80225746 22.69578893 -37.55432211     2     209   213   214   215
H 1135.70172577 23.76794545 -39.33433046     6    212    0    0    0
H 1137.72467165 22.89666802 -36.77548782     6    212    0    0    0
C 1135.40218009 19.73229129 -38.14798788     2    212   216   217   218
H 1136.37166507 18.58587605 -36.75049548     6    215    0    0    0
H 1133.43509909 19.65488044 -38.10405835     6    215    0    0    0
C 1136.19987514 19.31036233 -40.88105756     2    215   219   220   221
H 1135.39503262 20.81212078 -41.98664475     6    218    0    0    0
H 1138.28615393 19.19840646 -40.94710495     6    218    0    0    0
C 1135.22432111 16.68520726 -41.67218545     2    218   222   223   224
H 1135.98457739 15.32958541 -40.29674466     6    221    0    0    0
H 1133.18994718 16.60960394 -41.38699500     6    221    0    0    0
C 1135.73499784 16.07816539 -44.42044528     2    221   225   226   227
H 1134.75131201 17.43576383 -45.62560899     6    224    0    0    0
H 1137.79625510 16.08997323 -44.73694109     6    224    0    0    0
C 1134.66737394 13.49612648 -45.09505200     2    224   228   229   230
H 1135.82293463 11.96005257 -44.55654544     6    227    0    0    0
H 1132.79731903 13.25180165 -44.40096887     6    227    0    0    0
C 1134.48216599 13.51653831 -48.00411868     2    227   231   232   233
H 1133.35242140 15.12956627 -48.58826797     6    230    0    0    0
H 1136.27239560 14.10808850 -48.75010958     6    230    0    0    0
C 1133.75745544 10.91137003 -49.18220664     2    230   234   235   236
H 1134.86954348 9.34060356 -48.49729708     6    233    0    0    0
H 1131.80685653 10.30186814 -48.70931904     6    233    0    0    0
C 1134.21316198 11.02819312 -52.01245607     1    233   237   238   239
H 1136.12263243 11.44445899 -52.55108141     6    236    0    0    0
H 1133.08962894 12.41456479 -53.14968644     6    236    0    0    0
H 1133.76975863 9.19504109 -52.98661721     6    236    0    0    0
H 1109.45112785 26.36534663 -35.07341331     6     241    0    0    0 
C 1109.26079050 27.45138682 -36.76721377     1     240    242    243    244
H 1111.13813851 28.10676105 -37.01005026     6     241    0    0    0
H 1108.86513148 26.10226723 -38.36578609     6     241    0    0    0
C 1107.32630436 29.51635095 -36.30266295     2     241    245    246    247
H 1107.98672719 30.52300912 -34.59914179     6     244    0    0    0
H 1107.32909169 31.07922157 -37.66230223     6     244    0    0    0
C 1104.68319079 28.53370973 -35.96192341     2     244    248   249   250
H 1104.08846556 27.37786178 -37.59711423     6     247    0    0    0
H 1104.67260245 27.44686254 -34.31680179     6     247    0    0    0
C 1102.74918013 30.75194364 -35.45408175     2     247   251   252   253
H 1103.78265526 32.16640426 -34.33227832     6    250    0    0    0
H 1102.53850010 31.96084839 -36.94321446     6    250    0    0    0
C 1100.57358939 29.89192232 -33.87526724     2    250   254   255   256
H 1101.09197776 29.13236900 -31.91971880     6    253    0    0    0
H 1099.70549182 31.67338406 -33.36670309     6    253    0    0    0
C 1098.60360720 28.47714247 -35.46919853     2    253   257   258   259
H 1096.79616467 29.37955193 -35.06527045     6    256    0    0    0
H 1098.81565604 28.95238367 -37.49843204     6    256    0    0    0
C 1098.78350498 25.60978283 -35.09870636     2    256   260   261   262
H 1100.81034446 25.13403176 -35.06016506     6    259    0    0    0
H 1098.11492099 25.26132397 -33.15861817     6    259    0    0    0
C 1097.50682812 24.17257580 -37.31604650     2    259   263   264   265
H 1095.44655103 24.78137600 -37.34918637     6    262    0    0    0
H 1098.36819638 24.66038269 -39.19004852     6    262    0    0    0
C 1097.83351370 21.28610969 -37.28061837     2    262   266   267   268
H 1099.64470544 20.70553688 -36.70937242     6    265    0    0    0
H 1096.76625759 20.84188150 -35.49321546     6    265    0    0    0
C 1096.76433195 19.82029590 -39.63285367     2    265   269   270   271
H 1094.79068865 20.20783853 -39.75293043     6    268    0    0    0
H 1097.50171329 20.61369650 -41.39233527     6    268    0    0    0
C 1097.26800455 16.96575303 -39.52795500     2    268   272   273   274
H 1096.97058352 16.00917763 -41.29462255     6    271    0    0    0
H 1099.23524844 16.62957104 -38.90328378     6    271    0    0    0
C 1095.87167102 15.47595756 -37.38923330     1    271   275   276   277
H 1096.20787822 16.22700832 -35.57789963     6    274    0    0    0
H 1096.39736413 13.55573458 -37.30137347     6    274    0    0    0
H 1093.86532551 15.61155677 -37.48986700     6    274    0    0    0
H 1129.20596317 45.11992921 -31.42858442     6     279    0    0    0 
C 1128.38022619 43.64152245 -30.21225822     1     278    280    281    282
H 1128.72511307 44.30793808 -28.24438054     6     279    0    0    0
H 1126.37928859 43.76221457 -30.47070708     6     279    0    0    0
C 1129.63430667 41.08792113 -30.98159329     2     279    283    284    285
H 1129.91064823 41.47425023 -33.03936737     6     282    0    0    0
H 1131.55595237 40.77253931 -30.09467145     6     282    0    0    0
C 1127.85480354 38.95622221 -30.33626399     2     282    286   287   288
H 1127.99845002 38.74733249 -28.36705412     6     285    0    0    0
H 1125.87624367 39.42175809 -30.64955848     6     285    0    0    0
C 1128.53211666 36.56274447 -31.80732745     2     285   289   290   291
H 1128.90634427 37.19270663 -33.67553242     6    288    0    0    0
H 1130.28647512 35.67787954 -31.08619094     6    288    0    0    0
C 1126.28815011 34.66891997 -31.59094937     2    288   292   293   294
H 1125.90191032 34.46630748 -29.50624867     6    291    0    0    0
H 1124.55033437 35.47453243 -32.43741585     6    291    0    0    0
C 1126.92584591 32.10175154 -32.81744374     2    291   295   296   297
H 1126.93289912 32.30452907 -34.83458930     6    294    0    0    0
H 1128.77868115 31.50231996 -32.07507415     6    294    0    0    0
C 1125.02741983 30.02484628 -31.78127369     2    294   298   299   300
H 1125.05371602 29.55405043 -29.83571650     6    297    0    0    0
H 1123.20998825 30.87523854 -32.23420370     6    297    0    0    0
C 1125.03646758 27.73405144 -33.49927263     2    297   301   302   303
H 1125.14059310 28.43647986 -35.45683142     6    300    0    0    0
H 1126.73253225 26.67783156 -33.32187725     6    300    0    0    0
C 1122.85634786 25.87533231 -33.10021565     2    300   304   305   306
H 1122.73005793 25.42477366 -31.09053331     6    303    0    0    0
H 1121.02611722 26.81579752 -33.71398361     6    303    0    0    0
C 1123.32028592 23.38900556 -34.79863750     2    303   307   308   309
H 1123.51320682 23.73531189 -36.77674250     6    306    0    0    0
H 1125.05729394 22.57485592 -34.12456848     6    306    0    0    0
C 1121.39377984 21.31323219 -34.51340817     2    306   310   311   312
H 1121.32298141 20.92180699 -32.49307860     6    309    0    0    0
H 1119.53638887 22.26051651 -35.06876036     6    309    0    0    0
C 1121.94854245 19.08471643 -36.20533792     1    309   313   314   315
H 1121.66699673 19.48532369 -38.29464464     6    312    0    0    0
H 1120.39892766 17.69030358 -36.00350553     6    312    0    0    0
H 1123.83557928 18.39582329 -35.86771755     6    312    0    0    0
H 1126.21896176 46.38552558 -46.10510946     6     317    0    0    0 
C 1124.41703485 47.48508528 -45.55257737     1     316    318    319    320
H 1123.11322669 46.96593824 -47.14162010     6     317    0    0    0
H 1123.79619988 46.57040829 -43.81903846     6     317    0    0    0
C 1124.91673392 50.38134637 -45.33573894     2     317    321    322    323
H 1123.34908343 51.36854573 -44.47070526     6     320    0    0    0
H 1126.48863435 50.81797524 -44.17513947     6     320    0    0    0
C 1125.47231220 51.72958805 -47.75555815     2     320    324   325   326
H 1125.83417281 53.66316172 -47.40693320     6     323    0    0    0
H 1127.26545246 51.03307055 -48.43847144     6     323    0    0    0
C 1123.56738893 51.64589277 -49.82979192     2     323   327   328   329
H 1122.40726174 49.88320877 -49.72176552     6    326    0    0    0
H 1122.02191242 52.97563093 -49.42168370     6    326    0    0    0
C 1124.60982431 52.30766921 -52.42003327     2    326   330   331   332
H 1125.68943680 53.97167719 -52.34422299     6    329    0    0    0
H 1125.89357471 50.79302133 -53.01489553     6    329    0    0    0
C 1122.46630829 52.50141789 -54.31831145     2    329   333   334   335
H 1121.27922639 50.91366196 -54.33712591     6    332    0    0    0
H 1121.22121806 53.87327365 -53.68755012     6    332    0    0    0
C 1123.63938548 53.38545884 -56.79449418     2    332   336   337   338
H 1123.73470829 55.41294125 -56.79819814     6    335    0    0    0
H 1125.50079929 52.68127963 -57.03162019     6    335    0    0    0
C 1122.15298540 53.06746612 -59.22195293     2    335   339   340   341
H 1121.71364860 50.93694878 -59.29643229     6    338    0    0    0
H 1120.22720331 53.94651302 -59.09929000     6    338    0    0    0
C 1123.71273154 53.77916168 -61.64349321     2    338   342   343   344
H 1124.35228693 55.70923377 -61.47844618     6    341    0    0    0
H 1125.44285163 52.51948075 -61.77158854     6    341    0    0    0
C 1122.47533384 53.03859849 -64.09151010     2    341   345   346   347
H 1123.63051071 53.54657266 -65.54714102     6    344    0    0    0
H 1121.88605370 51.01780902 -64.04681462     6    344    0    0    0
C 1120.07034627 54.67038705 -64.48027317     2    344   348   349   350
H 1118.59316541 54.05483800 -63.34506443     6    347    0    0    0
H 1120.64503094 56.59432549 -64.34212716     6    347    0    0    0
C 1118.98095178 54.29006443 -67.11058135     1    347   351   352   353
H 1119.91593443 55.41448642 -68.46503935     6    350    0    0    0
H 1117.20925910 55.09600570 -66.97840353     6    350    0    0    0
H 1118.91170461 52.32671133 -67.70432649     6    350    0    0    0
H 1113.25024416 34.49789972 -35.69419919     6     355    0    0    0 
C 1114.43807720 33.01104949 -36.60181058     1     354    356    357    358
H 1114.24504507 31.38026555 -35.39705763     6     355    0    0    0
H 1114.07287508 32.61597861 -38.58235919     6     355    0    0    0
C 1117.17803175 33.67397505 -36.30109845     2     355    359    360    361
H 1117.59393314 33.68893740 -34.25723603     6     358    0    0    0
H 1118.42320029 32.28077896 -37.23372740     6     358    0    0    0
C 1117.91582400 36.09262251 -37.87613904     2     358    362   363   364
H 1117.42952052 35.59649086 -39.88189274     6     361    0    0    0
H 1116.83845461 37.55629062 -37.27334119     6     361    0    0    0
C 1120.67340112 36.77838158 -37.35478059     2     361   365   366   367
H 1120.89157034 37.33678939 -35.44172409     6    364    0    0    0
H 1121.96691932 35.11085562 -37.74688735     6    364    0    0    0
C 1121.69579476 38.93049181 -39.07824860     2    364   368   369   370
H 1122.35141494 38.17409745 -40.91811784     6    367    0    0    0
H 1120.30401323 40.33135091 -39.49718807     6    367    0    0    0
C 1124.08484880 40.31357552 -37.93324451     2    367   371   372   373
H 1123.50663099 41.49523578 -36.29488648     6    370    0    0    0
H 1125.23266824 38.91870376 -36.99323478     6    370    0    0    0
C 1125.62919767 42.06589167 -39.78234508     2    370   374   375   376
H 1126.32919976 40.92514899 -41.16826440     6    373    0    0    0
H 1124.37212022 43.57845353 -40.56229870     6    373    0    0    0
C 1128.11167919 43.33277354 -38.67792620     2    373   377   378   379
H 1127.49472637 44.76806687 -37.40895330     6    376    0    0    0
H 1129.26341100 41.86776633 -37.70702045     6    376    0    0    0
C 1129.88961823 44.64668173 -40.61768505     2    376   380   381   382
H 1131.06622230 43.19779822 -41.64028775     6    379    0    0    0
H 1128.69082159 45.64688084 -42.00323771     6    379    0    0    0
C 1131.45713820 46.70596659 -39.13348978     2    379   383   384   385
H 1130.09728534 47.92644734 -38.11923178     6    382    0    0    0
H 1132.54324514 45.87728857 -37.76531333     6    382    0    0    0
C 1133.16266635 48.34121428 -40.82778828     2    382   386   387   388
H 1134.37964971 49.59220477 -39.64953800     6    385    0    0    0
H 1134.41207700 47.20979838 -42.00893351     6    385    0    0    0
C 1131.78190800 50.08576954 -42.60061321     1    385   389   390   391
H 1130.69606221 51.56932357 -41.54886733     6    388    0    0    0
H 1130.55294500 49.01677763 -43.83852988     6    388    0    0    0
H 1132.96605901 51.04276338 -43.95294966     6    388    0    0    0
H 1114.97778947 41.54718664 -88.89113021     6     393    0    0    0 
C 1114.38070117 40.43763570 -87.38409210     1     392    394    395    396
H 1113.75035048 38.68448682 -88.17990253     6     393    0    0    0
H 1116.12300535 39.96662538 -86.35970493     6     393    0    0    0
C 1112.67082971 41.76486785 -85.48902740     2     393    397    398    399
H 1113.22026566 43.58860011 -84.77429228     6     396    0    0    0
H 1110.74155572 42.09711844 -86.18004741     6     396    0    0    0
C 1112.26855762 39.92010978 -83.27782571     2     396    400   401   402
H 1111.29503493 38.17927391 -83.81504672     6     399    0    0    0
H 1113.89212517 39.50373333 -82.25586169     6     399    0    0    0
C 1110.32948332 41.00183978 -81.35905562     2     399   403   404   405
H 1111.31475858 42.30240673 -80.16153990     6    402    0    0    0
H 1108.81457274 42.07111755 -82.25428829     6    402    0    0    0
C 1109.00547388 39.03646825 -79.61358451     2    402   406   407   408
H 1107.92769072 38.05056941 -80.84531905     6    405    0    0    0
H 1110.34002116 37.79975025 -78.65451538     6    405    0    0    0
C 1107.38384921 40.13855759 -77.40263934     2    405   409   410   411
H 1108.59305532 41.33219882 -76.32276341     6    408    0    0    0
H 1105.87689966 41.40115625 -77.97508454     6    408    0    0    0
C 1106.35264602 37.91297106 -75.95854971     2    408   412   413   414
H 1105.56872331 36.41211942 -77.22553095     6    411    0    0    0
H 1107.87373891 36.84613588 -75.01116114     6    411    0    0    0
C 1104.48033020 38.57022643 -73.77454830     2    411   415   416   417
H 1105.42547870 40.02747944 -72.53871179     6    414    0    0    0
H 1102.63001293 39.33005362 -74.30998370     6    414    0    0    0
C 1103.73285204 36.24011458 -72.17777875     2    414   418   419   420
H 1103.18989459 34.57631083 -73.26584299     6    417    0    0    0
H 1105.45880325 35.56455555 -71.26318373     6    417    0    0    0
C 1101.86243863 36.80788434 -70.03737915     2    417   421   422   423
H 1102.70343137 38.30357757 -68.88991708     6    420    0    0    0
H 1100.09956852 37.41614887 -70.99943712     6    420    0    0    0
C 1101.40641167 34.42075997 -68.41663553     2    420   424   425   426
H 1099.67690611 34.67011969 -67.29961092     6    423    0    0    0
H 1100.54474216 33.02083756 -69.53765592     6    423    0    0    0
C 1103.41109989 33.30656307 -66.73948787     1    423   427   428   429
H 1102.83255455 31.64581224 -65.69438611     6    426    0    0    0
H 1104.25523271 34.63466451 -65.31418813     6    426    0    0    0
H 1104.90529923 32.86080645 -67.98719763     6    426    0    0    0
H 1091.89712886 50.21517118 -55.56551527     6     431    0    0    0 
C 1093.85523851 50.97214163 -55.68543891     1     430    432    433    434
H 1093.61347660 52.88435923 -55.38292973     6     431    0    0    0
H 1095.29445460 50.43599487 -54.24730998     6     431    0    0    0
C 1094.76647017 50.30986928 -58.50046311     2     431    435    436    437
H 1095.42903398 48.35265769 -58.59746831     6     434    0    0    0
H 1093.38214952 50.71166633 -60.02009695     6     434    0    0    0
C 1097.08844061 52.10285894 -59.13112327     2     434    438   439   440
H 1096.52380294 54.08800497 -58.66223194     6     437    0    0    0
H 1098.71140335 51.49775676 -57.93241198     6     437    0    0    0
C 1098.14400510 51.88496644 -61.94040737     2     437   441   442   443
H 1100.06152007 52.65154624 -61.68959588     6    440    0    0    0
H 1098.38573811 49.90116070 -62.46986842     6    440    0    0    0
C 1096.78872397 53.21254265 -64.06346406     2    440   444   445   446
H 1095.03739890 52.20119814 -64.56329198     6    443    0    0    0
H 1096.42860550 55.28139100 -63.73221532     6    443    0    0    0
C 1098.52757208 53.06069461 -66.38106580     2    443   447   448   449
H 1100.11246042 54.29628765 -65.86608014     6    446    0    0    0
H 1099.38296124 51.12565054 -66.47826681     6    446    0    0    0
C 1097.22508473 53.88256444 -68.84803766     2    446   450   451   452
H 1095.40507294 52.97168242 -69.26103711     6    449    0    0    0
H 1097.01399139 55.95034389 -69.01394589     6    449    0    0    0
C 1098.93712380 53.05894556 -70.93958104     2    449   453   454   455
H 1100.73004480 54.00006611 -70.75736764     6    452    0    0    0
H 1099.16673225 51.02963730 -70.95049922     6    452    0    0    0
C 1098.17854460 54.01988786 -73.62679640     2    452   456   457   458
H 1096.71998049 52.86933552 -74.59560083     6    455    0    0    0
H 1097.45621634 55.91249727 -73.38919176     6    455    0    0    0
C 1100.47728136 54.30674033 -75.44758254     2    455   459   460   461
H 1100.22140354 54.76478889 -77.42886079     6    458    0    0    0
H 1101.73785049 55.86614190 -74.68057831     6    458    0    0    0
C 1102.02509145 51.76895255 -75.56022155     2    458   462   463   464
H 1103.09315700 51.73839404 -73.84889443     6    461    0    0    0
H 1100.72642120 50.24311398 -75.53771926     6    461    0    0    0
C 1103.85771710 51.39264304 -77.77929211     1    461   465   466   467
H 1105.46725319 52.74003844 -77.45474491     6    464    0    0    0
H 1102.97856091 51.72741436 -79.63312244     6    464    0    0    0
H 1104.75051971 49.61901207 -77.69098787     6    464    0    0    0
H 1126.77093431 52.39367847 -37.32107370     6     469    0    0    0 
C 1124.97132860 53.24840568 -36.84726351     1     468    470    471    472
H 1125.00012240 53.81993106 -34.92010825     6     469    0    0    0
H 1124.87683637 54.97733812 -38.06754504     6     469    0    0    0
C 1122.88429138 51.25349757 -37.08495794     2     469    473    474    475
H 1121.03786832 52.13480094 -36.58534796     6     472    0    0    0
H 1122.61445462 50.51478184 -39.06036277     6     472    0    0    0
C 1123.23028864 49.18624985 -35.08357598     2     472    476   477   478
H 1124.96383930 48.24942978 -35.50134207     6     475    0    0    0
H 1123.25658561 50.02342536 -33.30841936     6     475    0    0    0
C 1121.07912826 47.23367886 -35.16231043     2     475   479   480   481
H 1119.28527386 48.22551838 -34.84223900     6    478    0    0    0
H 1120.87329108 46.64538944 -37.11975735     6    478    0    0    0
C 1121.34114800 45.17695746 -33.17652286     2    478   482   483   484
H 1123.30035962 44.30804220 -33.05983931     6    481    0    0    0
H 1120.94454273 45.98334177 -31.18733998     6    481    0    0    0
C 1119.26184887 43.26177932 -33.53877838     2    481   485   486   487
H 1117.39977296 44.19464297 -33.70618573     6    484    0    0    0
H 1119.48819449 41.92765299 -35.12294690     6    484    0    0    0
C 1118.98053378 41.55569398 -31.18464984     2    484   488   489   490
H 1120.60290501 40.22715588 -31.06666449     6    487    0    0    0
H 1118.92140548 42.52957910 -29.32620214     6    487    0    0    0
C 1116.70133079 39.77633671 -31.15501191     2    487   491   492   493
H 1114.98381779 40.77307733 -31.10977042     6    490    0    0    0
H 1116.48127968 38.96175595 -32.99732493     6    490    0    0    0
C 1116.94835981 37.65523585 -29.16715625     2    490   494   495   496
H 1118.68305629 36.48657853 -29.16139262     6    493    0    0    0
H 1117.13325048 38.38403892 -27.26113081     6    493    0    0    0
C 1114.77352370 35.65609167 -29.27992429     2    493   497   498   499
H 1112.98336496 36.61053305 -29.21200364     6    496    0    0    0
H 1114.86380411 34.43540084 -31.06358098     6    496    0    0    0
C 1114.82366818 33.75605616 -27.18358260     2    496   500   501   502
H 1116.79224788 33.56660800 -26.41161893     6    499    0    0    0
H 1113.58882124 34.40150621 -25.74950869     6    499    0    0    0
C 1113.66946851 31.11533974 -27.96726813     1    499   503   504   505
H 1112.82054702 30.02126233 -26.44749302     6    502    0    0    0
H 1115.32824041 30.03938250 -28.70067576     6    502    0    0    0
H 1112.28175244 31.23170818 -29.53833899     6    502    0    0    0
H 1091.24235438 38.77349128 -49.14651682     6     507    0    0    0 
C 1091.50882050 36.68039645 -49.59351604     1     506    508    509    510
H 1093.42608405 36.18714893 -48.80464581     6     507    0    0    0
H 1090.21990986 35.47036081 -48.53259711     6     507    0    0    0
C 1091.67602229 36.31332491 -52.44097571     2     507    511    512    513
H 1091.66719013 34.21945617 -52.83959441     6     510    0    0    0
H 1089.97770287 37.02113202 -53.30329398     6     510    0    0    0
C 1093.90788840 37.87938071 -53.88432628     2     510    514   515   516
H 1093.97649271 39.84237102 -53.37935659     6     513    0    0    0
H 1095.74505756 36.94019590 -53.74647416     6     513    0    0    0
C 1093.56210151 37.56420606 -56.78111202     2     513   517   518   519
H 1093.86394168 35.60852510 -57.34682726     6    516    0    0    0
H 1091.64393050 38.14117889 -57.28950334     6    516    0    0    0
C 1095.46504331 38.94093615 -58.38228861     2    516   520   521   522
H 1095.65674747 40.92982686 -58.06210822     6    519    0    0    0
H 1097.38112023 38.46983946 -57.68184976     6    519    0    0    0
C 1095.23430717 38.51887276 -61.19606477     2    519   523   524   525
H 1095.96876307 36.77642534 -61.90389760     6    522    0    0    0
H 1093.18751064 38.38773173 -61.42483046     6    522    0    0    0
C 1096.61031262 40.71287536 -62.72543215     2    522   526   527   528
H 1096.26342825 42.53568908 -61.82417518     6    525    0    0    0
H 1098.57317928 40.32083323 -62.53717090     6    525    0    0    0
C 1095.60093868 40.61885369 -65.50596159     2    525   529   530   531
H 1095.80083779 38.75057043 -66.50474646     6    528    0    0    0
H 1093.51729691 40.92632543 -65.43459346     6    528    0    0    0
C 1096.53572073 42.64036604 -67.31843615     2    528   532   533   534
H 1096.51386694 44.55443581 -66.23313967     6    531    0    0    0
H 1098.45127699 41.98295216 -67.66726107     6    531    0    0    0
C 1095.11833819 42.91862150 -69.76414158     2    531   535   536   537
H 1095.33970672 41.18453880 -70.78187339     6    534    0    0    0
H 1093.04091672 42.94687957 -69.41343562     6    534    0    0    0
C 1095.80673898 45.03596194 -71.57963898     2    534   538   539   540
H 1094.99462857 46.70668020 -70.71388623     6    537    0    0    0
H 1097.87204153 45.26255138 -71.41646767     6    537    0    0    0
C 1094.88065392 44.72982080 -74.27189083     1    537   541   542   543
H 1095.22454379 46.37901580 -75.33871904     6    540    0    0    0
H 1092.87918656 44.15820492 -74.31794974     6    540    0    0    0
H 1095.82223584 43.12162662 -75.16096108     6    540    0    0    0
H 1112.03764530 46.21249682 -64.33110711     6     545    0    0    0 
C 1113.31429316 45.20067834 -65.49615877     1     544    546    547    548
H 1113.62497528 43.25865014 -65.04318895     6     545    0    0    0
H 1112.57435085 44.98177798 -67.53030964     6     545    0    0    0
C 1115.94464110 46.37647301 -65.60509452     2     545    549    550    551
H 1115.74308399 48.28108227 -66.30371988     6     548    0    0    0
H 1116.81159604 46.69461690 -63.71429534     6     548    0    0    0
C 1117.76605115 45.16453298 -67.50017442     2     548    552   553   554
H 1117.65717427 42.99125895 -67.46971347     6     551    0    0    0
H 1117.40720188 45.70461263 -69.43208177     6     551    0    0    0
C 1120.58612102 45.77736428 -66.88997704     2     551   555   556   557
H 1120.83417430 47.75591804 -66.98185933     6    554    0    0    0
H 1121.12701512 45.24000004 -64.94019901     6    554    0    0    0
C 1122.45296772 44.30548129 -68.53716017     2    554   558   559   560
H 1122.29921616 42.24277413 -68.01470640     6    557    0    0    0
H 1121.87711048 44.46716527 -70.45698157     6    557    0    0    0
C 1125.03984706 45.56361609 -68.22494327     2    557   561   562   563
H 1124.73144395 47.55793363 -68.71033945     6    560    0    0    0
H 1125.63826976 45.28414955 -66.28964345     6    560    0    0    0
C 1126.99757732 44.43034709 -69.97321162     2    560   564   565   566
H 1127.15646813 42.39316033 -69.87315388     6    563    0    0    0
H 1126.26386710 44.72407277 -71.88710234     6    563    0    0    0
C 1129.58139836 45.56596627 -69.48126228     2    563   567   568   569
H 1129.42352374 47.53891458 -69.59043883     6    566    0    0    0
H 1130.01802903 45.23323165 -67.47618816     6    566    0    0    0
C 1131.59233453 44.28510821 -71.22510777     2    566   570   571   572
H 1131.38451681 42.27017001 -71.14899101     6    569    0    0    0
H 1131.16740288 44.84648930 -73.22315368     6    569    0    0    0
C 1134.29668461 44.53724112 -70.40850794     2    569   573   574   575
H 1134.93094565 46.42028073 -70.56663108     6    572    0    0    0
H 1134.47408997 44.05777363 -68.39663505     6    572    0    0    0
C 1136.12239170 43.06047872 -72.23844967     2    572   576   577   578
H 1135.75576138 43.33941371 -74.20188256     6    575    0    0    0
H 1138.10436476 43.68541778 -72.03191225     6    575    0    0    0
C 1136.24042485 40.24338794 -71.74367656     1    575   579   580   581
H 1134.35487686 39.62131358 -72.27274711     6    578    0    0    0
H 1136.68136106 39.70966552 -69.80587880     6    578    0    0    0
H 1137.66018069 39.35447052 -72.69648024     6    578    0    0    0
H 1128.81889205 36.81096431 -40.12724887     6     583    0    0    0 
C 1130.50060068 35.51915915 -39.57498441     1     582    584    585    586
H 1130.36284800 34.88630340 -37.67038065     6     583    0    0    0
H 1130.37928210 33.94706203 -40.95188977     6     583    0    0    0
C 1132.77216468 37.14496571 -39.97384671     2     583    587    588    589
H 1132.41513991 37.79535655 -42.00074911     6     586    0    0    0
H 1132.62734851 38.67898170 -38.55799793     6     586    0    0    0
C 1135.32802054 35.86794123 -39.65403121     2     586    590   591   592
H 1135.29396048 34.86034680 -37.87016637     6     589    0    0    0
H 1135.48469605 34.52573464 -41.05690794     6     589    0    0    0
C 1137.76662269 37.50818113 -39.62472973     2     589   593   594   595
H 1137.73360100 38.44804945 -41.52009935     6    592    0    0    0
H 1137.83072981 38.82788522 -38.03040907     6    592    0    0    0
C 1140.21502325 36.09546537 -39.65528349     2    592   596   597   598
H 1140.67416978 35.37755114 -37.68010511     6    595    0    0    0
H 1140.08186447 34.45604606 -40.72569535     6    595    0    0    0
C 1142.41964322 37.71674679 -40.61740141     2    595   599   600   601
H 1142.11903866 39.71394039 -40.18162928     6    598    0    0    0
H 1144.22209912 37.14780993 -39.75328431     6    598    0    0    0
C 1142.62167665 37.54165669 -43.59335379     2    598   602   603   604
H 1142.71292309 35.78748045 -44.54204255     6    601    0    0    0
H 1140.87913080 38.31304695 -44.29798487     6    601    0    0    0
C 1144.71444809 39.18020780 -44.60921475     2    601   605   606   607
H 1144.16330444 41.18455911 -44.20755254     6    604    0    0    0
H 1146.58503244 38.64243011 -43.81132504     6    604    0    0    0
C 1145.00205824 39.04283661 -47.55679221     2    604   608   609   610
H 1145.96603232 37.25305898 -47.91249911     6    607    0    0    0
H 1143.13471370 39.07159092 -48.54423251     6    607    0    0    0
C 1146.62656918 41.19699026 -48.62952868     2    607   611   612   613
H 1145.54973318 42.91581812 -48.09684913     6    610    0    0    0
H 1148.48900548 41.28842524 -47.76611306     6    610    0    0    0
C 1146.77870583 40.95178086 -51.42265097     2    610   614   615   616
H 1147.13075498 38.98740526 -51.79843151     6    613    0    0    0
H 1144.97707880 41.51734238 -52.20359663     6    613    0    0    0
C 1148.71894048 42.60275829 -52.62106321     1    613   617   618   619
H 1147.99480384 43.14374485 -54.54300622     6    616    0    0    0
H 1150.46645046 41.67834911 -52.80778036     6    616    0    0    0
H 1149.02233048 44.28865857 -51.62515954     6    616    0    0    0
H 1118.38025780 24.02506589 -67.68727189     6     621    0    0    0 
C 1117.68194644 23.60122387 -65.86678900     1     620    622    623    624
H 1117.75177388 25.27176398 -64.69452411     6     621    0    0    0
H 1115.69198577 22.92950016 -66.18862412     6     621    0    0    0
C 1118.92658018 21.35126481 -64.58884651     2     621    625    626    627
H 1117.88188919 20.98696615 -62.75729796     6     624    0    0    0
H 1118.66941931 19.80559869 -65.94540093     6     624    0    0    0
C 1121.80951047 21.71152812 -64.24498007     2     624    628   629   630
H 1122.76949375 22.05582833 -66.02674285     6     627    0    0    0
H 1122.13465927 23.62253210 -63.45213037     6     627    0    0    0
C 1123.06983591 19.74033792 -62.59490455     2     627   631   632   633
H 1124.89377860 20.39902449 -61.86968959     6    630    0    0    0
H 1121.68879740 19.49656222 -61.16979941     6    630    0    0    0
C 1123.41093344 17.24595943 -63.98398071     2    630   634   635   636
H 1121.55134768 16.71427744 -64.76883043     6    633    0    0    0
H 1124.72131296 17.27714779 -65.47763185     6    633    0    0    0
C 1124.28796689 15.00143535 -62.30613087     2    633   637   638   639
H 1125.93673395 15.46157617 -61.13354361     6    636    0    0    0
H 1122.80903972 14.58915938 -61.00901278     6    636    0    0    0
C 1124.74248820 12.54754946 -63.70329101     2    636   640   641   642
H 1123.37752493 12.24871286 -65.35476912     6    639    0    0    0
H 1126.53132606 12.81191347 -64.71435909     6    639    0    0    0
C 1124.79769496 10.30114349 -61.86661006     2    639   643   644   645
H 1126.19453386 10.85941407 -60.60401681     6    642    0    0    0
H 1123.06492826 10.18835000 -60.89947406     6    642    0    0    0
C 1125.77435919 7.72988245 -63.02629137     2    642   646   647   648
H 1124.41340507 7.32256736 -64.49792132     6    645    0    0    0
H 1127.50438775 8.23954453 -63.98198320     6    645    0    0    0
C 1126.05440680 5.65375004 -61.12798591     2    645   649   650   651
H 1127.06555834 6.47771796 -59.40108307     6    648    0    0    0
H 1124.22125178 5.18592011 -60.30729381     6    648    0    0    0
C 1127.16354833 3.23153368 -62.36398658     2    648   652   653   654
H 1126.19472106 3.15386674 -64.06584192     6    651    0    0    0
H 1129.02083678 3.66865661 -63.12846714     6    651    0    0    0
C 1126.91690345 0.70779429 -60.95125026     1    651   655   656   657
H 1124.88454835 0.14505007 -60.69179541     6    654    0    0    0
H 1127.86385695 0.90292139 -59.28672331     6    654    0    0    0
H 1127.75982589 -0.89287719 -62.07847423     6    654    0    0    0
H 1132.87887048 30.75259525 -43.12025721     6     659    0    0    0 
C 1133.22995141 30.01505311 -45.01235177     1     658    660    661    662
H 1135.14760775 30.10296180 -45.32337925     6     659    0    0    0
H 1132.63562440 27.96099280 -44.64153286     6     659    0    0    0
C 1131.38255597 31.46886291 -46.86213753     2     659    663    664    665
H 1131.16414385 30.53008759 -48.61328986     6     662    0    0    0
H 1129.40040136 31.36388711 -45.96177331     6     662    0    0    0
C 1132.22529721 34.24882191 -47.24865188     2     662    666   667   668
H 1130.42800907 35.05493884 -47.94856883     6     665    0    0    0
H 1132.58704086 35.11877164 -45.49240780     6     665    0    0    0
C 1134.40674283 34.80836118 -49.11244096     2     665   669   670   671
H 1135.64278550 33.04093230 -48.97596233     6    668    0    0    0
H 1133.60325639 34.78009767 -51.01643325     6    668    0    0    0
C 1135.98669908 37.08256902 -48.34288102     2    668   672   673   674
H 1134.78384336 38.54922152 -47.61843428     6    671    0    0    0
H 1137.06254777 36.64689671 -46.60338316     6    671    0    0    0
C 1137.81555534 38.14299306 -50.44296579     2    671   675   676   677
H 1139.15329510 39.19260799 -49.40273757     6    674    0    0    0
H 1138.75366484 36.59858656 -51.44187545     6    674    0    0    0
C 1136.15989025 39.92192288 -52.12711021     2    674   678   679   680
H 1134.31555109 39.17585437 -52.30124429     6    677    0    0    0
H 1136.26389120 41.70107434 -51.28109626     6    677    0    0    0
C 1137.27578151 40.04816365 -54.80632215     2    677   681   682   683
H 1139.28128818 40.57336990 -54.61763104     6    680    0    0    0
H 1137.26317603 38.05444651 -55.53145925     6    680    0    0    0
C 1135.89673600 41.82526186 -56.61500221     2    680   684   685   686
H 1133.93780180 41.00894994 -56.96031728     6    683    0    0    0
H 1135.66315077 43.77957156 -55.83152406     6    683    0    0    0
C 1137.21593604 41.97185126 -59.25480866     2    683   687   688   689
H 1139.26393156 42.51022151 -59.05698705     6    686    0    0    0
H 1137.16271842 40.05861194 -60.14932012     6    686    0    0    0
C 1136.10241757 43.86511557 -61.18503338     2    686   690   691   692
H 1134.10573326 43.34047095 -61.56797699     6    689    0    0    0
H 1136.20843211 45.89652011 -60.35527465     6    689    0    0    0
C 1137.65811920 43.79529957 -63.63148500     1    689   693   694   695
H 1137.27775126 45.42196232 -64.94460193     6    692    0    0    0
H 1137.30000633 42.11813650 -64.79027612     6    692    0    0    0
H 1139.68088705 43.61536416 -63.25444093     6    692    0    0    0
H 1125.65901939 45.44275764 -77.10591731     6     697    0    0    0 
C 1127.48617685 44.88751591 -77.87808629     1     696    698    699    700
H 1128.64769656 46.60407301 -77.95860528     6     697    0    0    0
H 1128.38855871 43.64936782 -76.45902297     6     697    0    0    0
C 1126.72787990 43.92667316 -80.46189239     2     697    701    702    703
H 1128.27912054 43.35989472 -81.73077872     6     700    0    0    0
H 1125.49705054 42.26519824 -80.27063348     6     700    0    0    0
C 1125.10907753 45.90655423 -82.05319204     2     700    704   705   706
H 1125.86383933 47.86809165 -82.03550278     6     703    0    0    0
H 1124.89573802 45.02450256 -83.98804724     6     703    0    0    0
C 1122.51377779 46.16063594 -80.75814378     2     703   707   708   709
H 1121.75368809 44.24919935 -80.36663409     6    706    0    0    0
H 1122.51216819 47.08929322 -78.95867710     6    706    0    0    0
C 1120.69949320 47.76653278 -82.40731554     2    706   710   711   712
H 1121.54343003 49.62654410 -82.56929918     6    709    0    0    0
H 1120.58760259 47.00582156 -84.30903038     6    709    0    0    0
C 1118.09123646 47.78163384 -81.28171991     2    709   713   714   715
H 1117.11185223 45.94333879 -81.05327892     6    712    0    0    0
H 1117.94579269 48.56802799 -79.50012380     6    712    0    0    0
C 1116.33855042 49.51025229 -82.80360280     2    712   716   717   718
H 1117.07006189 51.52099274 -82.61004427     6    715    0    0    0
H 1116.18068880 48.69833366 -84.68274829     6    715    0    0    0
C 1113.63543711 49.86053426 -81.64064564     2    715   719   720   721
H 1112.66889207 48.06788857 -81.37298183     6    718    0    0    0
H 1113.79226542 50.65912370 -79.75446070     6    718    0    0    0
C 1111.77941704 51.47092913 -83.27286409     2    718   722   723   724
H 1112.54238084 53.41035146 -83.49372282     6    721    0    0    0
H 1111.78362238 50.90759129 -85.22690312     6    721    0    0    0
C 1109.20996887 51.12601699 -82.26566434     2    721   725   726   727
H 1108.76035794 49.02353763 -82.51102319     6    724    0    0    0
H 1109.19934095 51.25455351 -80.29008491     6    724    0    0    0
C 1107.19375942 52.60478809 -83.60766494     2    724   728   729   730
H 1107.38354640 52.31115061 -85.70486199     6    727    0    0    0
H 1105.35713084 51.84282417 -83.15887090     6    727    0    0    0
C 1107.16898888 55.60131916 -82.95094686     1    727   731   732   733
H 1105.93634538 56.57300655 -84.23803383     6    730    0    0    0
H 1109.13138246 56.36532826 -83.09213461     6    730    0    0    0
H 1106.22803508 55.79434557 -81.16172472     6    730    0    0    0
H 1119.24621730 60.69465847 -38.74058010     6     735    0    0    0 
C 1118.18730258 60.02340470 -40.36066453     1     734    736    737    738
H 1117.51865951 61.79639437 -41.16259844     6     735    0    0    0
H 1119.55706575 59.14374702 -41.56703821     6     735    0    0    0
C 1115.90211257 58.44683373 -39.62140313     2     735    739    740    741
H 1114.83871255 59.22782955 -38.11053592     6     738    0    0    0
H 1114.57751029 58.42482676 -41.17298377     6     738    0    0    0
C 1116.54471005 55.63381875 -39.06274112     2     738    742   743   744
H 1117.34303480 54.61292789 -40.61799887     6     741    0    0    0
H 1117.92693110 55.39492725 -37.55769548     6     741    0    0    0
C 1114.05884286 54.18416683 -38.45029281     2     741   745   746   747
H 1112.81556412 55.29812319 -37.21008984     6    744    0    0    0
H 1113.11637948 54.08938395 -40.29651721     6    744    0    0    0
C 1114.62929416 51.66710730 -37.27551769     2    744   748   749   750
H 1115.84741704 50.76121471 -38.53629182     6    747    0    0    0
H 1115.53522874 51.73258760 -35.39364619     6    747    0    0    0
C 1112.19514993 49.98865937 -37.25009659     2    747   751   752   753
H 1110.61078936 50.94330343 -36.24274572     6    750    0    0    0
H 1111.41782433 49.95214487 -39.15192408     6    750    0    0    0
C 1112.77402284 47.29567709 -36.11326621     2    750   754   755   756
H 1114.56406782 46.68071340 -37.05650731     6    753    0    0    0
H 1113.50077519 47.31856107 -34.22263227     6    753    0    0    0
C 1110.57006289 45.40103449 -36.41517562     2    753   757   758   759
H 1109.03826585 46.03583574 -35.19685374     6    756    0    0    0
H 1110.09294030 45.15851770 -38.27253572     6    756    0    0    0
C 1111.06298586 42.69614490 -35.31936878     2    756   760   761   762
H 1112.54816752 41.80444199 -36.30497864     6    759    0    0    0
H 1111.80445223 42.69622695 -33.40562903     6    759    0    0    0
C 1108.63150989 41.07701638 -35.30848821     2    759   763   764   765
H 1107.13016169 42.20992026 -34.62302562     6    762    0    0    0
H 1107.92656833 40.93145626 -37.28818833     6    762    0    0    0
C 1108.93354601 38.53156873 -34.12732217     2    762   766   767   768
H 1110.14427705 37.61812829 -35.56796434     6    765    0    0    0
H 1110.10511034 38.52848137 -32.46068540     6    765    0    0    0
C 1106.48593033 37.15844165 -33.45331721     1    765   769   770   771
H 1105.52365455 38.25221401 -32.02312402     6    768    0    0    0
H 1106.75535849 35.17668666 -32.85020838     6    768    0    0    0
H 1105.32145992 37.17886034 -35.16822275     6    768    0    0    0
H 1115.85593782 13.76462433 -61.11917034     6     773    0    0    0 
C 1116.20394351 12.04143170 -62.39691884     1     772    774    775    776
H 1118.10999583 12.00192818 -63.18243969     6     773    0    0    0
H 1115.95741870 10.19116293 -61.40339518     6     773    0    0    0
C 1114.42301200 12.42227210 -64.61773397     2     773    777    778    779
H 1114.37596526 11.01686837 -66.11560202     6     776    0    0    0
H 1112.51733782 12.19956495 -63.81642608     6     776    0    0    0
C 1114.78224649 14.93295061 -65.99346205     2     776    780   781   782
H 1115.17764787 16.39461618 -64.69015792     6     779    0    0    0
H 1116.57664910 14.75633367 -66.93766561     6     779    0    0    0
C 1112.51988691 15.55527899 -67.58278136     2     779   783   784   785
H 1111.97547501 14.12517830 -69.12757574     6    782    0    0    0
H 1110.98680820 15.65168960 -66.08878242     6    782    0    0    0
C 1112.94613319 18.32418566 -68.65496653     2    782   786   787   788
H 1113.18838176 19.46626533 -66.96717207     6    785    0    0    0
H 1114.56180001 18.47825776 -69.77470328     6    785    0    0    0
C 1110.59821097 19.29717901 -69.99640569     2    785   789   790   791
H 1110.09316548 18.07760258 -71.62739741     6    788    0    0    0
H 1109.10032452 19.09846070 -68.72899213     6    788    0    0    0
C 1110.68510024 22.06862861 -70.84497043     2    788   792   793   794
H 1111.19597024 23.05742288 -69.25372733     6    791    0    0    0
H 1112.24338316 22.45670208 -72.05094537     6    791    0    0    0
C 1108.30381497 23.03177256 -71.99086928     2    791   795   796   797
H 1107.63568975 21.84393615 -73.52729849     6    794    0    0    0
H 1106.91516387 22.82337656 -70.53783660     6    794    0    0    0
C 1108.25863871 25.87692010 -72.84272848     2    794   798   799   800
H 1108.79306581 26.99817353 -71.27841349     6    797    0    0    0
H 1109.70039038 26.13948847 -74.24931426     6    797    0    0    0
C 1105.68239451 26.65880710 -74.07086770     2    797   801   802   803
H 1105.21936001 25.22857461 -75.44544297     6    800    0    0    0
H 1104.32670349 26.77783704 -72.61613430     6    800    0    0    0
C 1105.94070683 29.27065395 -75.32879720     2    800   804   805   806
H 1105.82101483 30.62281210 -73.73369943     6    803    0    0    0
H 1107.90578850 29.55078737 -76.19368329     6    803    0    0    0
C 1103.80815830 29.75720729 -77.23218967     1    803   807   808   809
H 1104.09030774 31.62830408 -78.07421736     6    806    0    0    0
H 1102.14931466 29.60792743 -76.03475563     6    806    0    0    0
H 1103.47017643 28.31907618 -78.62757024     6    806    0    0    0
H 1123.54702407 33.99304775 -42.78958641     6     811    0    0    0 
C 1124.55038364 32.36348322 -43.41876791     1     810    812    813    814
H 1125.81228142 32.96247108 -45.02631279     6     811    0    0    0
H 1125.78730503 31.60055073 -41.94900933     6     811    0    0    0
C 1122.83570119 30.07190012 -44.05444428     2     811    815    816    817
H 1121.75223956 30.48458729 -45.74349138     6     814    0    0    0
H 1123.92049723 28.41547995 -44.81864394     6     814    0    0    0
C 1121.23256228 29.21618290 -41.81557101     2     814    818   819   820
H 1122.51456194 28.48131816 -40.48429234     6     817    0    0    0
H 1120.00253628 30.74142057 -41.00394811     6     817    0    0    0
C 1119.35518631 27.07603066 -42.59618752     2     817   821   822   823
H 1118.36622513 27.25529731 -44.41000324     6    820    0    0    0
H 1120.53153981 25.42113723 -43.28179357     6    820    0    0    0
C 1117.47015975 26.31202572 -40.55687204     2    820   824   825   826
H 1118.49740409 25.70572081 -38.87112743     6    823    0    0    0
H 1116.19936118 27.97764704 -40.08581296     6    823    0    0    0
C 1115.79672187 24.17854137 -41.45814136     2    823   827   828   829
H 1114.60506210 24.96174098 -42.89585046     6    826    0    0    0
H 1116.84753106 22.54702635 -42.41853647     6    826    0    0    0
C 1114.05086428 23.28062789 -39.29643164     2    826   830   831   832
H 1115.47318538 22.14760744 -38.27567759     6    829    0    0    0
H 1113.53553887 24.78941828 -38.00817308     6    829    0    0    0
C 1111.86429961 21.79792458 -40.46506418     2    829   833   834   835
H 1110.60591211 23.07669930 -41.28627309     6    832    0    0    0
H 1112.48565047 20.63343665 -42.02657735     6    832    0    0    0
C 1110.30958596 20.12310066 -38.76343510     2    832   836   837   838
H 1111.41510436 19.29549678 -37.19753626     6    835    0    0    0
H 1109.33821691 21.54377626 -37.73301519     6    835    0    0    0
C 1108.55147280 18.11162059 -39.99161435     2    835   839   840   841
H 1107.91175689 18.89686840 -41.72799510     6    838    0    0    0
H 1109.72846631 16.51924840 -40.59780135     6    838    0    0    0
C 1106.39109701 17.40524606 -38.09422959     2    838   842   843   844
H 1107.09154916 17.41718644 -36.21005437     6    841    0    0    0
H 1105.09875268 18.91169365 -38.12882908     6    841    0    0    0
C 1105.38504548 14.70654248 -38.76652484     1    841   845   846   847
H 1103.45976793 14.21333546 -38.09310226     6    844    0    0    0
H 1106.66294051 13.30162934 -37.87408724     6    844    0    0    0
H 1105.26106344 14.14632243 -40.80540243     6    844    0    0    0
H 1151.65813388 47.32934218 -69.84073319     6     849    0    0    0 
C 1149.93878883 46.91873117 -70.76756307     1     848    850    851    852
H 1149.51557452 48.38280107 -72.06729190     6     849    0    0    0
H 1150.45572593 45.09295639 -71.69007405     6     849    0    0    0
C 1147.85386750 46.54837264 -68.62032478     2     849    853    854    855
H 1147.56218201 48.42509480 -67.77696221     6     852    0    0    0
H 1145.98923096 46.08914737 -69.51516419     6     852    0    0    0
C 1148.83498380 44.94846203 -66.35420773     2     852    856   857   858
H 1149.85227281 43.38227883 -67.13828763     6     855    0    0    0
H 1150.42154730 45.92662866 -65.32101612     6     855    0    0    0
C 1146.63535507 44.19837543 -64.87386950     2     855   859   860   861
H 1146.31742125 45.52374374 -63.21994418     6    858    0    0    0
H 1144.99607210 44.13928667 -66.23396769     6    858    0    0    0
C 1147.12565578 41.65316072 -63.64279142     2    858   862   863   864
H 1147.47412080 40.15664378 -65.07736046     6    861    0    0    0
H 1148.83224651 41.66536668 -62.51986302     6    861    0    0    0
C 1144.71101657 40.57731555 -62.38607120     2    861   865   866   867
H 1143.88264787 41.88167902 -61.04586517     6    864    0    0    0
H 1143.45219197 40.49672366 -64.01285842     6    864    0    0    0
C 1145.30891855 38.11599177 -61.11942888     2    864   868   869   870
H 1145.96447915 36.73592764 -62.52550404     6    867    0    0    0
H 1146.63277302 38.41623581 -59.59285136     6    867    0    0    0
C 1143.10394634 37.05775308 -59.61248035     2    867   871   872   873
H 1142.35928641 38.35605316 -58.22601116     6    870    0    0    0
H 1141.66083010 36.81491151 -60.96609968     6    870    0    0    0
C 1143.43419262 34.38984881 -58.60307566     2    870   874   875   876
H 1141.60239715 33.54432215 -58.66848094     6    873    0    0    0
H 1144.50641339 33.15084867 -59.86336653     6    873    0    0    0
C 1144.42509558 34.55280458 -55.84036883     2    873   877   878   879
H 1146.12176249 35.65594011 -55.90954009     6    876    0    0    0
H 1143.13092143 35.00900626 -54.40298225     6    876    0    0    0
C 1145.30911309 31.79132223 -55.03468127     2    876   880   881   882
H 1143.65972417 30.49099702 -54.85385442     6    879    0    0    0
H 1146.86438557 31.14600520 -56.42723034     6    879    0    0    0
C 1146.60291597 31.90591704 -52.37633854     1    879   883   884   885
H 1145.01697699 31.68303705 -51.02452770     6    882    0    0    0
H 1147.68280396 33.72172827 -51.92954396     6    882    0    0    0
H 1147.89047223 30.41331943 -51.88565714     6    882    0    0    0
H 1112.07594590 25.37625852 -46.72996851     6     887    0    0    0 
C 1112.04749938 26.11285819 -48.66058797     1     886    888    889    890
H 1113.91143174 25.22064121 -49.30746628     6     887    0    0    0
H 1110.45253015 25.15861907 -49.64694436     6     887    0    0    0
C 1111.71902859 28.88016518 -48.85994600     2     887    891    892    893
H 1111.88605388 29.31746357 -50.82074838     6     890    0    0    0
H 1109.73393340 29.52234342 -48.37906488     6     890    0    0    0
C 1113.82577444 30.29387609 -47.40224413     2     890    894   895   896
H 1113.40518342 30.37565068 -45.35849306     6     893    0    0    0
H 1115.59243301 29.27393106 -47.56398829     6     893    0    0    0
C 1114.29074091 33.03280225 -48.47876258     2     893   897   898   899
H 1114.48115359 32.86387629 -50.51918020     6    896    0    0    0
H 1112.86900958 34.39215491 -48.18391616     6    896    0    0    0
C 1116.73222037 33.95640052 -47.25545229     2    896   900   901   902
H 1116.81308240 33.42588330 -45.22496409     6    899    0    0    0
H 1118.28299533 32.95208695 -48.08801457     6    899    0    0    0
C 1117.34460111 36.82462125 -47.67250689     2    899   903   904   905
H 1117.08212320 37.31602991 -49.68984211     6    902    0    0    0
H 1115.68718296 37.85646556 -46.84035136     6    902    0    0    0
C 1119.82321073 37.83252880 -46.52453316     2    902   906   907   908
H 1119.40142786 39.42137715 -45.38386910     6    905    0    0    0
H 1120.65882634 36.31302415 -45.31532741     6    905    0    0    0
C 1121.71621844 38.35608560 -48.52277740     2    905   909   910   911
H 1121.96012019 36.90678291 -50.02999493     6    908    0    0    0
H 1121.15010945 40.13887999 -49.29224831     6    908    0    0    0
C 1124.36703892 38.95044833 -47.26765015     2    908   912   913   914
H 1123.86191513 39.71281251 -45.40362405     6    911    0    0    0
H 1125.57622280 37.33645024 -47.02436678     6    911    0    0    0
C 1126.02151987 41.06812444 -48.61318209     2    911   915   916   917
H 1126.49427499 40.48721736 -50.58639191     6    914    0    0    0
H 1124.89027538 42.81896223 -48.57914280     6    914    0    0    0
C 1128.43837833 41.80194316 -47.16140248     2    914   918   919   920
H 1127.84475755 42.12299191 -45.22811267     6    917    0    0    0
H 1129.46431223 40.12534216 -47.25324449     6    917    0    0    0
C 1130.07194062 43.80795987 -48.47932428     1    917   921   922   923
H 1129.25720154 45.61862545 -48.86672923     6    920    0    0    0
H 1130.81297942 43.14171100 -50.29429250     6    920    0    0    0
H 1131.82182402 44.29794683 -47.50459371     6    920    0    0    0
H 1146.43941958 22.70682076 -61.79361010     6     925    0    0    0 
C 1147.38604460 21.30802839 -60.67703369     1     924    926    927    928
H 1148.52857654 20.13171903 -61.92394034     6     925    0    0    0
H 1148.68006863 22.13149062 -59.44529752     6     925    0    0    0
C 1145.49646704 19.87629965 -59.02035406     2     925    929    930    931
H 1144.09851646 18.91847587 -60.19798025     6     928    0    0    0
H 1146.56972092 18.62642589 -57.96260367     6     928    0    0    0
C 1143.98183969 21.55843637 -56.94250783     2     928    932   933   934
H 1145.49052958 22.58063683 -55.95996179     6     931    0    0    0
H 1142.68506755 22.99426795 -58.04887898     6     931    0    0    0
C 1142.31853906 20.04561824 -55.02311134     2     931   935   936   937
H 1140.90913019 19.28289313 -56.25310222     6    934    0    0    0
H 1143.39865727 18.48789606 -54.32661834     6    934    0    0    0
C 1141.22468554 21.65227651 -52.90745986     2    934   938   939   940
H 1142.75600738 22.63643093 -51.94993130     6    937    0    0    0
H 1139.89559345 23.01859829 -53.73724271     6    937    0    0    0
C 1139.65138085 20.33444048 -50.94874609     2    937   941   942   943
H 1138.39165005 19.44014006 -52.22959689     6    940    0    0    0
H 1140.56920620 18.62271916 -50.07579915     6    940    0    0    0
C 1138.19200735 21.93817811 -48.96082021     2    940   944   945   946
H 1137.55861515 23.51616698 -49.88918929     6    943    0    0    0
H 1136.45916941 21.28895122 -48.04053670     6    943    0    0    0
C 1139.88452936 22.51865465 -46.72962415     2    943   947   948   949
H 1140.45261974 20.83128982 -45.62238019     6    946    0    0    0
H 1141.67444630 23.32424844 -47.27910451     6    946    0    0    0
C 1138.69978356 24.43580853 -44.99844540     2    946   950   951   952
H 1138.63767201 26.17624071 -45.95641151     6    949    0    0    0
H 1136.80632313 24.01742573 -44.35114815     6    949    0    0    0
C 1140.32845872 24.85619641 -42.64571608     2    949   953   954   955
H 1140.30690455 23.26991925 -41.29706228     6    952    0    0    0
H 1142.31837373 24.81673004 -43.22876208     6    952    0    0    0
C 1139.85828490 27.39083601 -41.38738219     2    952   956   957   958
H 1139.19192351 28.89047302 -42.81664260     6    955    0    0    0
H 1138.31795459 27.35069212 -40.02719545     6    955    0    0    0
C 1142.11853047 28.57906546 -40.07756920     1    955   959   960   961
H 1141.64977031 30.52749312 -39.60561404     6    958    0    0    0
H 1143.87287700 28.54578271 -41.28417753     6    958    0    0    0
H 1142.87430541 27.76407652 -38.43352602     6    958    0    0    0
H 1105.48487010 50.00097468 -50.13881730     6     963    0    0    0 
C 1106.79459551 48.42966919 -50.39597962     1     962    964    965    966
H 1108.71437258 49.20287633 -50.63456307     6     963    0    0    0
H 1106.68853435 47.21231087 -48.72465125     6     963    0    0    0
C 1105.88551141 46.79324265 -52.64986509     2     963    967    968    969
H 1107.24040913 45.29971033 -52.93919350     6     966    0    0    0
H 1104.02409718 45.96339632 -52.24074163     6     966    0    0    0
C 1106.08018865 48.19548132 -55.29486724     2     966    970   971   972
H 1105.22889673 50.07449642 -55.00116489     6     969    0    0    0
H 1107.84633727 48.60673418 -56.00385471     6     969    0    0    0
C 1105.01320694 46.47723814 -57.56019359     2     969   973   974   975
H 1106.14649356 44.84153159 -57.63223141     6    972    0    0    0
H 1103.05453675 45.90806345 -57.50999124     6    972    0    0    0
C 1105.55958672 47.84352038 -60.03139253     2    972   976   977   978
H 1105.39171107 49.85360413 -59.74089285     6    975    0    0    0
H 1107.59210184 47.48367654 -60.48829658     6    975    0    0    0
C 1104.06101243 46.80872061 -62.35412520     2    975   979   980   981
H 1104.40691862 44.78690197 -62.49096176     6    978    0    0    0
H 1101.97381424 47.13457593 -61.86930833     6    978    0    0    0
C 1104.55287357 47.85858514 -64.97911475     2    978   982   983   984
H 1104.19710126 49.86593069 -65.36722569     6    981    0    0    0
H 1106.57503779 47.49442067 -65.23735888     6    981    0    0    0
C 1103.43197041 46.31322990 -67.22237643     2    981   985   986   987
H 1104.27460523 44.45990453 -67.26351987     6    984    0    0    0
H 1101.28693131 46.37338387 -66.99256928     6    984    0    0    0
C 1104.20429830 47.36333923 -69.78001451     2    984   988   989   990
H 1102.93360152 46.62639635 -71.14827458     6    987    0    0    0
H 1103.66124305 49.35127514 -69.76816601     6    987    0    0    0
C 1107.01462457 46.81033425 -70.49170589     2    987   991   992   993
H 1108.01468983 47.59502272 -68.95271533     6    990    0    0    0
H 1107.22791128 44.81670111 -70.40239674     6    990    0    0    0
C 1107.90357925 48.08452950 -72.97531456     2    990   994   995   996
H 1106.79094610 47.48270148 -74.59407804     6    993    0    0    0
H 1107.41516028 49.98724356 -72.92283294     6    993    0    0    0
C 1110.79748005 48.04500845 -73.38564903     1    993   997   998   999
H 1111.71470211 49.16110172 -71.86276701     6    996    0    0    0
H 1111.33389622 48.84078352 -75.36475420     6    996    0    0    0
H 1111.42494768 46.09831833 -73.18924003     6    996    0    0    0
H 1095.99707110 38.19531844 -43.16432142     6     1001    0    0    0 
C 1096.01738092 40.14484148 -42.53955561     1     1000    1002    1003    1004
H 1094.15979640 40.66532292 -42.05155075     6     1001    0    0    0
H 1096.94806539 40.50050985 -40.69693956     6     1001    0    0    0
C 1096.96655288 41.69998060 -44.84386466     2     1001    1005    1006    1007
H 1098.96964356 41.27620450 -45.01624861     6     1004    0    0    0
H 1095.99201187 40.97528784 -46.39926215     6     1004    0    0    0
C 1096.55843054 44.60041992 -44.80051726     2     1004    1008   1009   1010
H 1094.50462370 45.06386959 -44.71188496     6     1007    0    0    0
H 1097.50358606 45.38176522 -43.17545226     6     1007    0    0    0
C 1097.58944713 46.00371841 -47.21658521     2     1007   1011   1012   1013
H 1099.56585529 45.45501786 -47.65143327     6    1010    0    0    0
H 1096.60253453 45.27256653 -48.89637832     6    1010    0    0    0
C 1097.23896546 48.86269428 -47.19471702     2    1010   1014   1015   1016
H 1095.25800479 49.46223433 -47.32155026     6    1013    0    0    0
H 1097.95183788 49.65902901 -45.52164410     6    1013    0    0    0
C 1098.69651548 50.24707106 -49.37108266     2    1013   1017   1018   1019
H 1100.74993236 49.99101275 -49.26543088     6    1016    0    0    0
H 1098.27590266 49.66354777 -51.32380650     6    1016    0    0    0
C 1098.13420291 53.12825694 -49.47313825     2    1016   1020   1021   1022
H 1096.02277335 53.50318168 -49.35099403     6    1019    0    0    0
H 1098.60880432 54.07000161 -47.80678437     6    1019    0    0    0
C 1099.16596973 54.48093493 -51.86305953     2    1019   1023   1024   1025
H 1098.24009140 53.68754541 -53.46500559     6    1022    0    0    0
H 1098.76359871 56.60182521 -51.79186667     6    1022    0    0    0
C 1102.08192444 54.52885353 -52.17343194     2    1022   1026   1027   1028
H 1102.93142559 55.42151022 -50.44811501     6    1025    0    0    0
H 1102.93869984 52.50576070 -51.89755722     6    1025    0    0    0
C 1102.97389496 55.75068471 -54.75146892     2    1025   1029   1030   1031
H 1102.35813089 54.64868344 -56.31039440     6    1028    0    0    0
H 1102.04678705 57.69979112 -54.92327725     6    1028    0    0    0
C 1105.85966506 56.06926589 -54.93698245     2    1028   1032   1033   1034
H 1106.70963945 56.62250454 -53.23488294     6    1031    0    0    0
H 1106.66791527 54.18069692 -55.32773804     6    1031    0    0    0
C 1106.39389535 57.96749510 -57.08484640     1    1031   1035   1036   1037
H 1108.25673388 58.47712413 -57.55948323     6    1034    0    0    0
H 1105.41365414 59.69847921 -56.72299251     6    1034    0    0    0
H 1105.46785430 57.11125809 -58.77365061     6    1034    0    0    0
H 1108.52291325 22.99486825 -62.93332668     6     1039    0    0    0 
C 1108.70116495 21.30070898 -61.75279221     1     1038    1040    1041    1042
H 1107.05616717 20.88586275 -60.72921366     6     1039    0    0    0
H 1108.78278285 19.90491273 -63.10788493     6     1039    0    0    0
C 1110.90574710 21.15496950 -60.04436227     2     1039    1043    1044    1045
H 1112.83869550 21.58804303 -60.85829148     6     1042    0    0    0
H 1110.79586898 22.65960545 -58.64200629     6     1042    0    0    0
C 1111.02373315 18.80008892 -58.35868500     2     1042    1046   1047   1048
H 1109.44121772 18.78261750 -56.96774760     6     1045    0    0    0
H 1110.67394876 17.01784260 -59.15815671     6     1045    0    0    0
C 1113.57836375 18.46531981 -57.31739522     2     1045   1049   1050   1051
H 1115.10315311 18.27689060 -58.75918042     6    1048    0    0    0
H 1114.07888410 19.78310155 -55.92923008     6    1048    0    0    0
C 1113.59252144 15.89618990 -55.94275896     2    1048   1052   1053   1054
H 1112.05197859 15.73809221 -54.59592951     6    1051    0    0    0
H 1113.11937112 14.44428603 -57.32541366     6    1051    0    0    0
C 1116.17827864 15.11998664 -54.80463284     2    1051   1055   1056   1057
H 1117.68007148 15.02358543 -56.13235253     6    1054    0    0    0
H 1116.70310239 16.53280881 -53.35979597     6    1054    0    0    0
[...]
 1619      H    1101.5097920600    22.1841994300   -77.8696697400
 1620      H    1098.8402220200    20.5428799200   -78.5683781500
 1621      C    1098.6371346900    24.7022693900   -79.1525954000
 1622      H    1096.7094458000    24.8180711600   -79.1703580100
 1623      H    1099.3160255200    26.4559960300   -78.2359976400
 1624      C    1099.6196338000    24.8088144200   -81.9116673100
 1625      H    1101.7046408800    24.8696418700   -82.0298747800
 1626      H    1098.9522172100    23.1326426800   -82.9171008600
 1627      C    1098.8122295100    27.2156822700   -83.2759153800
 1628      H    1096.7572659400    27.5614248300   -83.0256577800
 1629      H    1099.7509191700    28.8347244200   -82.3854107000
 1630      C    1099.5212768900    27.4577188900   -86.1178642600
 1631      H    1101.4688099600    26.9351283100   -86.0774967100
 1632      H    1098.6561582600    25.9026905800   -87.3301500700
 1633      C    1099.3516695300    30.1421134700   -87.3649578800
 1634      H    1097.3847583400    30.4530359100   -87.9212314900
 1635      H    1099.5824199400    31.6795954600   -85.9487842400
 1636      C    1101.0517493400    30.5547129000   -89.6924842900
 1637      H    1102.8558662600    30.4766229400   -88.8657240400
 1638      H    1101.0024327900    28.7274469700   -90.7937741900
 1639      C    1100.4182599400    33.0837273400   -91.2283701500
 1640      H    1099.0388013500    32.8099679800   -92.7058828600
 1641      H    1099.6700756200    34.6464808400   -90.0655880400
 1642      C    1102.8102856000    33.9854118000   -92.5225327800
 1643      H    1104.3327879500    34.3050678200   -91.3022651300
 1644      H    1102.3225696300    35.6848811700   -93.5287494000
 1645      H    1103.3982934500    32.6551498400   -93.9242609600
 1646      H    1085.0125852700    30.0143595300   -56.1420445500
 1647      C    1086.7659160300    30.0731638000   -55.0544266100
 1648      H    1086.5966669200    31.8727214800   -54.0511672200
 1649      H    1086.6907723800    28.5106056400   -53.6396933800
 1650      C    1089.0412255400    30.0206782200   -56.7423329900
 1651      H    1090.6071189500    30.3896169200   -55.5529620800
 1652      H    1089.2777598800    28.0816792100   -57.4939190000
 1653      C    1088.8393709300    31.7735463200   -59.0453814200
 1654      H    1087.0753238700    31.3961423600   -60.0774209800
 1655      H    1088.7299558900    33.6492420300   -58.2756460700
 1656      C    1091.2560246700    31.7836273900   -60.8012387800
 1657      H    1092.7557595900    32.6767947900   -59.7892406000
 1658      H    1091.8730702400    29.8471758300   -61.3076532500
 1659      C    1090.6852715200    33.2187538800   -63.1759029900
 1660      H    1089.1113309700    32.3779205200   -64.3427155400
 1661      H    1090.2621527200    35.3178446700   -62.9882932100
 1662      C    1093.0559199000    32.8239480200   -65.0071517200
 1663      H    1094.8310377500    33.7065140700   -64.1647163800
 1664      H    1093.6156366400    30.8052095300   -65.1432197200
 1665      C    1092.4568462200    33.5766306300   -67.6836657600
 1666      H    1090.8836642000    32.6493037700   -68.5902841600
 1667      H    1091.6716187100    35.4625708700   -67.6938587400
 1668      C    1094.8213825300    33.5192416600   -69.3335285300
 1669      H    1096.0888074300    35.1632796400   -69.0155641900
 1670      H    1095.9542521400    31.9089482500   -68.7021585200
 1671      C    1094.2627601900    33.4771355500   -72.2107613400
 1672      H    1092.9650815600    31.9725851200   -72.3829573400
 1673      H    1093.4072606500    35.4319187500   -72.5943882200
 1674      C    1096.4704652400    33.4128034800   -74.0992877900
 1675      H    1097.7747517100    34.6908930400   -73.4186576800
 1676      H    1097.5050390800    31.7019146700   -74.2075557900
 1677      C    1095.5371629400    34.4762734100   -76.7496972800
 1678      H    1094.1465285700    33.1218927500   -77.3421738600
 1679      H    1094.5605954900    36.0845748900   -76.6535032000
 1680      C    1097.6822477700    34.3818779400   -78.8100795400
 1681      H    1096.8973513600    34.9193718500   -80.5514043300
 1682      H    1098.1119459600    32.4658174100   -79.3664411700
 1683      H    1099.3779236700    35.2952832900   -78.1389752300
 1684      H    1091.2642608000    30.4397149100   -39.9556266700
 1685      C    1092.3667626500    28.7239714600   -39.7656128400
 1686      H    1092.8865662500    28.8841381900   -37.8647810000
 1687      H    1091.2821956800    27.0255426600   -40.1182193100
 1688      C    1094.7024215400    28.8225531500   -41.4751542000
 1689      H    1096.1396591000    27.5767296600   -40.9115462800
 1690      H    1094.1483215700    28.1187452300   -43.2580316200
 1691      C    1095.8965540000    31.6408247700   -41.8818661100
 1692      H    1094.2613719000    32.7655400200   -42.4404855100
 1693      H    1096.5614617300    32.3162674800   -40.1681293500
 1694      C    1097.9740602900    31.5858628900   -43.9445835400
 1695      H    1099.6407443800    32.5036580000   -43.1602680800
 1696      H    1098.6405296300    29.6881452700   -44.5226683600
 1697      C    1097.2593059500    33.1474490200   -46.4503315000
 1698      H    1095.6705631800    32.0680688700   -47.4475137300
 1699      H    1096.3398260800    34.9510913100   -46.0129003400
 1700      C    1099.6977685000    33.7088055900   -48.1310577100
 1701      H    1098.9184671900    34.7730104000   -49.7446778300
 1702      H    1101.0020550700    34.7580203100   -46.9995543100
 1703      C    1100.9062717400    31.3794426300   -49.3010026400
 1704      H    1101.2267717300    30.1137929000   -47.8885289800
 1705      H    1099.5282303100    30.6911187700   -50.6987188500
 1706      C    1103.2665664100    32.1350066100   -50.6932028500
 1707      H    1102.6729593700    33.6331006700   -51.9751853700
 1708      H    1104.6219175900    33.0106037000   -49.3197994900
 1709      C    1104.4771324800    29.8710557900   -52.2240185400
 1710      H    1104.8412678700    28.2640158300   -50.8912515900
 1711      H    1103.1931507600    29.2407659400   -53.6639010100
 1712      C    1106.9080199100    30.5228677200   -53.8130121800
 1713      H    1106.5409470400    31.8656249000   -55.2466588700
 1714      H    1108.4554733400    31.3457261300   -52.6894390300
 1715      C    1107.9127559100    28.1453536900   -55.2327648100
 1716      H    1109.8388282800    28.5373339500   -56.0452667300
 1717      H    1108.1458120900    26.6525896700   -53.7827416800
 1718      C    1105.9799809400    26.8937682800   -56.8801923700
 1719      H    1104.3912495400    26.1892483100   -55.9533012300
 1720      H    1106.7958517600    25.4391083200   -58.0732561500
 1721      H    1105.2089569500    28.4579733500   -57.9136885400
 1722      H    1107.0178220300    53.6128326700   -70.0536385600
 1723      C    1106.4175324100    55.5348163800   -70.3112480000
 1724      H    1107.8210145900    56.4592659600   -71.3217462500
 1725      H    1104.5803654200    55.5338540900   -71.3115246800
 1726      C    1106.0016499500    56.8170100500   -67.6901128200
 1727      H    1105.1527072900    58.5468412100   -68.1910615300
 1728      H    1104.6753818800    55.8297000200   -66.6746212800
 1729      C    1108.3927125100    57.1612417300   -66.0085634200
 1730      H    1110.1290142000    57.7776694600   -67.0200402400
 1731      H    1108.0391069300    58.7091214200   -64.5516182300
 1732      C    1109.0762880000    54.6842150900   -64.7085724200
 1733      H    1107.3947528500    53.8848191000   -63.9121523500
 1734      H    1109.6650726000    53.3374077800   -66.1714650600
 1735      C    1111.3624489900    54.7619159200   -62.9484264100
 1736      H    1112.9989880700    55.4828365400   -63.9582742200
 1737      H    1110.9679780300    56.2080122200   -61.4205591500
 1738      C    1111.5008804600    52.0166793100   -61.6822785600
 1739      H    1109.7368276100    51.6036704200   -60.9539435900
 1740      H    1111.8743222600    50.6630512600   -63.1108670500
 1741      C    1113.5315381700    51.7525496100   -59.6315527800
 1742      H    1115.4776351000    51.9682767800   -60.4406768500
 1743      H    1113.3345816800    53.4961723800   -58.4510675900
 1744      C    1113.3317394500    49.3007187600   -57.8926179100
 1745      H    1111.4148549800    49.1741652500   -57.2588160100
 1746      H    1113.3305766000    47.5763189600   -58.9780805300
 1747      C    1115.2299465500    49.2528387400   -55.5763355900
 1748      H    1117.2785111600    49.2660998700   -56.1902602800
 1749      H    1114.9453114300    50.8863278900   -54.3150977500
 1750      C    1114.7609662400    47.1039853300   -53.7558896800
 1751      H    1113.1238795000    47.7239317100   -52.6229686000
 1752      H    1114.3637299800    45.4600887400   -54.9564046800
 1753      C    1116.9749343300    46.4912503800   -52.0737107100
 1754      H    1118.6043283400    46.1688316800   -53.2062837700
 1755      H    1117.5055155900    47.9968855500   -50.9164848200
 1756      C    1116.5491298800    44.1682106700   -50.2725133600
 1757      H    1115.6509747400    42.6382648700   -51.0972772200
 1758      H    1115.2568310300    44.6679081800   -48.7446941800
 1759      H    1118.4384238200    43.6263002900   -49.6163188200
 1760      H    1131.2017428300    59.8096631900   -74.2561952000
 1761      C    1129.9779063900    60.4339745700   -72.7910322100
 1762      H    1131.0860070700    60.7182162100   -71.1232727600
 1763      H    1129.4593128300    62.4646813000   -73.3453619400
 1764      C    1127.6614530800    58.7017434500   -72.6068566500
 1765      H    1127.1375991200    57.9819531000   -74.3931881500
 1766      H    1127.9865087700    57.1828604000   -71.2742602100
 1767      C    1125.4330962300    60.1816056000   -71.6293515600
 1768      H    1125.5835239300    60.9875006700   -69.7120907300
 1769      H    1125.2358453300    61.8214562400   -72.8451482300
 1770      C    1122.7519879000    58.7637612300   -71.7240738000
 1771      H    1122.3301068600    58.1597857300   -73.7150928600
 1772      H    1123.0843157000    57.0708081500   -70.6451206700
 1773      C    1120.8720460500    60.4720373000   -70.2972843000
 1774      H    1120.8588100200    60.0885746900   -68.2462463600
 1775      H    1121.3964813300    62.3408331100   -70.8423227400
 1776      C    1118.1235445800    60.1814923300   -71.3053421000
 1777      H    1118.3053637000    60.9973104900   -73.2922636200
 1778      H    1117.7257627900    58.2376806500   -71.2786168700
 1779      C    1116.1090254600    61.7587980200   -70.0829893700
 1780      H    1116.1357326000    61.3342152200   -68.0210627100
 1781      H    1116.7388045800    63.6989919500   -70.2271402900
 1782      C    1113.3253012200    61.4226259100   -71.0528878700
 1783      H    1112.5612131800    59.4668124600   -70.8024082000
 1784      H    1112.1444089600    62.6015329800   -69.7524640100
 1785      C    1112.6404121200    62.2205537400   -73.6837232800
 1786      H    1113.2903714600    64.1450230600   -73.9541103800
 1787      H    1113.6790169500    61.1559173800   -75.0650423900
 1788      C    1109.8861397500    61.8997195400   -74.3636888300
 1789      H    1109.3962633700    60.0448431700   -73.7736896500
 1790      H    1108.6213305800    63.2137426600   -73.1516855400
 1791      C    1109.3440608500    62.1174869700   -77.2577305300
 1792      H    1109.3363347200    64.1252370600   -77.7061611900
 1793      H    1110.9997639100    61.3332912100   -78.3677911800
 1794      C    1106.8541116300    61.0550930200   -78.1150931100
 1795      H    1104.9674063200    61.9852912500   -77.5819624400
 1796      H    1106.6984772000    59.0895472600   -77.3673653100
 1797      H    1106.7639536300    60.7162302300   -80.0918222500
 1798      H    1128.3765978200    16.3728765100   -73.4040009300
 1799      C    1129.6223968400    16.1088961500   -71.7665544300
 1800      H    1128.6569886600    14.5588547700   -70.6774734300
 1801      H    1131.3137233800    15.3505595600   -72.5132404200
 1802      C    1130.1213827700    18.4689130200   -70.2628287600
 1803      H    1131.1669436500    20.0072292100   -71.2926967000
 1804      H    1128.2801993800    19.2775936600   -69.7095046200
 1805      C    1131.6209746500    17.6435431200   -67.8759798600
 1806      H    1130.5554681700    16.0480806900   -67.0934597300
 1807      H    1133.4424627600    16.6920694300   -68.3413299100
 1808      C    1132.2209051000    19.7223391200   -65.9327026000
 1809      H    1133.7739417200    18.9683541000   -64.7654530400
 1810      H    1132.9568883300    21.2242275100   -66.9920893300
 1811      C    1130.2800420600    20.4692526300   -64.1405455700
 1812      H    1128.6312289400    21.2801580500   -65.1775360100
 1813      H    1129.5652253100    18.8458388100   -62.9799446000
 1814      C    1131.1275492900    22.5277585700   -62.2350574300
 1815      H    1132.7820714500    22.1266146600   -61.0929522600
 1816      H    1131.4977689200    24.3638824900   -63.1099199200
 1817      C    1128.8773812200    22.8918822100   -60.2115116000
 1818      H    1127.2896344100    23.7168615200   -61.1213473200
 1819      H    1128.2492235500    21.0994743300   -59.5543044500
 1820      C    1129.6553891200    24.6311162900   -57.9536639400
 1821      H    1130.9522778800    23.6560478700   -56.6859802600
 1822      H    1130.7894846800    26.2918854500   -58.7181486700
 1823      C    1127.5505531700    25.6264329100   -56.2946466700
 1824      H    1126.1164894100    26.4555777000   -57.4352270000
 1825      H    1126.6458606600    23.9644069400   -55.4502339900
 1826      C    1128.3067977200    27.5194742600   -54.2541885500
 1827      H    1129.4717238900    26.2185004800   -52.9139105200
 1828      H    1129.3957727800    28.9984407600   -55.1515874400
 1829      C    1125.9449679900    28.6441775900   -53.0961958100
 1830      H    1124.9234967300    29.6096384000   -54.7107098000
 1831      H    1124.8619528900    27.0920491400   -52.4734865200
 1832      C    1126.3390231300    30.5849115200   -51.0783718900
 1833      H    1124.6568934900    31.7212917100   -50.6319026800
 1834      H    1127.6786657400    32.0918890500   -51.7926812300
 1835      H    1127.2011792400    29.6927225300   -49.3628755500
 1836      H    1127.3240315100    34.2732367300   -55.5865330500
 1837      C    1128.9285595900    35.5690070200   -55.5073990200
 1838      H    1128.3792310100    37.1276084500   -56.7173176700
 1839      H    1128.8689106100    36.3711172900   -53.5717676900
 1840      C    1131.2685327200    34.3054352600   -56.3649920900
 1841      H    1132.7533827200    35.7617249800   -56.4603438500
 1842      H    1131.8215273000    32.8619975200   -54.9429322300
 1843      C    1131.2394104100    32.9701719300   -58.9141702000
 1844      H    1130.1292311100    31.1314009500   -58.6600078100
 1845      H    1130.2486875600    34.2678827000   -60.2470277800
 1846      C    1133.8950174100    32.4854930500   -59.8199980300
 1847      H    1134.7473382700    34.2128813200   -60.2149999700
 1848      H    1135.0138186600    31.4575455500   -58.3988041100
 1849      C    1133.9470022800    30.7242171300   -62.2242172900
 1850      H    1133.0941960300    28.8783820700   -61.9795565700
 1851      H    1132.9086708500    31.8048635200   -63.6337900700
 1852      C    1136.5526603600    30.4374119600   -63.4620803900
 1853      H    1138.0746218200    29.3280051500   -62.4301757900
 1854      H    1136.4954527800    29.1845937000   -65.1091809000
 1855      C    1137.8017719700    32.9917445900   -64.4449264500
 1856      H    1136.4235911500    33.8959600300   -65.6359951700
 1857      H    1138.1082222200    34.3829421700   -63.0434439800
 1858      C    1140.3360927100    32.8088804900   -65.7941277500
 1859      H    1141.9199309500    32.5045417700   -64.4347055500
 1860      H    1140.5455358300    31.4492642600   -67.2779365100
 1861      C    1140.9626724400    35.4976222500   -66.7073185400
 1862      H    1139.1733890700    36.3292345800   -67.4073396100
 1863      H    1141.5106188700    36.8176065200   -65.1528662900
 1864      C    1142.8367890500    35.4015475700   -68.9182764800
 1865      H    1144.3916244400    34.1843764800   -68.4329608900
 1866      H    1141.9169857400    34.7032950600   -70.6253418800
 1867      C    1143.8335546300    38.1242524900   -69.3542402500
 1868      H    1142.2612509600    39.2254364600   -70.0166575300
 1869      H    1144.3745977300    39.1445042000   -67.6366643000
 1870      C    1145.9818684700    38.0655350300   -71.3746227500
 1871      H    1146.4197729900    39.9922622700   -71.7311270700
 1872      H    1145.6414100100    37.4429902900   -73.2080396300
 1873      H    1147.7493777500    37.3525062500   -70.6347663800
 1874      H    1120.7263225900    39.4381942200   -81.1660479000
 1875      C    1119.2228694600    38.5285823400   -80.1294654000
 1876      H    1117.5941714300    38.3496990000   -81.4897418100
 1877      H    1120.1315599600    36.8579223700   -79.4366463300
 1878      C    1118.1988122000    39.9220701600   -77.8075673600
 1879      H    1119.8960688100    40.4465562600   -76.8206683900
 1880      H    1117.4435674800    41.7916649900   -78.4582042900
 1881      C    1116.1656569400    38.6333095300   -76.3075727300
 1882      H    1114.5732735800    38.1082974500   -77.4181430600
 1883      H    1116.7194087900    36.9307026600   -75.4718451200
 1884      C    1115.2444681100    40.3999599300   -74.1570598200
 1885      H    1116.7654106200    40.8881248300   -73.0094537600
 1886      H    1114.6584691500    42.1862777500   -74.8746276300
 1887      C    1113.0634025100    39.1309638300   -72.6307341700
 1888      H    1111.5448215700    38.5967354700   -73.8388969600
 1889      H    1113.6643849300    37.2491907800   -72.1468902900
 1890      C    1111.9952237000    40.4788399000   -70.3532236100
 1891      H    1113.6297043700    41.1509058600   -69.3238205000
 1892      H    1110.9217719000    42.1850437500   -70.8912483200
 1893      C    1110.1597555100    38.9299809000   -68.7830481200
 1894      H    1108.2443581200    39.2526981100   -69.4174136300
 1895      H    1110.4989058400    36.9548595900   -68.9336500800
 1896      C    1109.7751035400    39.5594078200   -65.9527270500
 1897      H    1111.5967909200    39.0927013000   -65.1407632800
 1898      H    1109.6908473600    41.5397101700   -65.5789531700
 1899      C    1107.4664959200    38.3685560000   -64.7689993400
 1900      H    1105.8437766200    38.7431408700   -65.9839738300
 1901      H    1107.9102409300    36.3181233300   -64.7492926000
 1902      C    1106.8672615300    39.3006830700   -62.1348888600
 1903      H    1108.7152983800    39.4701257600   -61.2021185700
 1904      H    1106.3012173800    41.2845336800   -62.1856767800
 1905      C    1105.0979296400    37.6496190300   -60.5909427800
 1906      H    1103.2864276100    37.8753588200   -61.4774149900
 1907      H    1105.8408807700    35.6374729900   -60.7634222900
 1908      C    1104.7404143900    38.5391888500   -57.7798161300
 1909      H    1103.0570895200    37.6675752100   -56.9693108200
 1910      H    1104.2710728600    40.5767853900   -57.7256844100
 1911      H    1106.3340403200    38.0006790100   -56.5998065500
 ----------------------------------------------------------------
 Nuclear Repulsion Energy =           0.00000000 hartrees
 There are       48 alpha and       48 beta electrons
 Total job time:  120.92s(wall), 238.83s(cpu) 
 Wed Jun 22 08:07:41 2022

        *************************************************************
        *                                                           *
        *  Thank you very much for using Q-Chem.  Have a nice day.  *
        *                                                           *
        *************************************************************


