                  Welcome to Q-Chem
     A Quantum Leap Into The Future Of Chemistry


 Q-Chem 5.4 (devel), Q-Chem, Inc., Pleasanton, CA (2021)

 E. Epifanovsky,  A. T. B. Gilbert,  Xintian Feng,  Joonho Lee,  Yuezhi Mao,  
 N. Mardirossian,  P. Pokhilko,  A. White,  M. Wormit,  M. P. Coons,  
 A. L. Dempwolff,  Zhengting Gan,  D. Hait,  P. R. Horn,  L. D. Jacobson,  
 I. Kaliman,  J. Kussmann,  A. W. Lange,  Ka Un Lao,  D. S. Levine,  Jie Liu,  
 S. C. McKenzie,  A. F. Morrison,  K. Nanda,  F. Plasser,  D. R. Rehn,  
 M. L. Vidal,  Zhi-Qiang You,  Ying Zhu,  B. Alam,  B. Albrecht,  
 A. Aldossary,  E. Alguire,  J. H. Andersen,  D. Barton,  K. Begam,  A. Behn,  
 Y. A. Bernard,  E. J. Berquist,  H. Burton,  A. Carreras,  K. Carter-Fenk,  
 R. Chakraborty,  A. D. Chien,  K. D. Closser,  V. Cofer-Shabica,  
 S. Dasgupta,  Jia Deng,  M. de Wergifosse,  M. Diedenhofen,  Hainam Do,  
 S. Ehlert,  Po-Tung Fang,  S. Fatehi,  Qingguo Feng,  T. Friedhoff,  
 J. Gayvert,  Qinghui Ge,  G. Gidofalvi,  M. Goldey,  J. Gomes,  
 C. Gonzalez-Espinoza,  S. Gulania,  A. Gunina,  M. W. D. Hanson-Heine,  
 P. H. P. Harbach,  A. W. Hauser,  M. F. Herbst,  M. Hernandez Vera,  
 M. Hodecker,  Z. C. Holden,  S. Houck,  Xunkun Huang,  Kerwin Hui,  
 B. C. Huynh,  M. Ivanov,  Hyunjun Ji,  Hanjie Jiang,  B. Kaduk,  S. Kaehler,  
 K. Khistyaev,  Jaehoon Kim,  P. Klunzinger,  Z. Koczor-Benda,  
 Joong Hoon Koh,  D. Kosenkov,  L. Koulias,  T. Kowalczyk,  C. M. Krauter,  
 K. Kue,  A. Kunitsa,  T. Kus,  A. Landau,  K. V. Lawler,  D. Lefrancois,  
 S. Lehtola,  Rain Li,  Yi-Pei Li,  Jiashu Liang,  M. Liebenthal,  
 Hung-Hsuan Lin,  You-Sheng Lin,  Fenglai Liu,  Kuan-Yu Liu,  
 M. Loipersberger,  A. Luenser,  A. Manjanath,  P. Manohar,  E. Mansoor,  
 S. F. Manzer,  Shan-Ping Mao,  A. V. Marenich,  T. Markovich,  S. Mason,  
 S. A. Maurer,  P. F. McLaughlin,  M. F. S. J. Menger,  J.-M. Mewes,  
 S. A. Mewes,  P. Morgante,  J. W. Mullinax,  K. J. Oosterbaan,  G. Paran,  
 Alexander C. Paul,  Suranjan K. Paul,  F. Pavosevic,  Zheng Pei,  S. Prager,  
 E. I. Proynov,  E. Ramos,  B. Rana,  A. E. Rask,  A. Rettig,  R. M. Richard,  
 F. Rob,  E. Rossomme,  T. Scheele,  M. Scheurer,  M. Schneider,  
 N. Sergueev,  S. M. Sharada,  W. Skomorowski,  D. W. Small,  C. J. Stein,  
 Yu-Chuan Su,  E. J. Sundstrom,  Zhen Tao,  J. Thirman,  T. Tsuchimochi,  
 N. M. Tubman,  S. P. Veccham,  O. Vydrov,  J. Wenzel,  J. Witte,  A. Yamada,  
 Kun Yao,  S. Yeganeh,  S. R. Yost,  A. Zech,  Igor Ying Zhang,  Xing Zhang,  
 Yu Zhang,  D. Zuev,  A. Aspuru-Guzik,  A. T. Bell,  N. A. Besley,  
 K. B. Bravaya,  B. R. Brooks,  D. Casanova,  Jeng-Da Chai,  S. Coriani,  
 C. J. Cramer,  A. E. DePrince, III,  R. A. DiStasio Jr.,  A. Dreuw,  
 B. D. Dunietz,  T. R. Furlani,  W. A. Goddard III,  S. Grimme,  
 S. Hammes-Schiffer,  T. Head-Gordon,  W. J. Hehre,  Chao-Ping Hsu,  
 T.-C. Jagau,  Yousung Jung,  A. Klamt,  Jing Kong,  D. S. Lambrecht,  
 WanZhen Liang,  N. J. Mayhall,  C. W. McCurdy,  J. B. Neaton,  
 C. Ochsenfeld,  J. A. Parkhill,  R. Peverati,  V. A. Rassolov,  Yihan Shao,  
 L. V. Slipchenko,  T. Stauch,  R. P. Steele,  J. E. Subotnik,  
 A. J. W. Thom,  A. Tkatchenko,  D. G. Truhlar,  T. Van Voorhis,  
 T. A. Wesolowski,  K. B. Whaley,  H. L. Woodcock III,  P. M. Zimmerman,  
 S. Faraji,  P. M. W. Gill,  M. Head-Gordon,  J. M. Herbert,  A. I. Krylov

 Additional authors for Version 5.4.1: 
 S. Kotaru,  Shaozhi Li,  Xiangyuan Li,  F. Matz,  A. Molle,  Haisheng Ren,  
 Yingli Su,  Hung-Yi Tsai,  C. Utku,  Fang Wang

 Contributors to earlier versions of Q-Chem not listed above: 
 R. D. Adamson,  B. Austin,  R. Baer,  J. Baker,  G. J. O. Beran,  
 K. Brandhorst,  S. T. Brown,  E. F. C. Byrd,  A. K. Chakraborty,  
 G. K. L. Chan,  Chun-Min Chang,  Yunqing Chen,  C.-L. Cheng,  
 Siu Hung Chien,  D. M. Chipman,  D. L. Crittenden,  H. Dachsel,  
 R. J. Doerksen,  A. D. Dutoi,  R. G. Edgar,  J. Fosso-Tande,  
 L. Fusti-Molnar,  D. Ghosh,  A. Ghysels,  A. Golubeva-Zadorozhnaya,  
 J. Gonthier,  M. S. Gordon,  S. R. Gwaltney,  G. Hawkins,  J. E. Herr,  
 A. Heyden,  S. Hirata,  E. G. Hohenstein,  G. Kedziora,  F. J. Keil,  
 C. Kelley,  Jihan Kim,  R. A. King,  R. Z. Khaliullin,  P. P. Korambath,  
 W. Kurlancheek,  A. Laurent,  A. M. Lee,  M. S. Lee,  S. V. Levchenko,  
 Ching Yeh Lin,  D. Liotard,  E. Livshits,  R. C. Lochan,  I. Lotan,  
 L. A. Martinez-Martinez,  P. E. Maslen,  N. Nair,  D. P. O'Neill,  
 D. Neuhauser,  E. Neuscamman,  C. M. Oana,  R. Olivares-Amaya,  R. Olson,  
 T. M. Perrine,  B. Peters,  P. A. Pieniazek,  A. Prociuk,  Y. M. Rhee,  
 J. Ritchie,  M. A. Rohrdanz,  E. Rosta,  N. J. Russ,  H. F. Schaefer III,  
 M. W. Schmidt,  N. E. Schultz,  S. Sharma,  N. Shenvi,  C. D. Sherrill,  
 A. C. Simmonett,  A. Sodt,  T. Stein,  D. Stuck,  K. S. Thanthiriwatte,  
 V. Vanovschi,  L. Vogt,  Tao Wang,  A. Warshel,  M. A. Watson,  
 C. F. Williams,  Q. Wu,  X. Xu,  Jun Yang,  W. Zhang,  Yan Zhao

 Please cite Q-Chem as follows:
 Y. Shao et al., Mol. Phys. 113, 184-215 (2015)
 DOI: 10.1080/00268976.2014.952696

 Q-Chem 5.4.1 for Intel X86 EM64T Linux

 Parts of Q-Chem use Armadillo 9.900.5 (Nocturnal Misbehaviour).
 http://arma.sourceforge.net/

 Q-Chem begins on Fri Jul  1 20:00:03 2022  

 Host: p09r14n09.grace.hpc.yale.internal
0

     Scratch files written to /home/tl686/scratch60/qchem_dev/scratch/qchem8748//
 Processing $rem in /home/tl686/qchem_dev/qchem/config/preferences:
 Processing $rem in /home/tl686/.qchemrc:
Applying user defined connections for MM calculations

 Checking the input file for inconsistencies... 	...done.

--------------------------------------------------------------
User input:
--------------------------------------------------------------
$molecule
0   1
 Fe 1478.37838386 -16.66749000 1.43592295    -1  0   0   0   0
C 1475.30857781 -17.24721362 2.92438982    -2  0   0   0   0 
C 1478.28712817 -13.93743249 -0.85144284    -2  0   0   0   0
C 1481.66475377 -17.80413027 1.59310899    -2  0   0   0   0
C 1477.47213091 -19.40348802 -0.51163312    -2  0   0   0   0
C 1479.19355740 -14.84557761 4.06110756    -2  0   0   0   0
O 1473.55308309 -17.54958372 4.25995219    -3  0   0   0   0
O 1478.34655090 -12.14139676 -2.08793199    -3  0   0   0   0 
O 1483.72706675 -18.45760357 1.70040646    -3  0   0   0   0
O 1477.41362723 -21.53109593 -1.21058532    -3  0   0   0   0 
O 1479.86112355 -13.97867415 5.98605704    -3  0   0   0   0
H 1459.33718396 -42.66462749 19.80700005      6     13    0    0    0 
C 1460.52622063 -40.89823368 19.43108023     1     12    14    15    16
H 1459.20409224 -39.29802514 19.58265356     6     13    0    0    0
H 1461.67652862 -40.44511237 21.02657274     6     13    0    0    0
C 1462.02107945 -41.09585825 16.86793335     2     13    17    18    19
H 1460.81458928 -41.77887142 15.50111456     6     16    0    0    0
H 1462.60347972 -39.07949129 16.40672528     6     16    0    0    0
C 1464.40508585 -42.63383740 16.83310799     2     16    20   21   22
H 1465.82931072 -42.23905769 18.17881602     6     19    0    0    0
H 1463.85879091 -44.59029144 17.28269118     6     19    0    0    0
C 1465.63031693 -42.68829772 14.12762914     2     19   23   24   25
H 1464.36572143 -43.97383394 12.86437574     6    22    0    0    0
H 1465.85254767 -40.85498833 13.18980970     6    22    0    0    0
C 1468.27012519 -43.90495485 13.79107647     2    22   26   27   28
H 1469.71293636 -42.53138431 14.48645013     6    25    0    0    0
H 1468.21876056 -45.62822926 14.89274221     6    25    0    0    0
C 1468.96231539 -44.49608803 11.07594724     2    25   29   30   31
H 1470.13376303 -46.15592616 11.36255374     6    28    0    0    0
H 1467.29151555 -45.19657099 9.95287675     6    28    0    0    0
C 1470.48036235 -42.31102214 9.71501870     2    28   32   33   34
H 1469.80780925 -40.30282674 10.23916883     6    31    0    0    0
H 1472.53414129 -42.38885741 10.21170040     6    31    0    0    0
C 1470.14412493 -42.55138490 6.91420982     2    31   35   36   37
H 1470.61825371 -44.43032481 6.11744624     6    34    0    0    0
H 1468.14259307 -42.02324577 6.66757470     6    34    0    0    0
C 1471.53083652 -40.54733264 5.35393790     2    34   38   39   40
H 1471.31131982 -38.63680683 6.14104636     6    37    0    0    0
H 1473.62567248 -40.70738106 5.35340336     6    37    0    0    0
C 1470.83307863 -40.67760777 2.52821760     2    37   41   42   43
H 1470.83986556 -42.67558894 1.91853008     6    40    0    0    0
H 1468.92712918 -40.00284392 2.48064305     6    40    0    0    0
C 1472.45648274 -39.03155724 0.88558909     2    40   44   45   46
H 1472.21307928 -37.09111549 1.51400528     6    43    0    0    0
H 1474.46007844 -39.25391344 1.03304357     6    43    0    0    0
C 1471.76269248 -39.20055090 -1.84051133     1    43   47   48   49
H 1471.46278708 -41.03519607 -2.28190435     6    46    0    0    0
H 1472.95491074 -38.16206799 -3.20528974     6    46    0    0    0
H 1469.87291607 -38.32497250 -2.07977566     6    46    0    0    0
H 1470.16796920 -23.58246097 -2.62972751     6     51    0    0    0 
C 1471.33150239 -22.64368194 -1.32623255     1     50    52    53    54
H 1473.04740489 -22.48829124 -2.37940789     6     51    0    0    0
H 1470.92919701 -20.68904576 -1.00416067     6     51    0    0    0
C 1472.07209984 -24.27655414 1.09432500     2     51    55    56    57
H 1473.00097062 -22.89010789 2.22984043     6     54    0    0    0
H 1470.38525210 -25.06744693 2.02049106     6     54    0    0    0
C 1474.05921650 -26.47970202 0.90333689     2     54    58   59   60
H 1475.78190133 -25.48445464 0.60552162     6     57    0    0    0
H 1474.55051002 -27.51884871 2.60813514     6     57    0    0    0
C 1473.50259898 -28.27075216 -1.30327817     2     57   61   62   63
H 1471.90195915 -29.36186359 -1.03646711     6    60    0    0    0
H 1473.24368643 -27.15539263 -2.99441757     6    60    0    0    0
C 1475.43590295 -30.40538387 -1.36426420     2    60   64   65   66
H 1477.44423308 -29.60445292 -1.48035202     6    63    0    0    0
H 1475.01052623 -31.58809585 0.34108972     6    63    0    0    0
C 1474.88105560 -32.26345421 -3.62613688     2    63   67   68   69
H 1476.03489194 -33.94167525 -3.41950099     6    66    0    0    0
H 1472.90791002 -32.89884268 -3.53284188     6    66    0    0    0
C 1475.39112904 -31.31464348 -6.33734796     2    66   70   71   72
H 1474.39598799 -29.48047482 -6.59672653     6    69    0    0    0
H 1477.42951357 -30.82866276 -6.34019396     6    69    0    0    0
C 1474.23233505 -33.07357807 -8.33759663     2    69   73   74   75
H 1475.21045661 -34.87519557 -8.32433094     6    72    0    0    0
H 1472.25319763 -33.84753944 -7.82167700     6    72    0    0    0
C 1474.05707830 -31.79931937 -10.97840367     2    72   76   77   78
H 1472.91489384 -30.07588639 -10.80143784     6    75    0    0    0
H 1476.03487623 -31.33662701 -11.47352245     6    75    0    0    0
C 1472.80255792 -33.60319881 -12.93077584     2    75   79   80   81
H 1473.78219707 -35.40464816 -13.18171123     6    78    0    0    0
H 1471.06975138 -34.35460004 -12.28202666     6    78    0    0    0
C 1472.20224570 -31.85379967 -15.39240686     2    78   82   83   84
H 1470.63031424 -30.44128166 -15.00406788     6    81    0    0    0
H 1473.94897254 -30.72902910 -15.73106037     6    81    0    0    0
C 1471.82879847 -33.53490720 -17.76002298     1    81   85   86   87
H 1471.88216082 -32.36391905 -19.55255160     6    84    0    0    0
H 1470.05028502 -34.49881270 -17.61208418     6    84    0    0    0
H 1473.38326250 -34.82741453 -17.78946159     6    84    0    0    0
H 1493.85328314 -45.68040711 15.46600613     6     89    0    0    0 
C 1493.47253757 -47.42565614 14.30475126     1     88    90    91    92
H 1494.97066329 -48.21534141 13.28027767     6     89    0    0    0
H 1492.46512316 -48.74987517 15.68412805     6     89    0    0    0
C 1491.78202034 -46.50371283 12.13386260     2     89    93    94    95
H 1490.24313186 -45.41210884 12.89337298     6     92    0    0    0
H 1492.78181550 -45.21108163 10.90993606     6     92    0    0    0
C 1490.77785191 -48.87685803 10.68899394     2     92    96   97   98
H 1492.33346937 -49.45369664 9.45064568     6     95    0    0    0
H 1490.43347716 -50.46257094 11.94676104     6     95    0    0    0
C 1488.44608991 -48.43247031 9.28156376     2     95   99   100   101
H 1486.78599672 -48.08569899 10.50146517     6    98    0    0    0
H 1488.92512830 -46.94044078 8.04197283     6    98    0    0    0
C 1487.84339975 -50.72960507 7.68776638     2    98   102   103   104
H 1489.62855144 -51.28994957 6.61280998     6    101    0    0    0
H 1487.06649398 -52.10938373 8.92094751     6    101    0    0    0
C 1485.74731483 -50.18062998 5.71296334     2    101   105   106   107
H 1484.02570088 -49.63513014 6.82098182     6    104    0    0    0
H 1486.33047956 -48.62710859 4.46164155     6    104    0    0    0
C 1484.94200876 -52.38612426 4.04469428     2    104   108   109   110
H 1486.63991769 -52.96515442 2.99125726     6    107    0    0    0
H 1484.26368054 -54.11004626 5.07073381     6    107    0    0    0
C 1482.80356680 -51.63028377 2.26367257     2    107   111   112   113
H 1481.00319334 -51.78922845 3.36581678     6    110    0    0    0
H 1483.17176272 -49.72668092 1.54461507     6    110    0    0    0
C 1482.92116763 -53.34238719 -0.02167819     2    110   114   115   116
H 1484.74162982 -53.44151904 -0.80659503     6    113    0    0    0
H 1482.54330111 -55.35148281 0.55223928     6    113    0    0    0
C 1480.92271496 -52.58547410 -1.97033569     2    113   117   118   119
H 1479.06633047 -52.95127175 -1.05739286     6    116    0    0    0
H 1481.06163344 -50.54549520 -2.31550644     6    116    0    0    0
C 1481.07856751 -54.12518546 -4.39107646     2    116   120   121   122
H 1479.67998111 -53.22079970 -5.73552049     6    119    0    0    0
H 1482.97430927 -54.12553879 -5.05612320     6    119    0    0    0
C 1480.38177605 -56.96004948 -4.19252101     1    119   123   124   125
H 1481.29385587 -57.84134782 -5.81552077     6    122    0    0    0
H 1478.31228806 -57.33250457 -4.68542397     6    122    0    0    0
H 1480.94650417 -57.91631224 -2.45214640     6    122    0    0    0
H 1499.81342764 -32.25038323 15.98573672     6     127    0    0    0 
C 1499.28661587 -30.50477480 15.04701443     1     126    128    129    130
H 1500.76343063 -28.97539358 15.46923874     6     127    0    0    0
H 1499.46876456 -30.80623698 13.01987665     6     127    0    0    0
C 1496.45890351 -30.22466096 15.95580483     2     127    131    132    133
H 1495.39715353 -31.83785313 15.04762770     6     130    0    0    0
H 1496.29055895 -30.54411159 18.08252322     6     130    0    0    0
C 1495.41553395 -27.58870552 15.42407943     2     130    134   135   136
H 1496.69527288 -26.33498990 16.59744337     6     133    0    0    0
H 1495.62991852 -27.24372480 13.33229640     6     133    0    0    0
C 1492.59696348 -27.29143839 16.18041030     2     133   137   138   139
H 1491.46504586 -28.59304907 15.19150624     6    136    0    0    0
H 1492.68810280 -27.76870726 18.21212049     6    136    0    0    0
C 1491.55885023 -24.79215050 15.45147120     2    136   140   141   142
H 1493.11032857 -23.50445051 15.59342029     6    139    0    0    0
H 1490.72466708 -24.71940882 13.51296073     6    139    0    0    0
C 1489.45051908 -23.69494684 17.16633804     2    139   143   144   145
H 1487.89930159 -24.97202546 16.91332680     6    142    0    0    0
H 1490.35792484 -23.76474111 19.16841264     6    142    0    0    0
C 1488.50308598 -20.97368924 16.43203464     2    142   146   147   148
H 1490.13468432 -19.85742713 16.35507707     6    145    0    0    0
H 1487.65090454 -21.00527068 14.50326748     6    145    0    0    0
C 1486.40322393 -19.92552844 18.20991282     2    145   149   150   151
H 1484.83695460 -21.16849912 18.08740259     6    148    0    0    0
H 1487.42058513 -20.00580958 20.02707703     6    148    0    0    0
C 1485.75718214 -17.19616878 17.85193945     2    148   152   153   154
H 1487.30597057 -15.79832915 17.86812117     6    151    0    0    0
H 1484.68139895 -16.96928204 16.02449277     6    151    0    0    0
C 1483.99753029 -16.28903388 19.99670201     2    151   155   156   157
H 1483.14133166 -14.65762168 19.18901860     6    154    0    0    0
H 1482.60116937 -17.77748993 20.21215637     6    154    0    0    0
C 1485.44786058 -15.45849445 22.38604407     2    154   158   159   160
H 1487.01343012 -16.67431912 22.56730657     6    157    0    0    0
H 1486.05806101 -13.46998156 22.19229330     6    157    0    0    0
C 1483.69682720 -15.64684582 24.83881399     1    157   161   162   163
H 1484.71052212 -15.37508869 26.67601633     6    160    0    0    0
H 1482.91735034 -17.59521579 25.00780248     6    160    0    0    0
H 1482.15242542 -14.36748075 24.64568374     6    160    0    0    0
H 1509.14003088 -40.30233559 -1.34925346     6     165    0    0    0 
C 1509.85032528 -40.47815515 0.54735005     1     164    166    167    168
H 1509.83957522 -42.43108150 1.16615344     6     165    0    0    0
H 1511.72205438 -39.74598846 0.63563603     6     165    0    0    0
C 1508.23164348 -38.88740613 2.55189967     2     165    169    170    171
H 1507.95554327 -37.10764817 1.62306608     6     168    0    0    0
H 1506.27334474 -39.72802020 2.85382589     6     168    0    0    0
C 1509.66378099 -38.61221652 5.09181864     2     168    172   173   174
H 1509.12662480 -40.22487531 6.22081813     6     171    0    0    0
H 1511.65705630 -38.76419675 4.81061008     6     171    0    0    0
C 1508.78568644 -36.04900369 6.18919727     2     171   175   176   177
H 1508.81478632 -34.44769238 4.80190657     6    174    0    0    0
H 1506.78465866 -36.04938031 6.74098677     6    174    0    0    0
C 1510.12097133 -35.61502850 8.60794845     2    174   178   179   180
H 1510.12193256 -37.34608682 9.78696951     6    177    0    0    0
H 1512.22839013 -35.53119898 8.39562150     6    177    0    0    0
C 1509.14261873 -33.25963536 9.95354380     2    177   181   182   183
H 1507.22284381 -33.25176522 10.46121655     6    180    0    0    0
H 1510.01384443 -33.45367625 11.82163974     6    180    0    0    0
C 1510.00954315 -30.67103963 8.63869642     2    180   184   185   186
H 1511.89283799 -30.61829749 7.78281808     6    183    0    0    0
H 1508.61274576 -30.17424666 7.22677464     6    183    0    0    0
C 1509.73012510 -28.62898736 10.80208946     2    183   187   188   189
H 1507.89263655 -28.88654784 11.62018207     6    186    0    0    0
H 1510.93702519 -29.15287144 12.44998923     6    186    0    0    0
C 1510.34724814 -25.84309364 10.01198816     2    186   190   191   192
H 1512.33233078 -25.75344592 9.38758837     6    189    0    0    0
H 1509.38736776 -25.26787039 8.28780215     6    189    0    0    0
C 1509.94359726 -23.93623746 12.14604226     2    189   193   194   195
H 1508.21177130 -24.31661350 13.04318473     6    192    0    0    0
H 1511.37004803 -23.87993773 13.56348211     6    192    0    0    0
C 1509.91821089 -21.20698835 11.20506948     2    192   196   197   198
H 1511.27145482 -20.97254844 9.75141759     6    195    0    0    0
H 1508.30235301 -20.40475532 10.34685650     6    195    0    0    0
C 1510.76722560 -19.31822738 13.30043035     1    195   199   200   201
H 1510.87924488 -17.40753364 12.62119718     6    198    0    0    0
H 1512.44118114 -19.96251435 14.18273714     6    198    0    0    0
H 1509.18901686 -19.16191221 14.70781158     6    198    0    0    0
H 1496.88719875 -36.03816072 -11.12581348     6     203    0    0    0 
C 1496.69159833 -35.47785915 -13.09020375     1     202    204    205    206
H 1498.01069164 -36.45698158 -14.26068365     6     203    0    0    0
H 1494.78336570 -36.06506883 -13.53789890     6     203    0    0    0
C 1497.00015269 -32.57821421 -13.63159810     2     203    207    208    209
H 1496.45461555 -32.00301654 -15.54757046     6     206    0    0    0
H 1495.80416668 -31.77610123 -12.27292135     6     206    0    0    0
C 1499.64582160 -31.72512337 -13.24235266     2     206    210   211   212
H 1500.07438135 -32.26343060 -11.33096138     6     209    0    0    0
H 1500.93346927 -32.78607850 -14.51376453     6     209    0    0    0
C 1500.03287346 -28.84476085 -13.70148947     2     209   213   214   215
H 1498.67427836 -27.60048971 -12.81349689     6    212    0    0    0
H 1501.76375012 -28.46902379 -12.66173270     6    212    0    0    0
C 1500.07112240 -28.31810469 -16.58281183     2    212   216   217   218
H 1500.98937296 -29.80040877 -17.73803368     6    215    0    0    0
H 1498.13969244 -28.42627813 -17.23184523     6    215    0    0    0
C 1501.05876732 -25.79386028 -17.27150676     2    215   219   220   221
H 1500.01117768 -24.40320519 -16.06747819     6    218    0    0    0
H 1502.94118382 -25.63733591 -16.65396128     6    218    0    0    0
C 1500.75012145 -25.18712682 -20.09194448     2    218   222   223   224
H 1501.70705315 -26.58053530 -21.22133946     6    221    0    0    0
H 1498.64096468 -25.31203205 -20.52369373     6    221    0    0    0
C 1501.67936529 -22.53878553 -20.64387287     2    221   225   226   227
H 1501.19575075 -21.42480278 -18.90923720     6    224    0    0    0
H 1503.82743090 -22.63073270 -20.88886320     6    224    0    0    0
C 1500.58106385 -21.34680234 -22.93600033     2    224   228   229   230
H 1500.88362702 -22.62998653 -24.60901688     6    227    0    0    0
H 1498.49208365 -21.05220506 -22.76428023     6    227    0    0    0
C 1501.80165114 -18.62608025 -23.24617207     2    227   231   232   233
H 1501.29953206 -17.27085627 -21.69722110     6    230    0    0    0
H 1503.83915860 -18.39163612 -23.05552641     6    230    0    0    0
C 1500.96492138 -17.61554666 -25.79692311     2    230   234   235   236
H 1501.66549551 -18.75258304 -27.37773261     6    233    0    0    0
H 1498.92260661 -17.51073927 -25.94309074     6    233    0    0    0
C 1502.00416123 -14.84546701 -26.25233792     1    233   237   238   239
H 1501.10792949 -13.69627704 -27.72287771     6    236    0    0    0
H 1504.10538816 -15.07300225 -26.46396100     6    236    0    0    0
H 1501.57570923 -13.79504972 -24.49679526     6    236    0    0    0
H 1474.54349818 -40.63231996 -14.81414177     6     241    0    0    0 
C 1475.17150152 -40.38175417 -12.90699735     1     240    242    243    244
H 1476.63704133 -41.78702586 -12.93161143     6     241    0    0    0
H 1475.99120078 -38.57766935 -12.78262294     6     241    0    0    0
C 1473.33481005 -41.36578975 -10.76107492     2     241    245    246    247
H 1472.95187581 -43.24314927 -11.28750329     6     244    0    0    0
H 1474.39182188 -41.53532493 -8.96767609     6     244    0    0    0
C 1470.90695555 -39.96512394 -10.67796337     2     244    248   249   250
H 1469.81677295 -41.21451816 -9.55547086     6     247    0    0    0
H 1471.06617471 -38.16434975 -9.73719896     6     247    0    0    0
C 1469.58668455 -39.69734226 -13.26104336     2     247   251   252   253
H 1467.67708813 -39.07995304 -12.92026022     6    250    0    0    0
H 1470.48001485 -38.34545160 -14.45494004     6    250    0    0    0
C 1468.98159775 -42.26832435 -14.57150874     2    250   254   255   256
H 1470.45168302 -43.59094778 -14.65381003     6    253    0    0    0
H 1467.62951543 -43.11324787 -13.18463069     6    253    0    0    0
C 1467.48381577 -42.04219675 -17.15638489     2    253   257   258   259
H 1466.72842594 -43.78307212 -17.58426988     6    256    0    0    0
H 1465.86424234 -40.86348603 -16.82754127     6    256    0    0    0
C 1468.92360748 -40.87564331 -19.44288996     2    256   260   261   262
H 1469.62530248 -38.89537875 -18.94440023     6    259    0    0    0
H 1470.50088745 -42.09422654 -19.90712846     6    259    0    0    0
C 1467.32750183 -40.82772135 -21.86362584     2    259   263   264   265
H 1467.67206502 -42.38196320 -23.11264868     6    262    0    0    0
H 1465.34930759 -40.91534786 -21.27354657     6    262    0    0    0
C 1467.82103130 -38.49201489 -23.47732029     2    262   266   267   268
H 1467.46778953 -36.89313599 -22.22586080     6    265    0    0    0
H 1469.73493819 -38.47384583 -23.97934384     6    265    0    0    0
C 1466.43127062 -38.34397901 -26.04068473     2    265   269   270   271
H 1466.99464669 -40.14893794 -27.03569030     6    268    0    0    0
H 1464.36449825 -38.36792687 -25.76388606     6    268    0    0    0
C 1466.97115079 -35.96391454 -27.42925832     2    268   272   273   274
H 1466.50840731 -34.42247816 -25.98524675     6    271    0    0    0
H 1469.06325504 -36.03437574 -27.74159838     6    271    0    0    0
C 1465.43975379 -35.46978639 -29.68897246     1    271   275   276   277
H 1465.65643751 -36.90036532 -31.24828301     6    274    0    0    0
H 1465.79679591 -33.65269083 -30.43188948     6    274    0    0    0
H 1463.48119982 -35.33084160 -29.26441433     6    274    0    0    0
H 1490.60163907 -44.09705632 -8.85785111     6     279    0    0    0 
C 1488.94053672 -43.37887329 -9.94212623     1     278    280    281    282
H 1488.22196987 -44.76584569 -11.42853256     6     279    0    0    0
H 1487.34444119 -43.09942987 -8.63922126     6     279    0    0    0
C 1489.64651195 -41.14315956 -11.74348806     2     279    283    284    285
H 1489.61670953 -39.49560207 -10.45141019     6     282    0    0    0
H 1491.59735099 -41.21592950 -12.27898250     6     282    0    0    0
C 1487.95390984 -40.68242669 -14.16139786     2     282    286   287   288
H 1487.67185197 -42.48900652 -14.86096734     6     285    0    0    0
H 1486.01536275 -39.94017017 -13.53641483     6     285    0    0    0
C 1489.15628674 -38.94711490 -16.18267312     2     285   289   290   291
H 1489.38202735 -37.12721241 -15.42706087     6    288    0    0    0
H 1491.04848555 -39.36932615 -16.53572138     6    288    0    0    0
C 1487.72284457 -39.04821510 -18.71538060     2    288   292   293   294
H 1487.94078063 -40.85330061 -19.34673518     6    291    0    0    0
H 1485.68392270 -38.60900430 -18.17393083     6    291    0    0    0
C 1488.67644550 -37.19076329 -20.71247915     2    291   295   296   297
H 1488.49246290 -35.37324101 -19.65015800     6    294    0    0    0
H 1490.57258582 -37.63701312 -21.45061128     6    294    0    0    0
C 1487.01641753 -36.74949154 -23.18253553     2    294   298   299   300
H 1487.54885221 -38.07379766 -24.77291755     6    297    0    0    0
H 1485.14313749 -37.36030665 -22.61328871     6    297    0    0    0
C 1486.97263863 -33.92848029 -24.02957066     2    297   301   302   303
H 1486.54979677 -32.61811883 -22.55846167     6    300    0    0    0
H 1488.99159627 -33.62328238 -24.63576832     6    300    0    0    0
C 1485.11175880 -33.43914414 -26.12644308     2    300   304   305   306
H 1485.59520716 -34.82763042 -27.67907341     6    303    0    0    0
H 1483.23806131 -34.12449387 -25.33768938     6    303    0    0    0
C 1484.99327781 -30.75341961 -26.93767405     2    303   307   308   309
H 1484.26695198 -29.82627954 -25.16896143     6    306    0    0    0
H 1486.87236352 -29.95829426 -27.27983045     6    306    0    0    0
C 1483.26532784 -30.05133178 -29.30375617     2    306   310   311   312
H 1483.90932381 -31.35840058 -30.81838329     6    309    0    0    0
H 1481.27772182 -30.46763338 -28.90472358     6    309    0    0    0
C 1483.50928928 -27.13938313 -29.64742978     1    309   313   314   315
H 1485.50074878 -26.59826163 -30.08754067     6    312    0    0    0
H 1482.94050317 -25.79054461 -28.12746705     6    312    0    0    0
H 1482.28501792 -26.54039392 -31.14300223     6    312    0    0    0
H 1489.96868894 -42.41818924 9.08436920     6     317    0    0    0 
C 1490.35836798 -41.55480788 7.45276547     1     316    318    319    320
H 1492.13434114 -40.66089742 7.74394604     6     317    0    0    0
H 1490.08198121 -42.76362349 5.75089550     6     317    0    0    0
C 1488.64468327 -39.26542644 6.74080554     2     317    321    322    323
H 1489.40993281 -38.00643958 5.31254333     6     320    0    0    0
H 1486.87223853 -39.86203008 6.01908253     6     320    0    0    0
C 1488.17318354 -37.49459457 9.05909467     2     320    324   325   326
H 1487.04543512 -38.58446682 10.37815843     6     323    0    0    0
H 1489.94505431 -37.16101266 10.01879358     6     323    0    0    0
C 1486.57987779 -35.29971102 8.50112324     2     323   327   328   329
H 1487.12404394 -34.46361488 6.68770940     6    326    0    0    0
H 1484.65659528 -35.79721119 8.37668411     6    326    0    0    0
C 1486.67616563 -33.30380033 10.57234066     2    326   330   331   332
H 1486.48347714 -34.22098081 12.36621609     6    329    0    0    0
H 1488.48285517 -32.45826308 10.63231138     6    329    0    0    0
C 1484.80121010 -31.10778648 10.30194938     2    329   333   334   335
H 1485.23274645 -30.13865715 8.53591419     6    332    0    0    0
H 1482.88690512 -31.77355404 9.94756516     6    332    0    0    0
C 1484.93173884 -29.48457981 12.59845866     2    332   336   337   338
H 1484.62344602 -30.41051024 14.39636779     6    335    0    0    0
H 1486.77380653 -28.62462954 12.52954702     6    335    0    0    0
C 1482.75497765 -27.58755505 12.53348423     2    335   339   340   341
H 1482.79570262 -26.03006459 11.08515525     6    338    0    0    0
H 1481.11460417 -28.70289698 12.15566382     6    338    0    0    0
C 1482.51720477 -26.19325454 15.25371689     2    338   342   343   344
H 1482.30759197 -27.69636931 16.70137711     6    341    0    0    0
H 1484.00211854 -24.86798915 15.58824703     6    341    0    0    0
C 1479.98830450 -24.58547948 15.50399750     2    341   345   346   347
H 1480.17873161 -23.67395838 17.37935593     6    344    0    0    0
H 1479.77300016 -22.98240333 14.29472507     6    344    0    0    0
C 1477.55378547 -26.16880772 15.53679882     2    344   348   349   350
H 1477.44080606 -27.23624989 13.72012138     6    347    0    0    0
H 1477.94899812 -27.63671158 16.87727047     6    347    0    0    0
C 1475.08611000 -24.80788759 16.35859025     1    347   351   352   353
H 1474.55282060 -23.44024520 14.93932291     6    350    0    0    0
H 1475.38813925 -23.77510685 18.04950702     6    350    0    0    0
H 1473.69994788 -26.27030757 16.75601378     6    350    0    0    0
H 1476.98469918 -39.24919217 -6.26177136     6     355    0    0    0 
C 1478.60402184 -40.27756716 -5.33185825     1     354    356    357    358
H 1478.26325763 -40.26398370 -3.33673124     6     355    0    0    0
H 1478.56635963 -42.29704134 -5.84633947     6     355    0    0    0
C 1481.39352970 -39.27847495 -5.92721318     2     355    359    360    361
H 1482.13591054 -39.53771833 -7.77491096     6     358    0    0    0
H 1481.24029642 -37.25661043 -5.59818345     6     358    0    0    0
C 1483.11929066 -40.56824342 -3.95162334     2     358    362   363   364
H 1482.34515168 -40.57333100 -2.02934350     6     361    0    0    0
H 1483.27008594 -42.61921004 -4.24289070     6     361    0    0    0
C 1485.75001782 -39.29735572 -3.84851922     2     361   365   366   367
H 1486.63927030 -39.52922516 -5.66103723     6    364    0    0    0
H 1485.49356581 -37.30764933 -3.55870798     6    364    0    0    0
C 1487.54557395 -39.96175292 -1.76187627     2    364   368   369   370
H 1486.64535398 -39.94783805 0.09197618     6    367    0    0    0
H 1488.02424838 -41.81338195 -2.04191779     6    367    0    0    0
C 1489.96843906 -38.17067300 -1.76338248     2    367   371   372   373
H 1490.48418986 -38.32307982 -3.64069780     6    370    0    0    0
H 1489.46522021 -36.27039320 -1.15226309     6    370    0    0    0
C 1492.08379121 -39.05483341 -0.10086936     2    370   374   375   376
H 1491.75616474 -37.99307281 1.63390740     6    373    0    0    0
H 1492.05429156 -41.12185708 0.21364994     6    373    0    0    0
C 1494.82969884 -38.29480985 -0.95100691     2    373   377   378   379
H 1495.37671369 -39.23143375 -2.68739555     6    376    0    0    0
H 1495.13394503 -36.16862075 -1.27520643     6    376    0    0    0
C 1496.94958200 -39.03248903 0.96597525     2    376   380   381   382
H 1497.20053008 -41.09925818 0.78890013     6    379    0    0    0
H 1498.63021014 -38.12136458 0.26221427     6    379    0    0    0
C 1496.50204309 -37.92804009 3.59529877     2    379   383   384   385
H 1496.28390823 -35.78637477 3.54252128     6    382    0    0    0
H 1494.75000496 -38.63828940 4.26435978     6    382    0    0    0
C 1498.40352759 -38.52862461 5.77867609     2    382   386   387   388
H 1497.78451851 -37.64028913 7.38241197     6    385    0    0    0
H 1498.28886191 -40.43814540 6.46950548     6    385    0    0    0
C 1501.24023195 -38.19851368 5.21574922     1    385   389   390   391
H 1501.90611800 -36.23842992 5.31374760     6    388    0    0    0
H 1501.73753590 -39.10635815 3.41155988     6    388    0    0    0
H 1502.54021476 -39.26095421 6.51524968     6    388    0    0    0
H 1467.54464881 -5.40177819 15.24471694     6     393    0    0    0 
C 1465.69159171 -5.38004718 14.28854621     1     392    394    395    396
H 1464.07932841 -5.78361005 15.57187911     6     393    0    0    0
H 1465.34623867 -3.39754175 13.70557154     6     393    0    0    0
C 1465.63041186 -7.00070591 11.94351556     2     393    397    398    399
H 1466.99151200 -6.27623540 10.60363865     6     396    0    0    0
H 1465.97314283 -8.95470906 12.19272217     6     396    0    0    0
C 1462.99554575 -6.97763731 10.64955340     2     396    400   401   402
H 1461.63935504 -8.16552394 11.68011188     6     399    0    0    0
H 1462.09992652 -5.15621125 10.35873344     6     399    0    0    0
C 1463.13983339 -8.22029865 7.92501448     2     399   403   404   405
H 1464.25589798 -7.03029317 6.59182152     6    402    0    0    0
H 1463.99018986 -9.98197187 7.78612335     6    402    0    0    0
C 1460.54442906 -9.00129641 6.86873220     2    402   406   407   408
H 1459.73411665 -10.55489686 8.00148572     6    405    0    0    0
H 1459.16010561 -7.34946428 7.15815752     6    405    0    0    0
C 1460.48407555 -9.60503549 4.17213512     2    405   409   410   411
H 1461.11307816 -7.93400612 3.08706613     6    408    0    0    0
H 1461.59210329 -11.26485266 3.65956397     6    408    0    0    0
C 1457.64767259 -9.82695574 3.26520795     2    408   412   413   414
H 1456.55192957 -10.92520621 4.53234648     6    411    0    0    0
H 1456.88549477 -7.78086644 3.19947803     6    411    0    0    0
C 1457.64120936 -10.92798583 0.48547435     2    411   415   416   417
H 1459.15352061 -10.29275082 -0.68911475     6    414    0    0    0
H 1458.05743050 -12.94923660 0.67385342     6    414    0    0    0
C 1455.03280189 -11.06233055 -0.75692391     2    414   418   419   420
H 1453.63666508 -12.05392123 0.54998508     6    417    0    0    0
H 1454.49584830 -9.11208158 -1.20053402     6    417    0    0    0
C 1455.13177240 -12.16540624 -3.44661968     2    417   421   422   423
H 1456.68123646 -11.28590237 -4.54885274     6    420    0    0    0
H 1455.59636041 -14.15346970 -2.97539709     6    420    0    0    0
C 1452.43621521 -12.16956749 -4.78614376     2    420   424   425   426
H 1452.82374613 -13.31979212 -6.57890339     6    423    0    0    0
H 1451.09519816 -13.41972782 -3.97420439     6    423    0    0    0
C 1451.39052164 -9.67516115 -5.67127345     1    423   427   428   429
H 1449.68676054 -9.82031116 -6.91734197     6    426    0    0    0
H 1452.66887884 -8.51387107 -6.80026336     6    426    0    0    0
H 1450.90889775 -8.46152878 -4.08366244     6    426    0    0    0
H 1454.00134439 -35.43473404 -0.07999419     6     431    0    0    0 
C 1455.65654462 -35.13935416 1.23616994     1     430    432    433    434
H 1455.03125841 -36.24582086 2.75227325     6     431    0    0    0
H 1457.30169262 -36.01377433 0.46556851     6     431    0    0    0
C 1455.98781229 -32.36033875 1.53965744     2     431    435    436    437
H 1456.89686202 -31.51730653 -0.14700195     6     434    0    0    0
H 1454.19914597 -31.44984210 1.82563153     6     434    0    0    0
C 1457.67365952 -31.93215997 3.93172699     2     434    438   439   440
H 1456.72398405 -32.77186595 5.56454109     6     437    0    0    0
H 1459.31268563 -33.15061860 3.71868396     6     437    0    0    0
C 1458.62174469 -29.29357339 4.51536326     2     437   441   442   443
H 1459.85341299 -29.57321587 6.21144949     6    440    0    0    0
H 1459.86293475 -28.66815517 2.95835598     6    440    0    0    0
C 1456.41631523 -27.37004202 4.87690835     2    440   444   445   446
H 1455.58407540 -26.76525000 3.09675106     6    443    0    0    0
H 1455.10651337 -28.36566479 5.97174987     6    443    0    0    0
C 1457.43346315 -24.97232143 6.30742587     2    443   447   448   449
H 1459.09762316 -25.28123972 7.47902331     6    446    0    0    0
H 1458.06194767 -23.81887402 4.74060269     6    446    0    0    0
C 1455.26720312 -23.69027779 7.69476557     2    446   450   451   452
H 1453.63375967 -23.23724620 6.53596962     6    449    0    0    0
H 1454.56905097 -25.13690665 8.91742723     6    449    0    0    0
C 1456.11949902 -21.32743987 9.22062960     2    449   453   454   455
H 1457.99699632 -21.68837780 10.07155289     6    452    0    0    0
H 1456.61579174 -19.76289026 7.82348303     6    452    0    0    0
C 1454.14574846 -20.18045077 11.13707986     2    452   456   457   458
H 1452.22753637 -19.81149486 10.19237245     6    455    0    0    0
H 1453.67955665 -21.66262580 12.51788440     6    455    0    0    0
C 1454.94919428 -17.84359226 12.65368741     2    455   459   460   461
H 1453.48767564 -17.49816832 14.00660797     6    458    0    0    0
H 1456.63197098 -17.90774275 13.85335614     6    458    0    0    0
C 1454.94263094 -15.65619960 10.76625254     2    458   462   463   464
H 1456.56420826 -15.97905000 9.45152950     6    461    0    0    0
H 1453.15723631 -15.69049022 9.65303251     6    461    0    0    0
C 1455.25287110 -13.08801990 12.06367646     1    461   465   466   467
H 1457.02737434 -13.16412917 13.24052823     6    464    0    0    0
H 1453.84212041 -12.54332334 13.31572234     6    464    0    0    0
H 1455.47265884 -11.67668946 10.68326959     6    464    0    0    0
H 1494.24190748 -46.44384761 5.76234120     6     469    0    0    0 
C 1496.00184112 -46.28216875 4.62305025     1     468    470    471    472
H 1496.55701648 -44.28320520 4.67242713     6     469    0    0    0
H 1497.20153719 -47.70453781 5.41109554     6     469    0    0    0
C 1495.31845746 -47.62618951 2.14084750     2     469    473    474    475
H 1496.81927677 -47.58819984 0.76133888     6     472    0    0    0
H 1495.33450616 -49.61367574 2.49090103     6     472    0    0    0
C 1492.48549135 -47.00535787 1.12116003     2     472    476   477   478
H 1491.16772470 -47.14383055 2.82281144     6     475    0    0    0
H 1492.54009632 -45.05232122 0.63890952     6     475    0    0    0
C 1491.68723188 -48.53517246 -1.16256568     2     475   479   480   481
H 1493.08518318 -48.15137336 -2.65223199     6    478    0    0    0
H 1491.70836648 -50.50527992 -0.70622598     6    478    0    0    0
C 1489.01716925 -47.79021557 -2.15144664     2    478   482   483   484
H 1487.48632124 -47.97862061 -0.78972181     6    481    0    0    0
H 1489.22374485 -45.77528286 -2.28223148     6    481    0    0    0
C 1488.11536682 -48.96759628 -4.67676814     2    481   485   486   487
H 1489.33623319 -48.09831648 -6.00116360     6    484    0    0    0
H 1488.39800446 -51.05562339 -4.57848375     6    484    0    0    0
C 1485.52532114 -48.13861833 -5.60285404     2    484   488   489   490
H 1484.12187872 -48.51359642 -4.21221311     6    487    0    0    0
H 1485.63201549 -46.13345855 -5.73274709     6    487    0    0    0
C 1484.52086267 -48.79383820 -8.40610953     2    487   491   492   493
H 1485.69507336 -47.72993069 -9.72697914     6    490    0    0    0
H 1484.82088364 -50.80771256 -8.94457766     6    490    0    0    0
C 1481.87384549 -47.84071946 -8.87098119     2    490   494   495   496
H 1480.60880547 -48.88649251 -7.53188053     6    493    0    0    0
H 1481.94803771 -45.88071160 -8.36477148     6    493    0    0    0
C 1481.01552892 -48.14813069 -11.67963401     2    493   497   498   499
H 1482.11306121 -47.07195115 -12.80356796     6    496    0    0    0
H 1481.14163809 -50.16281410 -12.27932970     6    496    0    0    0
C 1478.14738751 -47.49649633 -11.96264674     2    496   500   501   502
H 1477.12633983 -48.86685304 -10.70184993     6    499    0    0    0
H 1477.72278542 -45.70937542 -11.27155639     6    499    0    0    0
C 1477.31092887 -47.49522823 -14.68677646     1    499   503   504   505
H 1475.25157959 -47.37283723 -14.72423066     6    502    0    0    0
H 1477.65614201 -49.22375491 -15.67194074     6    502    0    0    0
H 1478.16739649 -46.07562655 -15.88624819     6    502    0    0    0
H 1459.36026177 -40.25495898 -15.32590869     6     507    0    0    0 
C 1457.93077746 -39.40124821 -14.18453937     1     506    508    509    510
H 1456.42610176 -38.88071679 -15.53544402     6     507    0    0    0
H 1457.08788796 -40.78297867 -13.05299864     6     507    0    0    0
C 1459.09810833 -37.11677515 -12.77859855     2     507    511    512    513
H 1460.81637798 -37.80560845 -11.73976988     6     510    0    0    0
H 1459.90312518 -35.83051261 -14.33808989     6     510    0    0    0
C 1457.25056025 -35.72920664 -11.12890881     2     510    514   515   516
H 1456.19119860 -34.72896525 -12.56091239     6     513    0    0    0
H 1455.96377480 -37.19497142 -10.31716308     6     513    0    0    0
C 1458.59581100 -33.70899740 -9.45290394     2     513   517   518   519
H 1459.74444486 -34.58979783 -7.97886073     6    516    0    0    0
H 1459.80966027 -32.39460174 -10.38867931     6    516    0    0    0
C 1456.55637304 -31.87479196 -8.39904853     2    516   520   521   522
H 1455.62078235 -30.95092335 -9.92549325     6    519    0    0    0
H 1455.06681756 -32.92498485 -7.55805307     6    519    0    0    0
C 1457.81712786 -29.95921390 -6.60084210     2    519   523   524   525
H 1458.75002064 -30.94766172 -5.04317124     6    522    0    0    0
H 1459.25477526 -28.75516895 -7.53062097     6    522    0    0    0
C 1455.88392832 -28.01270261 -5.45688771     2    522   526   527   528
H 1455.26336058 -26.94923826 -7.12707031     6    525    0    0    0
H 1454.33448598 -29.05380265 -4.41830074     6    525    0    0    0
C 1457.25723494 -26.10688470 -3.75460836     2    525   529   530   531
H 1458.27269739 -27.26504850 -2.40323703     6    528    0    0    0
H 1458.68271603 -25.14614342 -4.79598519     6    528    0    0    0
C 1455.36173413 -24.53973579 -2.32443012     2    528   532   533   534
H 1453.95832346 -23.70294092 -3.61910178     6    531    0    0    0
H 1454.39145329 -25.78497548 -0.99391852     6    531    0    0    0
C 1456.69233776 -22.27666067 -0.93752551     2    531   535   536   537
H 1457.81716034 -22.80971471 0.59934683     6    534    0    0    0
H 1458.07936978 -21.51450680 -2.29174667     6    534    0    0    0
C 1455.02869911 -20.17502065 -0.15009659     2    534   538   539   540
H 1454.26864435 -19.22507621 -1.85862409     6    537    0    0    0
H 1453.61073693 -20.71472347 1.14245961     6    537    0    0    0
C 1456.48119912 -18.27866738 1.42938236     1    537   541   542   543
H 1458.26231384 -18.09920143 0.71891400     6    540    0    0    0
H 1456.68733143 -18.70756759 3.41094437     6    540    0    0    0
H 1455.64631663 -16.47681560 1.48297333     6    540    0    0    0
H 1470.25155819 -20.22358714 9.17535135     6     545    0    0    0 
C 1470.76664376 -18.49888743 9.99730263     1     544    546    547    548
H 1470.20052765 -16.90658722 8.76712471     6     545    0    0    0
H 1469.59688207 -18.38758440 11.72173205     6     545    0    0    0
C 1473.65223689 -18.77010414 10.58364676     2     545    549    550    551
H 1474.12730028 -20.13749564 12.10601417     6     548    0    0    0
H 1474.61187239 -19.22656113 8.86773598     6     548    0    0    0
C 1474.79834701 -16.11290039 11.18750632     2     548    552   553   554
H 1474.79320498 -15.08740886 9.30192753     6     551    0    0    0
H 1473.40331208 -14.92089967 12.29668938     6     551    0    0    0
C 1477.43296075 -16.30384355 12.25172226     2     551   555   556   557
H 1477.23056533 -16.99970812 14.15440205     6    554    0    0    0
H 1478.70838229 -17.59680500 11.20502518     6    554    0    0    0
C 1478.75248933 -13.84500652 12.43723733     2    554   558   559   560
H 1478.50693753 -12.63363865 10.84799390     6    557    0    0    0
H 1477.95257959 -12.78286360 13.93215301     6    557    0    0    0
C 1481.57542116 -14.07483681 12.77198238     2    557   561   562   563
H 1482.11831296 -15.16298031 14.39100711     6    560    0    0    0
H 1482.40598375 -14.81492612 11.07587772     6    560    0    0    0
C 1482.62196082 -11.38390616 12.90522313     2    560   564   565   566
H 1482.13837101 -10.25692967 11.32992172     6    563    0    0    0
H 1481.67580232 -10.47692458 14.51448980     6    563    0    0    0
C 1485.41640235 -11.46025936 13.64968104     2    563   567   568   569
H 1485.84302478 -11.31403974 15.64227821     6    566    0    0    0
H 1486.42026659 -13.08162669 12.87147322     6    566    0    0    0
C 1486.72891405 -9.20513831 12.60324844     2    566   570   571   572
H 1486.47326870 -9.09841288 10.58939773     6    569    0    0    0
H 1486.07452772 -7.42595156 13.53814601     6    569    0    0    0
C 1489.59559967 -9.47076769 13.22396919     2    569   573   574   575
H 1489.98302611 -9.35492768 15.23798351     6    572    0    0    0
H 1490.30152801 -11.24366735 12.80393901     6    572    0    0    0
C 1491.31623225 -7.53091573 11.62722568     2    572   576   577   578
H 1490.83339112 -5.45893289 12.07036117     6    575    0    0    0
H 1493.28814437 -7.81945100 12.15793948     6    575    0    0    0
C 1491.22694924 -7.97898424 8.81976403     1    575   579   580   581
H 1489.38346854 -7.47256152 8.03170292     6    578    0    0    0
H 1491.33002766 -9.97898519 8.21009163     6    578    0    0    0
H 1492.62404293 -6.78635028 7.96072498     6    578    0    0    0
H 1504.85476066 -38.81153618 -6.82802189     6     583    0    0    0 
C 1505.48475104 -37.32220821 -5.52663149     1     582    584    585    586
H 1507.19174824 -37.86967184 -4.40101438     6     583    0    0    0
H 1506.09703495 -35.91295545 -6.76388101     6     583    0    0    0
C 1503.55083022 -36.63199659 -3.59385396     2     583    587    588    589
H 1502.01776977 -36.14831723 -4.83897156     6     586    0    0    0
H 1503.10355472 -38.30932371 -2.47995852     6     586    0    0    0
C 1504.09854599 -34.25695712 -2.01223890     2     586    590   591   592
H 1506.13249039 -34.17359276 -1.66147865     6     589    0    0    0
H 1503.48235122 -32.73115890 -3.28990337     6     589    0    0    0
C 1502.38208550 -33.99321650 0.26203304     2     589   593   594   595
H 1500.33373721 -33.61877115 -0.33747448     6    592    0    0    0
H 1502.66171147 -35.61249471 1.43407457     6    592    0    0    0
C 1503.36778948 -31.65172306 1.72386939     2    592   596   597   598
H 1505.35073723 -31.73841696 2.11085917     6    595    0    0    0
H 1503.01884731 -30.02417364 0.33259097     6    595    0    0    0
C 1502.08247588 -31.01265303 4.25965526     2    595   599   600   601
H 1499.90219707 -30.93281387 4.21997242     6    598    0    0    0
H 1502.35694980 -32.48771575 5.88830886     6    598    0    0    0
C 1502.72856093 -28.39578442 5.03761490     2    598   602   603   604
H 1504.82002990 -28.33637312 5.04087011     6    601    0    0    0
H 1502.02220286 -27.24042236 3.71178445     6    601    0    0    0
C 1501.64775673 -27.68552464 7.71254669     2    601   605   606   607
H 1499.61400712 -27.81583636 7.64890298     6    604    0    0    0
H 1502.31056895 -29.06162069 9.22445025     6    604    0    0    0
C 1502.33166714 -25.02994028 8.53335014     2    604   608   609   610
H 1504.39481515 -24.81204183 8.70559576     6    607    0    0    0
H 1502.01408208 -23.74986950 6.87941663     6    607    0    0    0
C 1500.84476365 -24.21518802 10.77734845     2    607   611   612   613
H 1498.81732135 -24.58291032 10.37284862     6    610    0    0    0
H 1501.29831148 -25.35370752 12.35222994     6    610    0    0    0
C 1501.26979269 -21.56491767 11.57604282     2    610   614   615   616
H 1503.20453205 -21.05568348 11.60175677     6    613    0    0    0
H 1500.50317456 -20.33327879 10.15883618     6    613    0    0    0
C 1500.02363964 -21.07034835 14.10140170     1    613   617   618   619
H 1499.74085085 -19.01025601 14.29613691     6    616    0    0    0
H 1501.14643779 -21.61230999 15.76801152     6    616    0    0    0
H 1498.41087706 -22.27325327 14.42162350     6    616    0    0    0
H 1475.11087975 -5.13083325 -10.88673245     6     621    0    0    0 
C 1476.42706792 -4.08334940 -9.78648045     1     620    622    623    624
H 1475.33397755 -2.53516342 -8.96136274     6     621    0    0    0
H 1476.78949048 -5.02373351 -8.08981750     6     621    0    0    0
C 1478.77137741 -3.50873233 -11.53663899     2     621    625    626    627
H 1479.55418701 -1.72196929 -10.67182765     6     624    0    0    0
H 1480.29560103 -4.92785129 -11.52044770     6     624    0    0    0
C 1477.97341229 -2.71577919 -14.21824812     2     624    628   629   630
H 1477.28586286 -4.47945784 -15.17447992     6     627    0    0    0
H 1476.29641887 -1.58128817 -13.97104125     6     627    0    0    0
C 1479.72283056 -1.02066085 -15.77822519     2     627   631   632   633
H 1478.31735813 -0.09576715 -17.07789710     6    630    0    0    0
H 1480.81381232 0.37342649 -14.62270166     6    630    0    0    0
C 1481.44522248 -2.52973331 -17.46630714     2    630   634   635   636
H 1480.30771255 -3.44838104 -18.85431325     6    633    0    0    0
H 1482.57457560 -0.95272441 -18.41288345     6    633    0    0    0
C 1483.27039615 -4.48389375 -16.15465161     2    633   637   638   639
H 1484.10968615 -3.64735782 -14.42620156     6    636    0    0    0
H 1482.32976758 -6.12709929 -15.42546982     6    636    0    0    0
C 1485.38558123 -5.26770945 -17.83404741     2    636   640   641   642
H 1484.63176504 -6.57236969 -19.31288483     6    639    0    0    0
H 1486.40907143 -3.63398619 -18.61479046     6    639    0    0    0
C 1487.42260385 -6.61257852 -16.29820028     2    639   643   644   645
H 1488.13627340 -5.66572092 -14.70048450     6    642    0    0    0
H 1486.55636026 -8.23108974 -15.33212804     6    642    0    0    0
C 1489.77407114 -7.35359196 -17.75939784     2    642   646   647   648
H 1490.66707254 -9.03022959 -16.91609987     6    645    0    0    0
H 1489.29630940 -8.22330628 -19.59186244     6    645    0    0    0
C 1491.74390395 -5.21908346 -18.09288205     2    645   649   650   651
H 1490.84607985 -3.36424774 -18.44577392     6    648    0    0    0
H 1492.74442254 -4.85403766 -16.22586167     6    648    0    0    0
C 1493.53989159 -5.71567653 -20.26334989     2    648   652   653   654
H 1494.04046695 -7.57370641 -20.18773419     6    651    0    0    0
H 1492.92164703 -5.40503280 -22.23563078     6    651    0    0    0
C 1495.83658233 -4.05817028 -19.77641060     1    651   655   656   657
H 1495.52920092 -2.03320504 -19.95496957     6    654    0    0    0
H 1497.04991550 -4.76175580 -21.14194335     6    654    0    0    0
H 1496.74847166 -4.32630146 -17.95118555     6    654    0    0    0
H 1497.12766685 -26.87787783 -8.63635009     6     659    0    0    0 
C 1497.06696426 -25.45138185 -7.18414025     1     658    660    661    662
H 1496.76936643 -23.69559529 -8.11176872     6     659    0    0    0
H 1495.43518465 -25.99118561 -6.01418368     6     659    0    0    0
C 1499.64186284 -25.55686040 -5.94301177     2     659    663    664    665
H 1499.84497720 -27.51178688 -5.27178836     6     662    0    0    0
H 1501.02683130 -25.13962682 -7.27979538     6     662    0    0    0
C 1499.81818633 -23.86338020 -3.52924263     2     662    666   667   668
H 1501.86882463 -24.17306514 -3.11154048     6     665    0    0    0
H 1499.62983436 -21.88311955 -3.87952368     6     665    0    0    0
C 1498.07952683 -24.71895213 -1.26429965     2     665   669   670   671
H 1496.12591304 -24.64229015 -1.88122869     6    668    0    0    0
H 1498.28803088 -26.77444561 -0.93269724     6    668    0    0    0
C 1498.49375425 -23.29359942 1.30407386     2    668   672   673   674
H 1500.22544060 -23.97143947 2.15807857     6    671    0    0    0
H 1498.84910098 -21.26403851 0.88885998     6    671    0    0    0
C 1496.22158657 -23.43505370 2.91476545     2    671   675   676   677
H 1494.57180107 -22.66572324 2.13036107     6    674    0    0    0
H 1495.94621687 -25.43207842 3.48038746     6    674    0    0    0
C 1496.50272652 -21.79308751 5.34240957     2    674   678   679   680
H 1495.18649957 -22.53730063 6.77383467     6    677    0    0    0
H 1498.41499899 -21.78837889 6.04476324     6    677    0    0    0
C 1495.50143038 -19.03781201 4.96309264     2    677   681   682   683
H 1496.33203249 -18.12542446 3.29044706     6    680    0    0    0
H 1493.50952876 -18.91012512 4.65922465     6    680    0    0    0
C 1496.23588549 -17.17229017 7.14174455     2    680   684   685   686
H 1498.17706676 -17.02118799 7.33811583     6    683    0    0    0
H 1495.53447066 -15.32550808 6.60716101     6    683    0    0    0
C 1495.00017750 -17.80824572 9.76192611     2    683   687   688   689
H 1492.84904989 -17.83230740 9.58659942     6    686    0    0    0
H 1495.56884418 -19.67149736 10.47181987     6    686    0    0    0
C 1495.88850955 -15.77172024 11.84022366     2    686   690   691   692
H 1497.95314460 -15.40631447 12.27059725     6    689    0    0    0
H 1495.28687593 -13.89135649 11.21025954     6    689    0    0    0
C 1494.63743708 -16.27463170 14.36494970     1    689   693   694   695
H 1495.73091384 -15.35558855 15.97919600     6    692    0    0    0
H 1494.38841144 -18.30184442 14.55630650     6    692    0    0    0
H 1492.86061237 -15.54108617 14.30221590     6    692    0    0    0
H 1480.49326747 6.06750375 27.34198717     6     697    0    0    0 
C 1480.07248551 7.29472256 25.72527868     1     696    698    699    700
H 1478.72292162 8.61221511 26.27607914     6     697    0    0    0
H 1481.81724991 8.17304090 25.03299160     6     697    0    0    0
C 1478.82086231 5.78934728 23.68831454     2     697    701    702    703
H 1478.25989274 6.69949519 21.95418096     6     700    0    0    0
H 1480.24302062 4.58984644 22.86440744     6     700    0    0    0
C 1476.48683112 4.14290926 24.58065060     2     700    704   705   706
H 1476.50868761 3.62758815 26.52463234     6     703    0    0    0
H 1474.67084415 5.23405549 24.46345053     6     703    0    0    0
C 1475.91427970 1.92205639 22.86605267     2     703   707   708   709
H 1475.08421529 2.75048762 21.17345638     6    706    0    0    0
H 1477.56702751 0.77336049 22.59307620     6    706    0    0    0
C 1473.60239227 0.32632948 23.87763762     2    706   710   711   712
H 1473.81762209 0.19313920 25.87106423     6    709    0    0    0
H 1471.86035841 1.27022705 23.52827856     6    709    0    0    0
C 1473.69939863 -2.23393983 22.53431635     2    709   713   714   715
H 1473.99797710 -1.98242406 20.52661414     6    712    0    0    0
H 1475.17588455 -3.53494535 23.21556202     6    712    0    0    0
C 1471.26131701 -3.76050922 22.41106848     2    712   716   717   718
H 1470.78265418 -4.18551392 24.33049893     6    715    0    0    0
H 1469.86012266 -2.42525680 21.48362031     6    715    0    0    0
C 1471.30755075 -6.22440479 20.84206463     2    715   719   720   721
H 1471.81718555 -5.93402411 18.88371571     6    718    0    0    0
H 1472.55191832 -7.56284420 21.67425285     6    718    0    0    0
C 1468.47136337 -7.17612147 20.67353236     2    718   722   723   724
H 1467.55379029 -7.25998843 22.41979445     6    721    0    0    0
H 1467.49165164 -5.62488227 19.72919391     6    721    0    0    0
C 1468.34307284 -9.65047262 19.04137018     2    721   725   726   727
H 1468.89472762 -8.90068258 17.19935778     6    724    0    0    0
H 1469.85542971 -11.01937719 19.45714076     6    724    0    0    0
C 1465.78534098 -10.75295143 18.88131818     2    724   728   729   730
H 1464.28485536 -9.32362857 18.55759762     6    727    0    0    0
H 1465.92426644 -11.93854091 17.23203308     6    727    0    0    0
C 1465.01081223 -12.27374565 21.16805627     1    727   731   732   733
H 1463.54574913 -13.42350679 20.30192949     6    730    0    0    0
H 1464.18800989 -10.99917221 22.46331082     6    730    0    0    0
H 1466.39864058 -13.66803975 21.99544790     6    730    0    0    0
H 1478.82488156 -40.25497171 15.74428717     6     735    0    0    0 
C 1480.78387973 -39.77861528 16.11869782     1     734    736    737    738
H 1480.86025875 -38.35351717 17.63164842     6     735    0    0    0
H 1481.55273929 -41.68188411 16.43062178     6     735    0    0    0
C 1481.65573096 -38.66383106 13.62838435     2     735    739    740    741
H 1481.12022944 -36.76081922 13.27797582     6     738    0    0    0
H 1483.70309782 -38.58234296 13.88211312     6     738    0    0    0
C 1480.76225567 -40.15569047 11.32475134     2     738    742   743   744
H 1478.74379107 -40.01334973 11.27971840     6     741    0    0    0
H 1481.31177187 -38.97984393 9.67277267     6     741    0    0    0
C 1481.69911235 -42.86415509 10.87411352     2     741   745   746   747
H 1483.64355466 -43.01901505 11.52387409     6    744    0    0    0
H 1480.69323356 -44.06296318 12.08355582     6    744    0    0    0
C 1481.76720289 -43.82124601 8.12728936     2    744   748   749   750
H 1483.26663547 -42.74302288 7.39456144     6    747    0    0    0
H 1482.17680513 -45.77032917 8.17988486     6    747    0    0    0
C 1479.43695884 -43.24694505 6.61332986     2    747   751   752   753
H 1477.68376028 -44.03820024 7.26237054     6    750    0    0    0
H 1479.15404101 -41.15819256 6.54801538     6    750    0    0    0
C 1479.92501121 -44.01752182 3.91042278     2    750   754   755   756
H 1481.38683877 -42.96397224 3.07600499     6    753    0    0    0
H 1480.48125718 -45.99380241 4.00610416     6    753    0    0    0
C 1477.64488994 -44.14903469 2.28652998     2    753   757   758   759
H 1476.07618449 -45.06622193 3.20555357     6    756    0    0    0
H 1476.84076960 -42.25295861 2.04574843     6    756    0    0    0
C 1478.08583970 -45.57585187 -0.24175600     2    756   760   761   762
H 1479.68797282 -44.57154345 -1.18333742     6    759    0    0    0
H 1478.62072765 -47.53035366 0.20534816     6    759    0    0    0
C 1475.56471411 -45.84498709 -1.54934423     2    759   763   764   765
H 1474.18646408 -46.62524087 -0.33289508     6    762    0    0    0
H 1474.61435797 -44.04225467 -1.60295140     6    762    0    0    0
C 1475.35088683 -47.18009803 -4.10198529     2    762   766   767   768
H 1477.06929204 -46.60221374 -5.13918442     6    765    0    0    0
H 1475.55386202 -49.30500325 -3.99421789     6    765    0    0    0
C 1473.05138485 -46.33343270 -5.54889172     1    765   769   770   771
H 1471.41548441 -47.21161486 -4.77492191     6    768    0    0    0
H 1473.22820778 -47.12552550 -7.43542879     6    768    0    0    0
H 1472.77973720 -44.42157677 -5.66424509     6    768    0    0    0
H 1478.47001275 -9.26037751 -22.36093138     6     773    0    0    0 
C 1478.02024632 -7.21747786 -22.42318937     1     772    774    775    776
H 1478.83583678 -6.65502709 -20.65144170     6     773    0    0    0
H 1479.27043449 -6.31255481 -23.82836810     6     773    0    0    0
C 1475.13329977 -6.54055002 -22.62917343     2     773    777    778    779
H 1474.76287683 -4.57250310 -23.18534343     6     776    0    0    0
H 1474.35615272 -7.67307836 -24.15275800     6     776    0    0    0
C 1473.80610007 -7.03010706 -20.03139640     2     776    780   781   782
H 1474.35351865 -8.99101489 -19.32217378     6     779    0    0    0
H 1474.39896274 -5.74275272 -18.49088783     6     779    0    0    0
C 1470.98017755 -6.59060792 -20.06317468     2     779   783   784   785
H 1470.78035390 -4.84724433 -20.88015535     6    782    0    0    0
H 1470.06569096 -7.62523398 -21.51694830     6    782    0    0    0
C 1469.61972310 -6.71729504 -17.42400050     2    782   786   787   788
H 1470.27625296 -8.39861528 -16.35055627     6    785    0    0    0
H 1470.47528531 -5.13925168 -16.41992381     6    785    0    0    0
C 1466.73575038 -6.26668635 -17.61793694     2    785   789   790   791
H 1466.53018833 -4.57324788 -18.77785537     6    788    0    0    0
H 1465.79086482 -7.95234870 -18.38408941     6    788    0    0    0
C 1465.42599310 -5.79120318 -15.04641967     2    788   792   793   794
H 1465.85787435 -7.19235248 -13.58131289     6    791    0    0    0
H 1466.48453968 -4.26170580 -14.38091600     6    791    0    0    0
C 1462.67628604 -5.05688507 -15.20971423     2    791   795   796   797
H 1462.18939269 -3.57003358 -16.53692688     6    794    0    0    0
H 1461.73508436 -6.67929497 -15.92833543     6    794    0    0    0
C 1461.33873972 -4.45001191 -12.61097048     2    794   798   799   800
H 1461.60996401 -5.90403900 -11.38348857     6    797    0    0    0
H 1462.44385178 -2.93439002 -11.93013609     6    797    0    0    0
C 1458.46779493 -3.88725114 -13.00998459     2    797   801   802   803
H 1458.06751266 -2.12363819 -14.05006142     6    800    0    0    0
H 1457.67268082 -5.36815815 -14.08773058     6    800    0    0    0
C 1457.21166537 -3.93595223 -10.34668328     2    800   804   805   806
H 1457.33981668 -5.96013213 -9.77198008     6    803    0    0    0
H 1458.24587764 -2.64419507 -9.17552315     6    803    0    0    0
C 1454.45976093 -3.17382156 -10.23660371     1    803   807   808   809
H 1453.50816683 -4.25396470 -11.60214438     6    806    0    0    0
H 1454.47028115 -1.28136235 -10.57580639     6    806    0    0    0
H 1453.58862250 -3.77493945 -8.39081567     6    806    0    0    0
H 1497.38009531 -34.32081119 -5.87012391     6     811    0    0    0 
C 1496.95107031 -32.38450326 -5.23493854     1     810    812    813    814
H 1498.21940455 -31.93357199 -3.71902452     6     811    0    0    0
H 1497.53084640 -30.97173812 -6.69289504     6     811    0    0    0
C 1494.02507020 -32.01647568 -4.82704541     2     811    815    816    817
H 1493.36653997 -33.08975015 -3.10273373     6     814    0    0    0
H 1493.69285553 -30.02708159 -4.58791183     6     814    0    0    0
C 1492.38158360 -33.15434325 -6.99241932     2     814    818   819   820
H 1492.71564476 -32.29208859 -8.81023065     6     817    0    0    0
H 1492.78897410 -35.24645278 -7.07554389     6     817    0    0    0
C 1489.50115187 -32.50476908 -6.99339657     2     817   821   822   823
H 1488.63807889 -33.23378913 -5.21490463     6    820    0    0    0
H 1489.42842421 -30.44979987 -6.90109617     6    820    0    0    0
C 1488.15283232 -33.11618727 -9.43964013     2    820   824   825   826
H 1488.61365058 -31.65581950 -11.02465927     6    823    0    0    0
H 1488.79553095 -34.76271252 -10.34288382     6    823    0    0    0
C 1485.30148010 -33.42815268 -9.00319908     2    823   827   828   829
H 1485.14308691 -35.07395052 -7.82635852     6    826    0    0    0
H 1484.60165057 -31.79718551 -8.05706878     6    826    0    0    0
C 1483.88943123 -33.66834607 -11.53888859     2    826   830   831   832
H 1483.97288054 -31.76013353 -12.22434514     6    829    0    0    0
H 1484.85399074 -34.83931930 -12.91650935     6    829    0    0    0
C 1481.16586424 -34.48940145 -11.31488351     2    829   833   834   835
H 1481.17756162 -36.23125111 -10.26140678     6    832    0    0    0
H 1480.08174584 -33.07078903 -10.33639444     6    832    0    0    0
C 1479.96026942 -34.66805140 -13.92251805     2    832   836   837   838
H 1480.16178272 -36.51845534 -14.67340942     6    835    0    0    0
H 1477.89151363 -34.65051835 -13.66122979     6    835    0    0    0
C 1480.55527704 -32.75651810 -16.10107566     2    835   839   840   841
H 1479.72202666 -30.82110881 -15.49045350     6    838    0    0    0
H 1482.55364106 -32.45213794 -16.41222713     6    838    0    0    0
C 1479.36328966 -33.63096700 -18.51280562     2    838   842   843   844
H 1479.79709352 -35.60644331 -18.81012560     6    841    0    0    0
H 1477.28188794 -33.58091023 -18.57913348     6    841    0    0    0
C 1480.33050075 -31.98036784 -20.53787338     1    841   845   846   847
H 1480.11473117 -32.57175985 -22.40744187     6    844    0    0    0
H 1482.27455055 -31.46392227 -20.22324044     6    844    0    0    0
H 1479.17629877 -30.39610899 -20.29263978     6    844    0    0    0
H 1510.24512902 -11.58341229 16.82085943     6     849    0    0    0 
C 1508.52333343 -10.70062025 16.54928256     1     848    850    851    852
H 1507.53283639 -10.70847974 18.44822712     6     849    0    0    0
H 1508.89226415 -8.85821988 15.96958965     6     849    0    0    0
C 1506.74413178 -12.19760576 14.75626075     2     849    853    854    855
H 1506.30804137 -14.10557917 15.37760484     6     852    0    0    0
H 1504.91578249 -11.14124263 14.84867436     6     852    0    0    0
C 1507.59933953 -12.34255977 12.02261286     2     852    856   857   858
H 1507.40978446 -10.50249734 11.06817717     6     855    0    0    0
H 1509.52781913 -12.75403095 11.94819751     6     855    0    0    0
C 1506.03634542 -14.39246745 10.41655967     2     855   859   860   861
H 1505.91338607 -16.28010201 11.25980726     6    858    0    0    0
H 1504.09436373 -13.81184026 10.30507363     6    858    0    0    0
C 1506.67017701 -14.77233602 7.60781026     2    858   862   863   864
H 1506.62362387 -13.00004653 6.63580496     6    861    0    0    0
H 1508.64783323 -15.39084785 7.48992878     6    861    0    0    0
C 1505.22517886 -16.91976274 6.34751184     2    861   865   866   867
H 1505.56143579 -18.68450845 7.45988625     6    864    0    0    0
H 1503.15964328 -16.44980857 6.23438507     6    864    0    0    0
C 1506.37074847 -17.30032249 3.59929538     2    864   868   869   870
H 1505.75904534 -15.51054339 2.60459109     6    867    0    0    0
H 1508.40469026 -17.41305379 3.65936029     6    867    0    0    0
C 1505.05479977 -19.50348455 2.31250520     2    867   871   872   873
H 1504.05315521 -20.47653834 3.74652202     6    870    0    0    0
H 1503.53886592 -18.84998176 1.08351004     6    870    0    0    0
C 1506.83416658 -21.23543937 0.80762855     2    870   874   875   876
H 1505.42245606 -22.46432943 -0.10263939     6    873    0    0    0
H 1507.71343298 -20.24414199 -0.87095656     6    873    0    0    0
C 1508.74082881 -22.84839937 2.48040330     2    873   877   878   879
H 1509.33156666 -21.70285904 4.14611066     6    876    0    0    0
H 1507.73653506 -24.57223027 3.25637041     6    876    0    0    0
C 1510.97321321 -23.85921896 1.02074403     2    876   880   881   882
H 1510.36968848 -25.20380691 -0.50781807     6    879    0    0    0
H 1511.98306489 -22.35706640 0.07514636     6    879    0    0    0
C 1512.87447644 -24.95591070 2.92511277     1    879   883   884   885
H 1511.85655015 -26.17332145 4.25750041     6    882    0    0    0
H 1513.89231365 -23.50690875 4.03205430     6    882    0    0    0
H 1514.31725427 -26.32153518 1.99660105     6    882    0    0    0
H 1476.29295532 -26.14862425 -9.62160412     6     887    0    0    0 
C 1477.08380459 -24.25131872 -9.42250102     1     886    888    889    890
H 1478.54559334 -23.86806161 -10.74640685     6     887    0    0    0
H 1475.66627914 -22.82259235 -9.79773036     6     887    0    0    0
C 1477.76116777 -24.25587531 -6.59498761     2     887    891    892    893
H 1478.17368176 -22.24061121 -6.28304504     6     890    0    0    0
H 1476.23625893 -24.96402983 -5.38100244     6     890    0    0    0
C 1480.05726559 -25.93559478 -6.03634632     2     890    894   895   896
H 1479.91463228 -27.84315303 -6.65927263     6     893    0    0    0
H 1481.43286983 -24.92305716 -7.15920160     6     893    0    0    0
C 1481.09544785 -25.83698358 -3.36512748     2     893   897   898   899
H 1481.19174251 -24.02627283 -2.62108383     6    896    0    0    0
H 1479.74392133 -26.46909525 -1.98049922     6    896    0    0    0
C 1483.64843231 -27.01065260 -2.96840172     2    896   900   901   902
H 1483.38510193 -29.03843165 -3.33733244     6    899    0    0    0
H 1484.86658554 -26.07288746 -4.36379393     6    899    0    0    0
C 1484.64680083 -26.78984941 -0.22522253     2    899   903   904   905
H 1484.49594120 -24.84231586 0.45460284     6    902    0    0    0
H 1483.37476879 -27.78492587 1.01099857     6    902    0    0    0
C 1487.23048538 -28.03016458 0.23163955     2    902   906   907   908
H 1487.23173093 -29.96073962 -0.58325869     6    905    0    0    0
H 1488.64451581 -26.71564104 -0.54792385     6    905    0    0    0
C 1488.02808777 -28.05165209 3.04081822     2    905   909   910   911
H 1487.80531448 -26.04238900 3.75331337     6    908    0    0    0
H 1486.56341233 -29.13781466 3.93355486     6    908    0    0    0
C 1490.54444166 -29.60655256 3.33484907     2    908   912   913   914
H 1490.06869300 -31.49883200 2.70546733     6    911    0    0    0
H 1491.96669498 -28.76067427 2.21152489     6    911    0    0    0
C 1491.31370716 -29.61277215 6.00127935     2    911   915   916   917
H 1491.86299642 -27.67831397 6.43919979     6    914    0    0    0
H 1489.61302879 -30.27437879 7.05292913     6    914    0    0    0
C 1493.67630498 -31.23458725 6.45711084     2    914   918   919   920
H 1493.60041953 -33.19675920 5.56848303     6    917    0    0    0
H 1495.25844291 -30.28880997 5.62616360     6    917    0    0    0
C 1494.23613789 -31.38174443 9.33428076     1    917   921   922   923
H 1492.52294645 -32.19946970 10.34326292     6    920    0    0    0
H 1494.21970696 -29.62847493 10.19101622     6    920    0    0    0
H 1495.89314862 -32.37685013 9.86546233     6    920    0    0    0
H 1502.95375947 -16.94174150 -4.67557864     6     925    0    0    0 
C 1504.71593163 -16.49492986 -5.66548219     1     924    926    927    928
H 1504.24551400 -14.57894204 -6.63692075     6     925    0    0    0
H 1506.26102568 -16.11290514 -4.34838099     6     925    0    0    0
C 1505.59577278 -18.32848618 -7.62030889     2     925    929    930    931
H 1503.91061878 -19.00611207 -8.74700586     6     928    0    0    0
H 1506.97391124 -17.53342750 -8.76114177     6     928    0    0    0
C 1506.68956089 -20.77091554 -6.54909148     2     928    932   933   934
H 1508.25213036 -20.62985063 -5.16865342     6     931    0    0    0
H 1505.06082306 -21.69194813 -5.69053476     6     931    0    0    0
C 1507.61624347 -22.47313853 -8.70761046     2     931   935   936   937
H 1506.28149440 -22.96741507 -10.05695048     6    934    0    0    0
H 1509.03102711 -21.29455953 -9.77383498     6    934    0    0    0
C 1509.10857487 -24.86842268 -7.94644228     2    934   938   939   940
H 1510.01395071 -25.81982044 -9.52604904     6    937    0    0    0
H 1510.61370941 -24.35835059 -6.74199229     6    937    0    0    0
C 1507.34022222 -26.69843878 -6.58816999     2    937   941   942   943
H 1506.50864124 -25.65566051 -5.04773994     6    940    0    0    0
H 1505.89408668 -27.82689914 -7.79285760     6    940    0    0    0
C 1508.91769187 -28.63059174 -4.94206470     2    940   944   945   946
H 1510.41008009 -27.70192671 -3.84530654     6    943    0    0    0
H 1507.70696779 -29.39512686 -3.59254191     6    943    0    0    0
C 1510.05131608 -30.70486870 -6.55072971     2    943   947   948   949
H 1508.45846957 -31.93513080 -6.98187804     6    946    0    0    0
H 1510.63044234 -30.03341407 -8.36753632     6    946    0    0    0
C 1512.11396902 -32.20155701 -5.24873223     2    946   950   951   952
H 1513.73844460 -30.95484934 -5.32676758     6    949    0    0    0
H 1511.63057042 -32.70364025 -3.24282268     6    949    0    0    0
C 1512.92906314 -34.53858347 -6.66018435     2    949   953   954   955
H 1511.45291946 -35.90261360 -6.63013604     6    952    0    0    0
H 1513.37121552 -34.12208803 -8.61552564     6    952    0    0    0
C 1515.49213250 -35.50144452 -5.59417210     2    952   956   957   958
H 1516.29933534 -36.63729893 -7.23574532     6    955    0    0    0
H 1516.76638149 -33.93452217 -5.09964388     6    955    0    0    0
C 1515.33201474 -37.13233553 -3.25223321     1    955   959   960   961
H 1517.00505745 -38.25249643 -2.91686766     6    958    0    0    0
H 1513.64468433 -38.24943015 -3.17590036     6    958    0    0    0
H 1515.17171564 -35.93903276 -1.61855673     6    958    0    0    0
H 1463.44877796 -34.37278424 0.58042455     6     963    0    0    0 
C 1465.29366471 -33.82115717 0.03447895     1     962    964    965    966
H 1466.75395796 -34.62447901 1.26506293     6     963    0    0    0
H 1465.46014241 -34.83858057 -1.68651575     6     963    0    0    0
C 1465.40193230 -30.91987676 -0.35059525     2     963    967    968    969
H 1467.19076017 -30.59085763 -1.46168371     6     966    0    0    0
H 1464.06150958 -30.09922586 -1.58374607     6     966    0    0    0
C 1465.40730485 -29.48366578 2.05027467     2     966    970   971   972
H 1464.08448507 -30.20547691 3.39460713     6     969    0    0    0
H 1467.25891031 -29.59088580 2.80275246     6     969    0    0    0
C 1465.11789359 -26.50064212 1.63964792     2     969   973   974   975
H 1466.75175318 -25.97173118 0.46837694     6    972    0    0    0
H 1463.39686121 -26.14896244 0.57459805     6    972    0    0    0
C 1464.76881309 -24.77933262 3.99109998     2    972   976   977   978
H 1463.76938536 -25.79068356 5.44819977     6    975    0    0    0
H 1466.67773040 -24.24162677 4.65845549     6    975    0    0    0
C 1463.65045092 -22.19537598 3.56863489     2    975   979   980   981
H 1465.00669925 -21.18264586 2.27455741     6    978    0    0    0
H 1461.86565904 -22.01888960 2.38058211     6    978    0    0    0
C 1463.61954115 -20.77337336 6.17616175     2    978   982   983   984
H 1462.66615652 -21.90863096 7.68675098     6    981    0    0    0
H 1465.57047714 -20.42464497 6.92852629     6    981    0    0    0
C 1462.20642289 -18.20886873 5.94873445     2    981   985   986   987
H 1462.97835637 -17.03384832 4.47513327     6    984    0    0    0
H 1460.27406578 -18.48319794 5.22507861     6    984    0    0    0
C 1461.75010168 -16.89052056 8.47002045     2    984   988   989   990
H 1460.69003509 -15.25129519 8.06535076     6    987    0    0    0
H 1460.53116858 -18.13546972 9.71389304     6    987    0    0    0
C 1464.17958966 -16.14179237 9.92920477     2    987   991   992   993
H 1465.52789806 -17.63810647 10.20417627     6    990    0    0    0
H 1465.49718870 -15.06029957 8.83853870     6    990    0    0    0
C 1463.83063151 -14.71227163 12.44268050     2    990   994   995   996
H 1465.54659080 -14.01037395 13.12472319     6    993    0    0    0
H 1462.49317134 -13.10817330 12.23267073     6    993    0    0    0
C 1463.01786895 -16.57697234 14.32246798     1    993   997   998   999
H 1461.13991627 -17.41333009 14.12936377     6    996    0    0    0
H 1463.20339572 -15.77815393 16.21769072     6    996    0    0    0
H 1464.12427430 -18.18859174 14.40617934     6    996    0    0    0
H 1468.96982819 -50.01795946 -12.53091652     6     1001    0    0    0 
C 1468.01297607 -50.19754269 -10.83666502     1     1000    1002    1003    1004
H 1466.69590723 -51.77222733 -10.81640171     6     1001    0    0    0
H 1469.39797443 -50.87100775 -9.45520861     6     1001    0    0    0
C 1466.92843513 -47.69508531 -9.81089116     2     1001    1005    1006    1007
H 1468.41084359 -46.29793805 -9.98369357     6     1004    0    0    0
H 1465.60898633 -47.07729432 -11.20580353     6     1004    0    0    0
C 1465.68181146 -47.93979726 -7.14327540     2     1004    1008   1009   1010
H 1463.83513724 -48.84131542 -7.65051200     6     1007    0    0    0
H 1466.95238055 -49.25130345 -5.91032131     6     1007    0    0    0
C 1465.33277337 -45.19464264 -5.85705496     2     1007   1011   1012   1013
H 1466.97458721 -44.62861261 -4.96913644     6    1010    0    0    0
H 1464.86125586 -43.89744469 -7.33235803     6    1010    0    0    0
C 1463.12779236 -44.99670739 -3.91434203     2    1010   1014   1015   1016
H 1461.33145104 -44.93957344 -4.88259964     6    1013    0    0    0
H 1463.06014180 -46.79417277 -2.89449438     6    1013    0    0    0
C 1463.39362940 -42.76756426 -2.02298484     2    1013   1017   1018   1019
H 1465.43854898 -42.44759023 -1.69866389     6    1016    0    0    0
H 1462.60343233 -41.20080095 -3.02420109     6    1016    0    0    0
C 1461.69310513 -43.05229959 0.40187308     2    1016   1020   1021   1022
H 1459.74548744 -43.51880434 -0.10566012     6    1019    0    0    0
H 1462.45245753 -44.33557483 1.81086943     6    1019    0    0    0
C 1461.22738234 -40.52429707 1.76697294     2    1019   1023   1024   1025
H 1460.72567228 -39.08899066 0.42753358     6    1022    0    0    0
H 1459.53710066 -40.90581615 2.88150112     6    1022    0    0    0
C 1463.42452260 -39.45247915 3.23824290     2    1022   1026   1027   1028
H 1464.64086642 -40.85721347 3.83179356     6    1025    0    0    0
H 1464.67045048 -38.29109219 2.02101870     6    1025    0    0    0
C 1462.84584317 -37.95611015 5.60436637     2    1025   1029   1030   1031
H 1461.51279063 -36.53399886 4.87820455     6    1028    0    0    0
H 1461.84018865 -39.06079706 7.15311274     6    1028    0    0    0
C 1465.03519654 -36.60749915 6.89182081     2    1028   1032   1033   1034
H 1466.21172497 -37.87647059 8.05596489     6    1031    0    0    0
H 1466.29235806 -35.52838600 5.59004058     6    1031    0    0    0
C 1464.06645399 -34.55587499 8.70065663     1    1031   1035   1036   1037
H 1465.55042853 -33.43035288 9.79086115     6    1034    0    0    0
H 1463.09872695 -35.37806287 10.27340927     6    1034    0    0    0
H 1462.79568487 -33.24375487 7.65230899     6    1034    0    0    0
H 1470.73818314 -16.62765497 -17.77847825     6     1039    0    0    0 
C 1472.79180052 -16.52202546 -18.15638418     1     1038    1040    1041    1042
H 1473.26949170 -14.53969339 -17.86921132     6     1039    0    0    0
H 1473.61068706 -17.48125629 -16.61702096     6     1039    0    0    0
C 1473.37465104 -17.34557363 -20.86993737     2     1039    1043    1044    1045
H 1473.43073838 -19.43729409 -20.98496330     6     1042    0    0    0
H 1471.97254444 -16.58129993 -22.29698659     6     1042    0    0    0
C 1475.96472167 -16.17852934 -21.88811829     2     1042    1046   1047   1048
H 1475.69626093 -14.16650271 -22.09604578     6     1045    0    0    0
H 1477.18416138 -16.25597130 -20.31768890     6     1045    0    0    0
C 1477.14548271 -17.46592521 -24.32455969     2     1045   1049   1050   1051
H 1477.48539183 -19.51859581 -24.15648138     6    1048    0    0    0
H 1475.95333960 -17.47258464 -25.97128595     6    1048    0    0    0
C 1479.66674863 -16.07537591 -24.85526436     2    1048   1052   1053   1054
H 1479.57430275 -14.03932108 -24.57558977     6    1051    0    0    0
H 1480.98084220 -16.68795198 -23.30374946     6    1051    0    0    0
C 1480.70726964 -16.79060196 -27.58243146     2    1051   1055   1056   1057
H 1480.07888292 -18.65297956 -28.17629354     6    1054    0    0    0
H 1480.18550574 -15.24104883 -28.84701786     6    1054    0    0    0
C 1483.51034024 -16.58348038 -27.57870206     2    1054   1058   1059   1060
H 1484.07327306 -14.71722988 -26.97057071     6    1057    0    0    0
[...]
 1803      H    1490.3395488700    -5.8096807500    -5.3826491600
 1804      H    1488.4513015200    -5.4878635600    -8.1375004600
 1805      C    1492.0935036200    -6.3241080600    -9.2667722600
 1806      H    1491.9909088000    -5.9985910400   -11.1806394700
 1807      H    1494.0801244400    -5.5496007400    -8.7888635700
 1808      C    1492.3177079900    -9.1028838700    -8.8066213200
 1809      H    1494.1736950200    -9.6454957100    -8.6919066500
 1810      H    1491.7386880700    -9.5605851300    -6.8667322300
 1811      C    1490.7248564100   -10.5811167800   -10.7599352700
 1812      H    1488.8622904700   -10.0143401000   -10.2023940000
 1813      H    1491.2764392300    -9.9289019500   -12.6275454500
 1814      C    1490.8580875100   -13.4298656500   -10.3295826100
 1815      H    1492.8020230900   -14.1577628400   -10.4750792000
 1816      H    1490.6013568900   -13.8046891200    -8.2321272000
 1817      C    1489.1226935900   -14.9055527800   -12.0872270300
 1818      H    1487.2090638400   -14.2698145300   -12.3577645700
 1819      H    1489.9045339000   -14.7149729500   -13.8811654500
 1820      C    1489.2158891200   -17.6895328100   -11.5195902500
 1821      H    1491.0701955700   -18.4346570000   -11.6189429600
 1822      H    1488.8872680600   -17.9161413400    -9.5015542500
 1823      C    1487.3363707300   -19.3018984100   -13.1156303800
 1824      H    1485.3858667800   -18.5504663100   -12.8726611200
 1825      H    1487.8011751500   -19.2984222900   -15.1943163200
 1826      C    1487.3771238800   -22.0318141300   -12.0492075300
 1827      H    1489.3707927800   -22.5018353600   -11.6631257200
 1828      H    1486.6209161500   -21.7802448900   -10.1666869400
 1829      C    1486.0977938600   -24.0191547800   -13.8058913800
 1830      H    1484.3924356300   -23.2230113700   -14.5754442700
 1831      H    1487.2891400500   -24.5198705500   -15.4118899200
 1832      C    1485.2218285000   -26.6049109300   -12.7165151900
 1833      H    1484.9701043000   -27.9517780400   -14.3234435700
 1834      H    1483.7449086700   -26.6820671700   -11.3309360300
 1835      H    1486.8378626200   -27.4199547800   -11.7207727800
 1836      H    1487.8079237200   -20.2641651700    -5.2439676000
 1837      C    1487.4515178000   -19.6822767600    -3.3663942000
 1838      H    1486.4948027900   -17.8014697600    -3.5895934400
 1839      H    1486.1658274600   -20.8494007000    -2.3354301700
 1840      C    1489.8191532200   -19.2053001900    -1.7039481200
 1841      H    1489.2747150300   -18.8753431700     0.1583873100
 1842      H    1490.9417651700   -20.9375373000    -1.5836560600
 1843      C    1491.2772995000   -16.9108262100    -2.8127665600
 1844      H    1491.3996754800   -17.1347330300    -4.7773337100
 1845      H    1490.2175155800   -15.0719330400    -2.2253682300
 1846      C    1494.0724760700   -16.7529487000    -1.9090031700
 1847      H    1493.7527030200   -16.2051455300     0.0728611100
 1848      H    1494.9852037100   -18.6090053000    -1.9095690200
 1849      C    1495.6998184900   -14.7155456500    -3.3299264000
 1850      H    1496.0853794600   -15.3857418400    -5.2627246600
 1851      H    1494.5541734300   -12.9943535000    -3.3073992300
 1852      C    1498.1954609800   -14.1379278600    -2.0466137800
 1853      H    1499.1336178100   -15.9632475000    -1.6931693100
 1854      H    1499.4332316800   -13.1396417700    -3.4102709500
 1855      C    1498.1238824600   -12.4202763000     0.4071542100
 1856      H    1497.3027156800   -10.6662442900    -0.0534591700
 1857      H    1496.6909853000   -13.3938359800     1.5416103500
 1858      C    1500.8142799000   -12.2108402500     1.7042045000
 1859      H    1501.7417485400   -14.0690954300     1.8356457900
 1860      H    1502.0243153600   -11.0130477400     0.6036799700
 1861      C    1500.2874231800   -10.8531140900     4.1967444400
 1862      H    1498.3698440100   -10.2310947100     4.4302058800
 1863      H    1500.5072771700   -12.3865139200     5.5420593200
 1864      C    1502.2983362300    -8.9817025400     4.8122934700
 1865      H    1504.1854509800    -9.7501482700     4.9857195500
 1866      H    1502.3349280300    -7.6635463800     3.2246740000
 1867      C    1501.9043968100    -7.3439315400     7.1497621400
 1868      H    1500.1326069200    -6.4913776500     6.9064358500
 1869      H    1501.7788073200    -8.5233982100     8.8209711000
 1870      C    1504.0173109400    -5.1590224300     7.2873679400
 1871      H    1503.8341479600    -4.2725962200     9.1655862100
 1872      H    1503.7187232700    -3.5998618700     5.8563048500
 1873      H    1505.8731709600    -6.0101298400     7.0265361500
 1874      H    1477.1730457100    -2.3317587700    15.8953500100
 1875      C    1476.9840654200    -2.6743062800    13.8985096200
 1876      H    1475.9930126000    -1.1020950400    13.0482982800
 1877      H    1478.7156806800    -2.8836768100    13.0209364200
 1878      C    1475.6905610900    -5.2732196800    13.7743212800
 1879      H    1476.5091955000    -6.4554191100    15.2320283900
 1880      H    1473.7566146100    -5.3464301900    14.5721204400
 1881      C    1475.8913237800    -6.3953225600    11.0779197300
 1882      H    1476.0767850500    -4.9342413100     9.6140731900
 1883      H    1477.5383581900    -7.8504365800    11.0545931500
 1884      C    1473.3443038300    -7.6444879300    10.4878507700
 1885      H    1472.8681452000    -9.0669962700    11.9054206900
 1886      H    1471.8558934900    -6.2640758400    10.5055827900
 1887      C    1473.3167011700    -8.5329547100     7.8112274000
 1888      H    1473.4957030500    -7.0730347600     6.4222635100
 1889      H    1474.8642733900    -9.7569396600     7.5226002200
 1890      C    1471.1504371900   -10.2298419200     7.2746611300
 1891      H    1471.6856779700   -12.0615184500     7.9929869300
 1892      H    1469.3955945600    -9.6070482600     8.4115930900
 1893      C    1470.8579378600   -10.8428818200     4.4829866800
 1894      H    1470.3380747700    -9.0963290400     3.5637426700
 1895      H    1472.7009870100   -11.5377469600     3.5992717100
 1896      C    1468.9744161700   -12.9579164800     3.8680069700
 1897      H    1469.6560266000   -14.6981663300     4.7538202900
 1898      H    1467.1031955600   -12.4364172000     4.7659261200
 1899      C    1468.5342963100   -13.4175634300     1.0742254500
 1900      H    1468.1265805300   -11.8091815100     0.0239947900
 1901      H    1470.3330404400   -14.1362534100     0.3165508200
 1902      C    1466.3456239400   -15.2123105600     0.5095752800
 1903      H    1466.7761733100   -16.9920374400     1.6091903600
 1904      H    1464.5877482900   -14.5193179300     1.4464715900
 1905      C    1465.9224460100   -15.9731659100    -2.1636512600
 1906      H    1465.5477279500   -14.3656201600    -3.4495822300
 1907      H    1467.5943553800   -16.9772450700    -2.9945213700
 1908      C    1463.5543209800   -17.5676327700    -2.4787308200
 1909      H    1461.7878815600   -16.6817336900    -1.7687205100
 1910      H    1463.7651157300   -19.1591608900    -1.0639795500
 1911      H    1463.3095926500   -18.3642271300    -4.2968882700
 ----------------------------------------------------------------
 Nuclear Repulsion Energy =           0.00000000 hartrees
 There are     2498 alpha and     2498 beta electrons

 Total QAlloc Memory Limit   2000 MB
 Mega-Array Size       204 MB
 MEM_STATIC part       192 MB
   **** Step 1: MM calculation on the entire system **** 
 OPLSAA force field loaded.
Reading user-defined FF parameters...
 Reading user defined atom types.
 Found 3 user defined AtomTypes
finished.
Determining angles, torsions, etc. from user defined input
Determining VDW/Coulomb pairs... (useList = 0)

 Time req'd to get MM system information: 0.2 s (CPU) 0.3 s (wall)

 ------ MM Energies ------
   Ebond:           572.820655376139
   Eangle:          889.410862534797
   EUreyBrad:         0.000000000000
   Eimptors:          0.000000000000
   Etorsion:        226.700670691443
   Evdw:        1100203.146389055299
   Ecoulomb:        186.021943106455
   Etot:        1102078.100520764245 Kcal/mol (   1756.273253955022 hartree)
 -------------------------
 Time req'd to calc MM energy: 0.1 s (CPU) 0.1 s (wall)
 OPLSAA force field loaded.
Reading user-defined FF parameters...
 Reading user defined atom types.
 Found 3 user defined AtomTypes
finished.
 Time req'd to get MM system information: 0.0 s (CPU) 0.0 s (wall)
 Time req'd to calc MM gradient: 0.2 s (CPU) 0.2 s (wall)
   **** Step 2: MM calculation on the model system **** 
 Reading user defined atom types.
 Found 3 user defined AtomTypes
 ----------------------------------------------------------------
             Standard Nuclear Orientation (Bohr)
    I     Atom           X                Y                Z
 ----------------------------------------------------------------
    1      Fe   1478.3783838600   -16.6674900000     1.4359229500
    2      C    1475.3085778100   -17.2472136200     2.9243898200
    3      C    1478.2871281700   -13.9374324900    -0.8514428400
    4      C    1481.6647537700   -17.8041302700     1.5931089900
    5      C    1477.4721309100   -19.4034880200    -0.5116331200
    6      C    1479.1935574000   -14.8455776100     4.0611075600
    7      O    1473.5530830900   -17.5495837200     4.2599521900
    8      O    1478.3465509000   -12.1413967600    -2.0879319900
    9      O    1483.7270667500   -18.4576035700     1.7004064600
   10      O    1477.4136272300   -21.5310959300    -1.2105853200
   11      O    1479.8611235500   -13.9786741500     5.9860570400
 ----------------------------------------------------------------
 Nuclear Repulsion Energy =         795.47250591 hartrees
 There are       48 alpha and       48 beta electrons
 OPLSAA force field loaded.
Reading user-defined FF parameters...
 Reading user defined atom types.
 Found 3 user defined AtomTypes
finished.
Determining VDW/Coulomb pairs... (useList = 0)

 No MM bonds in system. Return all possible pairs.
 Time req'd to get MM system information: 0.0 s (CPU) 0.0 s (wall)

 ------ MM Energies ------
   Ebond:             0.000000000000
   Eangle:            0.000000000000
   EUreyBrad:         0.000000000000
   Eimptors:          0.000000000000
   Etorsion:          0.000000000000
   Evdw:        1100666.331553082913
   Ecoulomb:         -6.508428756522
   Etot:        1100659.823124326300 Kcal/mol (   1754.013085046052 hartree)
 -------------------------
 Eold: 1756.2732540 mm_energy: 1754.0130850 Enew:    2.2601689
 Time req'd to calc MM energy: 0.0 s (CPU) 0.0 s (wall)
 OPLSAA force field loaded.
Reading user-defined FF parameters...
 Reading user defined atom types.
 Found 3 user defined AtomTypes
finished.
Determining VDW/Coulomb pairs... (useList = 0)

 No MM bonds in system. Return all possible pairs.
 Time req'd to get MM system information: 0.0 s (CPU) 0.0 s (wall)
 Number of fixed atoms: 0
 Time req'd to calc MM gradient: 0.0 s (CPU) 0.0 s (wall)
   **** Step 3: QM calculation on the model system **** 
 Requested basis set is def2-mSVP
 There are 80 shells and 174 basis functions

                       Distance Matrix (Bohrs)
             Fe(  1)   C (  2)   C (  3)   C (  4)   C (  5)   C (  6)
   C (  2)  3.460538
   C (  3)  3.562806  5.838093
   C (  4)  3.480932  6.517932  5.686435
   C (  5)  3.478499  4.597470  5.536917  4.956407
   C (  6)  3.297797  4.706703  5.077351  4.577211  6.681902
   O (  7)  5.660102  2.226413  7.847622  8.542602  6.447009  6.258286
   O (  8)  5.736208  7.773160  2.181325  7.525097  7.482466  6.770576
   O (  9)  5.646492  8.592679  7.519097  2.166027  6.701644  6.258782
   O ( 10)  5.620447  6.315133  7.652170  6.310551  2.240239  8.697991
   O ( 11)  5.489259  6.386144  7.016450  6.097966  8.795219  2.214181
             O (  7)   O (  8)   O (  9)   O ( 10)
   O (  8)  9.618807
   O (  9) 10.530229  9.121180
   O ( 10)  7.789931  9.476631  7.601299
   O ( 11)  7.451323  8.417768  7.305691 10.715455

 A cutoff of  1.0D-11 yielded   2478 shell pairs
 There are     12832 function pairs (     14701 Cartesian)
 Smallest overlap matrix eigenvalue = 2.80E-03
 Guess MOs from SCF MO coefficient file
 Reading MOs from coefficient file
 Reading MOs from coefficient file
 A restricted Kohn-Sham SCF calculation will be
 performed using Pulay DIIS extrapolation
 Exchange:  B88      Correlation:  P86
 Using SG-1 standard quadrature grid
 SCF converges when DIIS error is below 1.0E-08
 Using Q-Chem read-in guess as SCF_GUESS READ specified.

 using 2 threads for integral computing
 -------------------------------------------------------
 OpenMP Integral computing Module                
 Release: version 1.0, May 2013, Q-Chem Inc. Pittsburgh 
 -------------------------------------------------------
 ---------------------------------------
  Cycle       Energy         DIIS Error
 ---------------------------------------
    1   -1830.5105122019      1.91E-09
    2   -1830.5105122020      1.70E-08
    3   -1830.5105122024      3.96E-09 Convergence criterion met
 ---------------------------------------
 SCF time:  CPU 3.92 s  wall 2.07 s
 E(QM + QM/MM):    -1830.5105122024 E(MM):    2.2601689 E(Tot): -1828.250343293411 
 SCF   energy in the final basis set = -1828.25034329
 Total energy in the final basis set = -1828.25034329

 --------------------------------------------------------------

                    Orbital Energies (a.u.)
 --------------------------------------------------------------

 Alpha MOs
 -- Occupied --
******** -29.6311 -25.5908 -25.5807 -25.5723 -18.8845 -18.8843 -18.8815
-18.8772 -18.8755 -10.0552 -10.0477 -10.0462 -10.0448 -10.0439  -3.3154
 -2.1518  -2.1315  -2.1124  -1.0635  -1.0600  -1.0460  -1.0449  -1.0418
 -0.5720  -0.5263  -0.5190  -0.5180  -0.5119  -0.4539  -0.4443  -0.4354
 -0.4312  -0.4308  -0.4284  -0.4228  -0.4214  -0.4153  -0.4103  -0.4081
 -0.4026  -0.3988  -0.3880  -0.3745  -0.2769  -0.2619  -0.2358  -0.2123
 -- Virtual --
 -0.1182  -0.0983  -0.0852  -0.0830  -0.0677  -0.0665  -0.0647  -0.0577
 -0.0488  -0.0380  -0.0183   0.0147   0.1971   0.2093   0.2222   0.2458
  0.2859   0.3183   0.3451   0.3759   0.4081   0.4210   0.4392   0.4409
  0.4507   0.4760   0.4923   0.5108   0.5174   0.5342   0.5644   0.6055
  0.6170   0.6208   0.6283   0.6509   0.7419   0.7567   0.7631   0.7702
  0.7726   0.8296   0.8582   0.8700   0.8813   0.8917   0.9448   0.9630
  0.9667   0.9712   0.9784   1.0021   1.0153   1.0182   1.0280   1.0731
  1.1376   1.1979   1.2027   1.3637   1.3981   1.4007   1.4067   1.4137
  1.4181   1.4198   1.4214   1.4308   1.4537   1.4589   1.4847   1.5023
  1.5106   1.5323   1.5413   1.5713   1.5904   1.6113   1.6512   1.6809
  1.7032   1.8150   1.8293   1.8304   1.8383   1.8429   1.8520   1.8580
  1.8622   1.8731   1.8797   1.8893   1.9002   1.9108   1.9143   1.9413
  2.3293   2.3999   2.4228   2.4439   2.4592   2.4695   2.4778   2.4956
  2.5092   2.5366   2.6272   2.6320   2.6406   2.6604   2.6706   2.7945
  2.8197   2.8634   2.8736   2.9584  13.2586  13.2797  13.2915  13.3369
 13.4024  24.8982  24.9236  24.9503  24.9784  25.0199
 --------------------------------------------------------------

          Ground-State Mulliken Net Atomic Charges

     Atom                 Charge (a.u.)
  ----------------------------------------
      1 Fe                   -0.435152
      2 C                     0.196122
      3 C                     0.231232
      4 C                     0.203958
      5 C                     0.199222
      6 C                     0.168773
      7 O                    -0.123954
      8 O                    -0.096549
      9 O                    -0.094922
     10 O                    -0.120800
     11 O                    -0.127930
  ----------------------------------------
  Sum of atomic charges =     0.000000

 -----------------------------------------------------------------
                    Cartesian Multipole Moments
 -----------------------------------------------------------------
    Charge (ESU x 10^10)
                -0.0000
    Dipole Moment (Debye)
         X      -0.1137863341      Y       0.2218820807      Z      -0.6933744432
       Tot       0.7368494460
    Quadrupole Moments (Debye-Ang)
        XX    -247.2249     XY     174.5811     YY     -73.7811
        XZ    -541.8446     YZ       6.2863     ZZ     -70.6583
    Octopole Moments (Debye-Ang^2)
       XXX -371317.2737    XXY  137973.8946    XYY  -57732.3096
       YYY    1904.8339    XXZ -423492.2655    XYZ    4910.9496
       YYZ    -108.2756    XZZ  -55278.6650    YZZ     619.2248
       ZZZ    -178.4884
    Hexadecapole Moments (Debye-Ang^3)
      XXXX ************   XXXY ************   XXYY ************
      XYYY 1490321.7582   YYYY  -34114.0132   XXXZ ************
      XXYZ 3837038.3839   XYYZ  -84633.5217   YYYZ    1834.9397
      XXZZ ************   XYZZ  484424.9469   YYZZ   -5709.1003
      XZZZ -139630.3009   YZZZ    1519.1963   ZZZZ    -949.9388
 -----------------------------------------------------------------
 Calculating MO derivatives via CPSCF
 Full subspace dimension requested for CIS/TDDFT
 MAX_CIS_SUBSPACE fits in available memory
    1     0    36    0.0422151  
    2     0    36    0.0058994  
    3     0    36    0.0007058  
    4     1    35    0.0000507  
    5    33     3    0.0000021  
    6    36     0    0.0000001  Converged
 Time for AOints: 6.6 s (CPU) 3.3 s (wall)
 ------------------------------------------------------------------------------
                     AOints        : Timing summary (seconds)
 ------------------------------------------------------------------------------
     job step          cpu (% of tot)      sys (% of tot)     wall (% of tot)
 ------------------------------------------------------------------------------
  AOints            0.6556E+01 ( 3.6)   0.1200E-04 ( 9.7)   0.3339E+01 ( 3.7)
 ------------------------------------------------------------------------------
   Grand Totals     0.1808E+03          0.1240E-03          0.9117E+02
 ------------------------------------------------------------------------------
 Polarizability Matrix (a.u.)
            1           2           3
    1 -95.9626828  -4.0973948   2.3606733
    2  -4.0973947 -94.7627932  -6.9603489
    3   2.3606733  -6.9603489 -88.2067111
 Derivative of Dipole Moment Matrix (a.u.)
            1           2           3
    1  -1.8038536  -0.0503018   0.0514175
    2   0.0485957  -1.7176227  -0.0381198
    3   0.0168718  -0.1192543  -1.7633994
    4   1.7401049   0.2456775  -0.7851357
    5   0.2018778   0.3806603  -0.1544911
    6  -0.9666496  -0.2111112   0.8755452
    7   0.4353715   0.0465572  -0.0399810
    8  -0.0178030   1.6956866  -1.0425319
    9   0.0186809  -0.8124790   1.1517684
   10   2.1373953  -0.6556889   0.0608397
   11  -0.5457255   0.5499732  -0.0663836
   12   0.0982336  -0.0655929   0.3542804
   13   0.3903970   0.1842699   0.1185798
   14   0.2893583   1.7737114   0.8545361
   15   0.1283137   0.5723976   0.7509384
   16   0.5099466   0.2731562   0.4206542
   17   0.1735925   0.8135204   0.6608122
   18   0.3968793   0.8026305   1.6704196
   19  -1.2403477  -0.1886561   0.5804388
   20  -0.1712382  -0.1828221   0.1113545
   21   0.8309434   0.1697683  -0.5843716
   22  -0.1709779  -0.0435400   0.0395650
   23   0.0267861  -1.2133424   0.8579975
   24  -0.0158237   0.6791144  -0.7299981
   25  -1.5912378   0.4950588  -0.0470575
   26   0.4409263  -0.2920347   0.0325541
   27  -0.0787506   0.0401740  -0.1425627
   28  -0.1489984  -0.0736945  -0.0478111
   29  -0.3020222  -1.3389677  -0.7499789
   30  -0.1023507  -0.3882224  -0.4013619
   31  -0.2577999  -0.2328384  -0.3515097
   32  -0.1443477  -0.4687624  -0.4657491
   33  -0.3263482  -0.6674250  -1.1812583
 -----------------------------------------
 Net:   0.00000  -0.00000  -0.00000
 -----------------------------------------

 Calculating analytic Hessian of the SCF energy
