                  Welcome to Q-Chem
     A Quantum Leap Into The Future Of Chemistry


 Q-Chem 5.4 (devel), Q-Chem, Inc., Pleasanton, CA (2021)

 E. Epifanovsky,  A. T. B. Gilbert,  Xintian Feng,  Joonho Lee,  Yuezhi Mao,  
 N. Mardirossian,  P. Pokhilko,  A. White,  M. Wormit,  M. P. Coons,  
 A. L. Dempwolff,  Zhengting Gan,  D. Hait,  P. R. Horn,  L. D. Jacobson,  
 I. Kaliman,  J. Kussmann,  A. W. Lange,  Ka Un Lao,  D. S. Levine,  Jie Liu,  
 S. C. McKenzie,  A. F. Morrison,  K. Nanda,  F. Plasser,  D. R. Rehn,  
 M. L. Vidal,  Zhi-Qiang You,  Ying Zhu,  B. Alam,  B. Albrecht,  
 A. Aldossary,  E. Alguire,  J. H. Andersen,  D. Barton,  K. Begam,  A. Behn,  
 Y. A. Bernard,  E. J. Berquist,  H. Burton,  A. Carreras,  K. Carter-Fenk,  
 R. Chakraborty,  A. D. Chien,  K. D. Closser,  V. Cofer-Shabica,  
 S. Dasgupta,  Jia Deng,  M. de Wergifosse,  M. Diedenhofen,  Hainam Do,  
 S. Ehlert,  Po-Tung Fang,  S. Fatehi,  Qingguo Feng,  T. Friedhoff,  
 J. Gayvert,  Qinghui Ge,  G. Gidofalvi,  M. Goldey,  J. Gomes,  
 C. Gonzalez-Espinoza,  S. Gulania,  A. Gunina,  M. W. D. Hanson-Heine,  
 P. H. P. Harbach,  A. W. Hauser,  M. F. Herbst,  M. Hernandez Vera,  
 M. Hodecker,  Z. C. Holden,  S. Houck,  Xunkun Huang,  Kerwin Hui,  
 B. C. Huynh,  M. Ivanov,  Hyunjun Ji,  Hanjie Jiang,  B. Kaduk,  S. Kaehler,  
 K. Khistyaev,  Jaehoon Kim,  P. Klunzinger,  Z. Koczor-Benda,  
 Joong Hoon Koh,  D. Kosenkov,  L. Koulias,  T. Kowalczyk,  C. M. Krauter,  
 K. Kue,  A. Kunitsa,  T. Kus,  A. Landau,  K. V. Lawler,  D. Lefrancois,  
 S. Lehtola,  Rain Li,  Yi-Pei Li,  Jiashu Liang,  M. Liebenthal,  
 Hung-Hsuan Lin,  You-Sheng Lin,  Fenglai Liu,  Kuan-Yu Liu,  
 M. Loipersberger,  A. Luenser,  A. Manjanath,  P. Manohar,  E. Mansoor,  
 S. F. Manzer,  Shan-Ping Mao,  A. V. Marenich,  T. Markovich,  S. Mason,  
 S. A. Maurer,  P. F. McLaughlin,  M. F. S. J. Menger,  J.-M. Mewes,  
 S. A. Mewes,  P. Morgante,  J. W. Mullinax,  K. J. Oosterbaan,  G. Paran,  
 Alexander C. Paul,  Suranjan K. Paul,  F. Pavosevic,  Zheng Pei,  S. Prager,  
 E. I. Proynov,  E. Ramos,  B. Rana,  A. E. Rask,  A. Rettig,  R. M. Richard,  
 F. Rob,  E. Rossomme,  T. Scheele,  M. Scheurer,  M. Schneider,  
 N. Sergueev,  S. M. Sharada,  W. Skomorowski,  D. W. Small,  C. J. Stein,  
 Yu-Chuan Su,  E. J. Sundstrom,  Zhen Tao,  J. Thirman,  T. Tsuchimochi,  
 N. M. Tubman,  S. P. Veccham,  O. Vydrov,  J. Wenzel,  J. Witte,  A. Yamada,  
 Kun Yao,  S. Yeganeh,  S. R. Yost,  A. Zech,  Igor Ying Zhang,  Xing Zhang,  
 Yu Zhang,  D. Zuev,  A. Aspuru-Guzik,  A. T. Bell,  N. A. Besley,  
 K. B. Bravaya,  B. R. Brooks,  D. Casanova,  Jeng-Da Chai,  S. Coriani,  
 C. J. Cramer,  A. E. DePrince, III,  R. A. DiStasio Jr.,  A. Dreuw,  
 B. D. Dunietz,  T. R. Furlani,  W. A. Goddard III,  S. Grimme,  
 S. Hammes-Schiffer,  T. Head-Gordon,  W. J. Hehre,  Chao-Ping Hsu,  
 T.-C. Jagau,  Yousung Jung,  A. Klamt,  Jing Kong,  D. S. Lambrecht,  
 WanZhen Liang,  N. J. Mayhall,  C. W. McCurdy,  J. B. Neaton,  
 C. Ochsenfeld,  J. A. Parkhill,  R. Peverati,  V. A. Rassolov,  Yihan Shao,  
 L. V. Slipchenko,  T. Stauch,  R. P. Steele,  J. E. Subotnik,  
 A. J. W. Thom,  A. Tkatchenko,  D. G. Truhlar,  T. Van Voorhis,  
 T. A. Wesolowski,  K. B. Whaley,  H. L. Woodcock III,  P. M. Zimmerman,  
 S. Faraji,  P. M. W. Gill,  M. Head-Gordon,  J. M. Herbert,  A. I. Krylov

 Additional authors for Version 5.4.1: 
 S. Kotaru,  Shaozhi Li,  Xiangyuan Li,  F. Matz,  A. Molle,  Haisheng Ren,  
 Yingli Su,  Hung-Yi Tsai,  C. Utku,  Fang Wang

 Contributors to earlier versions of Q-Chem not listed above: 
 R. D. Adamson,  B. Austin,  R. Baer,  J. Baker,  G. J. O. Beran,  
 K. Brandhorst,  S. T. Brown,  E. F. C. Byrd,  A. K. Chakraborty,  
 G. K. L. Chan,  Chun-Min Chang,  Yunqing Chen,  C.-L. Cheng,  
 Siu Hung Chien,  D. M. Chipman,  D. L. Crittenden,  H. Dachsel,  
 R. J. Doerksen,  A. D. Dutoi,  R. G. Edgar,  J. Fosso-Tande,  
 L. Fusti-Molnar,  D. Ghosh,  A. Ghysels,  A. Golubeva-Zadorozhnaya,  
 J. Gonthier,  M. S. Gordon,  S. R. Gwaltney,  G. Hawkins,  J. E. Herr,  
 A. Heyden,  S. Hirata,  E. G. Hohenstein,  G. Kedziora,  F. J. Keil,  
 C. Kelley,  Jihan Kim,  R. A. King,  R. Z. Khaliullin,  P. P. Korambath,  
 W. Kurlancheek,  A. Laurent,  A. M. Lee,  M. S. Lee,  S. V. Levchenko,  
 Ching Yeh Lin,  D. Liotard,  E. Livshits,  R. C. Lochan,  I. Lotan,  
 L. A. Martinez-Martinez,  P. E. Maslen,  N. Nair,  D. P. O'Neill,  
 D. Neuhauser,  E. Neuscamman,  C. M. Oana,  R. Olivares-Amaya,  R. Olson,  
 T. M. Perrine,  B. Peters,  P. A. Pieniazek,  A. Prociuk,  Y. M. Rhee,  
 J. Ritchie,  M. A. Rohrdanz,  E. Rosta,  N. J. Russ,  H. F. Schaefer III,  
 M. W. Schmidt,  N. E. Schultz,  S. Sharma,  N. Shenvi,  C. D. Sherrill,  
 A. C. Simmonett,  A. Sodt,  T. Stein,  D. Stuck,  K. S. Thanthiriwatte,  
 V. Vanovschi,  L. Vogt,  Tao Wang,  A. Warshel,  M. A. Watson,  
 C. F. Williams,  Q. Wu,  X. Xu,  Jun Yang,  W. Zhang,  Yan Zhao

 Please cite Q-Chem as follows:
 Y. Shao et al., Mol. Phys. 113, 184-215 (2015)
 DOI: 10.1080/00268976.2014.952696

 Q-Chem 5.4.1 for Intel X86 EM64T Linux

 Parts of Q-Chem use Armadillo 9.900.5 (Nocturnal Misbehaviour).
 http://arma.sourceforge.net/

 Q-Chem begins on Fri Jul  1 20:00:03 2022  

 Host: p09r14n09.grace.hpc.yale.internal
0

     Scratch files written to /home/tl686/scratch60/qchem_dev/scratch/qchem8541//
 Processing $rem in /home/tl686/qchem_dev/qchem/config/preferences:
 Processing $rem in /home/tl686/.qchemrc:
Applying user defined connections for MM calculations

 Checking the input file for inconsistencies... 	...done.

--------------------------------------------------------------
User input:
--------------------------------------------------------------
$molecule
0   1
 Fe 1020.99136782 26.25633542 51.79792435    -1  0   0   0   0
C 1019.71270752 27.88698090 49.17137226    -2  0   0   0   0 
C 1023.19796555 26.17683677 54.49543156    -2  0   0   0   0
C 1019.19412911 23.28947261 52.04175091    -2  0   0   0   0
C 1023.52266399 25.29976173 49.83505067    -2  0   0   0   0
C 1018.88172278 28.05025567 53.78436300    -2  0   0   0   0
O 1018.91206248 28.82325101 47.36164404    -3  0   0   0   0
O 1024.40855192 25.99345198 56.31581321    -3  0   0   0   0 
O 1017.73132753 21.67315529 52.33571749    -3  0   0   0   0
O 1025.32436107 24.83801113 48.65120789    -3  0   0   0   0 
O 1017.50650259 29.50487031 54.63342348    -3  0   0   0   0
H 1016.48215528 22.10959174 24.63482050      6     13    0    0    0 
C 1016.32755208 23.92852803 23.50249240     1     12    14    15    16
H 1015.18380814 23.43201082 21.78118924     6     13    0    0    0
H 1015.16186290 25.24351437 24.71935680     6     13    0    0    0
C 1018.83373656 24.86163093 22.79725399     2     13    17    18    19
H 1019.28449461 23.91120431 21.01447949     6     16    0    0    0
H 1018.88311466 26.83862757 22.23487167     6     16    0    0    0
C 1020.70104998 24.39966295 24.96154972     2     16    20   21   22
H 1020.01294046 25.21832429 26.61984305     6     19    0    0    0
H 1020.67777344 22.32621992 25.41018903     6     19    0    0    0
C 1023.46037631 25.15273948 24.55770442     2     19   23   24   25
H 1024.17887879 24.16450394 22.88113264     6    22    0    0    0
H 1023.42997525 27.14696778 24.01015814     6    22    0    0    0
C 1025.03377975 24.60189556 26.85612019     2    22   26   27   28
H 1024.10120312 25.30988127 28.51312467     6    25    0    0    0
H 1025.33584452 22.52098953 26.85907975     6    25    0    0    0
C 1027.61697946 26.06679146 26.52344816     2    25   29   30   31
H 1028.10940690 26.08465260 24.45761106     6    28    0    0    0
H 1027.12880952 28.10017124 26.86850069     6    28    0    0    0
C 1029.77898411 25.23625747 28.37870677     2    28   32   33   34
H 1029.07609415 25.26409867 30.20883944     6    31    0    0    0
H 1030.15372191 23.15978562 28.19857692     6    31    0    0    0
C 1032.24505219 26.87799703 28.15492947     2    31   35   36   37
H 1033.31102750 26.38969175 26.46654041     6    34    0    0    0
H 1031.71127376 28.89236025 27.88609160     6    34    0    0    0
C 1034.02051952 26.66593648 30.44640463     2    34   38   39   40
H 1033.22735287 27.66924298 32.10518898     6    37    0    0    0
H 1034.12144289 24.60373067 30.82766899     6    37    0    0    0
C 1036.70186759 27.80480695 30.17311699     2    37   41   42   43
H 1037.36631116 26.85671005 28.48373978     6    40    0    0    0
H 1036.74187836 29.71993099 29.68522719     6    40    0    0    0
C 1038.67528049 27.16575173 32.30869240     2    40   44   45   46
H 1038.21424722 28.13864314 34.06218668     6    43    0    0    0
H 1038.63186309 25.09074424 32.73615746     6    43    0    0    0
C 1041.25473466 28.08002352 31.55926930     1    43   47   48   49
H 1041.83660522 27.31565367 29.58893824     6    46    0    0    0
H 1042.55562248 27.46665517 33.09947761     6    46    0    0    0
H 1041.40545524 30.11908349 31.60341391     6    46    0    0    0
H 1022.79073746 32.71391065 48.17107847     6     51    0    0    0 
C 1024.62504641 32.08155374 47.62405214     1     50    52    53    54
H 1025.80317327 33.77907230 47.54182798     6     51    0    0    0
H 1025.61364443 30.93060383 48.99849671     6     51    0    0    0
C 1024.59160493 30.74684264 44.96894722     2     51    55    56    57
H 1023.54307358 29.02121875 45.14194824     6     54    0    0    0
H 1023.38869066 31.84616997 43.69621479     6     54    0    0    0
C 1027.22126781 30.31053194 43.79165175     2     54    58   59   60
H 1028.37766424 29.40525891 45.22876864     6     57    0    0    0
H 1026.93771749 28.65889795 42.52208060     6     57    0    0    0
C 1028.43228714 32.70544380 42.47112368     2     57   61   62   63
H 1027.13869039 33.66011257 41.21750161     6    60    0    0    0
H 1028.70020288 34.12279639 43.81400703     6    60    0    0    0
C 1031.10247257 32.09166151 41.48208426     2    60   64   65   66
H 1032.21948130 31.55679863 43.25268598     6    63    0    0    0
H 1030.88623119 30.38310797 40.39027973     6    63    0    0    0
C 1032.11023250 33.93546923 39.59417470     2    63   67   68   69
H 1033.71529989 33.06473968 38.67717904     6    66    0    0    0
H 1030.64041275 34.58165007 38.16698497     6    66    0    0    0
C 1033.15053291 36.19453482 40.87413477     2    66   70   71   72
H 1031.76143602 37.01716392 42.15294992     6    69    0    0    0
H 1034.78103464 35.63529773 41.97979542     6    69    0    0    0
C 1034.22456585 38.25991157 39.15826712     2    69   73   74   75
H 1035.42896865 37.28164902 37.76161953     6    72    0    0    0
H 1032.46120320 39.01105619 38.43811415     6    72    0    0    0
C 1035.63236887 40.40797871 40.52574593     2    72   76   77   78
H 1034.70726908 41.06660559 42.26273820     6    75    0    0    0
H 1037.39849296 39.80590535 41.27134184     6    75    0    0    0
C 1035.86843526 42.68100700 38.91023250     2    75   79   80   81
H 1036.73131477 42.22026548 36.89548817     6    78    0    0    0
H 1033.78829111 43.16446590 38.58304639     6    78    0    0    0
C 1037.24837183 44.94305211 40.14364253     2    78   82   83   84
H 1035.82912775 45.89318969 41.50025289     6    81    0    0    0
H 1038.72198891 44.30462845 41.51566543     6    81    0    0    0
C 1038.21619741 46.88518858 38.30663734     1    81   85   86   87
H 1038.82971254 48.51834579 39.11362368     6    84    0    0    0
H 1036.67065544 47.54584365 37.18910547     6    84    0    0    0
H 1039.76082380 45.97220726 37.11942045     6    84    0    0    0
H 1041.75887043 -2.00734663 38.90662632     6     89    0    0    0 
C 1043.00442760 -1.59562873 37.15109951     1     88    90    91    92
H 1044.64453827 -0.41576769 37.84834627     6     89    0    0    0
H 1043.78467683 -3.41712277 36.45909181     6     89    0    0    0
C 1041.69742484 -0.18665155 35.09381560     2     89    93    94    95
H 1039.98639187 -1.36067244 34.45482741     6     92    0    0    0
H 1041.00261405 1.59260350 35.69875975     6     92    0    0    0
C 1043.52097036 0.80599794 32.97421173     2     92    96   97   98
H 1045.08427936 1.87312489 33.72657812     6     95    0    0    0
H 1044.42043352 -0.75068597 31.88968772     6     95    0    0    0
C 1042.01914084 2.62715833 31.43725370     2     95   99   100   101
H 1040.23588511 1.56866602 30.88000262     6    98    0    0    0
H 1041.42080675 4.19695708 32.58168076     6    98    0    0    0
C 1043.36958233 3.93208948 29.25174644     2    98   102   103   104
H 1045.32267732 4.47738945 29.59254309     6    101    0    0    0
H 1043.46615959 2.69048609 27.62461667     6    101    0    0    0
C 1041.72316501 6.10512304 28.15487499     2    101   105   106   107
H 1040.20609279 5.24009278 27.18740282     6    104    0    0    0
H 1040.94208436 7.13140068 29.72583725     6    104    0    0    0
C 1043.28362448 7.90656453 26.64689856     2    104   108   109   110
H 1045.01982733 8.29769792 27.70717499     6    107    0    0    0
H 1043.66381678 6.82617699 24.88097306     6    107    0    0    0
C 1041.84770737 10.29627379 26.03983508     2    107   111   112   113
H 1040.07549090 9.89353949 25.14115638     6    110    0    0    0
H 1041.30647676 11.37803376 27.71244426     6    110    0    0    0
C 1043.54040546 11.82469655 24.32354112     2    110   114   115   116
H 1045.35753104 12.17311041 25.15121331     6    113    0    0    0
H 1043.89245376 10.75540708 22.64280977     6    113    0    0    0
C 1042.31848739 14.25607573 23.62515162     2    113   117   118   119
H 1040.63923668 13.92340080 22.40309280     6    116    0    0    0
H 1041.91049410 15.35060696 25.30190587     6    116    0    0    0
C 1044.01916462 16.03008625 22.14043335     2    116   120   121   122
H 1045.89790707 16.21984556 23.16212980     6    119    0    0    0
H 1044.80369703 15.17203898 20.33870653     6    119    0    0    0
C 1042.83430807 18.63715376 21.53482074     1    119   123   124   125
H 1043.96512065 19.90240759 20.32004114     6    122    0    0    0
H 1042.84574462 19.80096394 23.28564438     6    122    0    0    0
H 1040.87180208 18.69890013 20.90913025     6    122    0    0    0
H 1041.17268833 -1.42918972 44.79366026     6     127    0    0    0 
C 1039.55426016 -0.27039918 44.60637054     1     126    128    129    130
H 1040.21608599 1.66208233 44.33011511     6     127    0    0    0
H 1038.49419566 -0.77040509 42.89475420     6     127    0    0    0
C 1038.06954150 -0.67139151 47.08028923     2     127    131    132    133
H 1037.50682636 -2.68856055 47.27474384     6     130    0    0    0
H 1039.12405055 -0.20457207 48.71794101     6     130    0    0    0
C 1035.88701027 1.11622643 47.18252996     2     130    134   135   136
H 1036.43419987 3.05758087 47.01676322     6     133    0    0    0
H 1034.83490483 0.82742313 45.45034796     6     133    0    0    0
C 1033.89919976 0.87964733 49.38811745     2     133   137   138   139
H 1033.06982533 -0.91935560 49.11132981     6    136    0    0    0
H 1034.97013201 0.73135634 51.15867386     6    136    0    0    0
C 1031.95638625 3.13289389 49.12415034     2    136   140   141   142
H 1032.81742882 5.01884335 49.32751821     6    139    0    0    0
H 1031.37549137 3.39901004 47.11518021     6    139    0    0    0
C 1029.55885301 2.92217223 50.99995849     2    139   143   144   145
H 1028.44332602 1.19672593 50.67674880     6    142    0    0    0
H 1030.15445993 2.96292067 53.01155625     6    142    0    0    0
C 1027.73992103 5.11641637 50.64402672     2    142   146   147   148
H 1028.88973995 6.81554966 50.86973707     6    145    0    0    0
H 1026.91625650 5.06165018 48.68330291     6    145    0    0    0
C 1025.67629866 5.30758851 52.59840706     2    145   149   150   151
H 1024.88295162 3.45396219 52.88046019     6    148    0    0    0
H 1026.60101358 5.86247679 54.41091303     6    148    0    0    0
C 1023.35484865 6.90833910 51.66338803     2    148   152   153   154
H 1024.23594794 8.63823300 51.08951407     6    151    0    0    0
H 1022.49887823 6.07389270 49.93641685     6    151    0    0    0
C 1021.27684654 7.45004441 53.59000107     2    151   155   156   157
H 1019.53369565 8.30490359 52.81017073     6    154    0    0    0
H 1020.64250630 5.66825403 54.26338114     6    154    0    0    0
C 1022.20393465 9.09163018 55.81878395     2    154   158   159   160
H 1023.90005119 8.22468719 56.53759996     6    157    0    0    0
H 1022.87635070 10.77906119 55.10569918     6    157    0    0    0
C 1020.01806248 9.70869067 57.60921137     1    157   161   162   163
H 1018.24368992 10.29785480 56.78636594     6    160    0    0    0
H 1020.57875356 11.18350491 58.96474890     6    160    0    0    0
H 1019.57904000 8.04844811 58.89673065     6    160    0    0    0
H 1059.35800874 13.56124181 57.50828782     6     165    0    0    0 
C 1057.72823719 13.36417293 56.22473097     1     164    166    167    168
H 1056.94355352 15.27592877 56.05678863     6     165    0    0    0
H 1058.60130579 12.66479906 54.44819551     6     165    0    0    0
C 1055.95397154 11.37694750 57.31087537     2     165    169    170    171
H 1057.08095614 9.52702556 57.66065699     6     168    0    0    0
H 1055.45667119 12.03612609 59.24047199     6     168    0    0    0
C 1053.45220750 10.84942085 55.80895102     2     168    172   173   174
H 1052.61056212 12.72002575 55.25096165     6     171    0    0    0
H 1054.00500591 10.02634605 54.07183649     6     171    0    0    0
C 1051.68257276 9.12026765 57.10663813     2     171   175   176   177
H 1052.80196486 8.01619801 58.47420972     6    174    0    0    0
H 1050.20848568 10.11644467 58.15105190     6    174    0    0    0
C 1050.35386946 7.29067067 55.12454326     2    174   178   179   180
H 1049.50253950 8.45372515 53.65544042     6    177    0    0    0
H 1052.01254922 6.41010205 54.31453522     6    177    0    0    0
C 1048.48056653 5.26144104 56.22002399     2    177   181   182   183
H 1049.04581493 4.61074372 58.16798818     6    180    0    0    0
H 1046.66867212 6.29189817 56.68722898     6    180    0    0    0
C 1048.16548666 3.02376580 54.55000503     2    180   184   185   186
H 1047.82146908 3.83960368 52.78992175     6    183    0    0    0
H 1049.96220020 1.89454642 54.36732874     6    183    0    0    0
C 1045.94441830 1.46945510 55.61401809     2    183   187   188   189
H 1046.77709992 0.52434673 57.34690606     6    186    0    0    0
H 1044.33936210 2.74347433 56.15338530     6    186    0    0    0
C 1045.05657283 -0.41425036 53.62857025     2    186   190   191   192
H 1043.86560402 0.64183953 52.22972155     6    189    0    0    0
H 1046.74158767 -1.24519378 52.78986018     6    189    0    0    0
C 1043.38308868 -2.54586044 54.54100656     2    189   193   194   195
H 1044.85347217 -3.71064011 55.57306993     6    192    0    0    0
H 1042.03113988 -1.92026565 55.89039249     6    192    0    0    0
C 1042.03723787 -4.20583156 52.48040478     2    192   196   197   198
H 1040.38532008 -3.06723110 51.77575606     6    195    0    0    0
H 1043.17078753 -4.72233710 50.83647559     6    195    0    0    0
C 1041.35122115 -6.64181146 53.93432163     1    195   199   200   201
H 1040.48752832 -8.01395705 52.78654236     6    198    0    0    0
H 1040.07598071 -6.33295800 55.42459743     6    198    0    0    0
H 1042.88641044 -7.68270945 54.73501572     6    198    0    0    0
H 1052.61239360 19.26496829 54.88048258     6     203    0    0    0 
C 1053.22720441 19.12309080 52.93797229     1     202    204    205    206
H 1053.38848903 17.12235670 52.64523452     6     203    0    0    0
H 1051.75897821 20.11876643 51.95414154     6     203    0    0    0
C 1055.69586733 20.67969636 52.75735993     2     203    207    208    209
H 1056.90620533 19.70323304 54.17803396     6     206    0    0    0
H 1056.69593454 20.50027048 50.96507707     6     206    0    0    0
C 1055.48890042 23.57957784 53.23798025     2     206    210   211   212
H 1057.49726245 24.10632325 53.10867840     6     209    0    0    0
H 1054.50477389 24.54514501 51.66493410     6     209    0    0    0
C 1054.02773096 24.16409366 55.66365704     2     209   213   214   215
H 1051.96982351 23.63033245 55.45282382     6    212    0    0    0
H 1054.68725482 22.82026232 57.16266723     6    212    0    0    0
C 1054.28871469 26.80400162 56.63966028     2    212   216   217   218
H 1056.16055511 27.56153509 56.27619052     6    215    0    0    0
H 1053.04464474 28.07444418 55.44177299     6    215    0    0    0
C 1053.77342094 26.94262275 59.55786575     2    215   219   220   221
H 1052.05005174 25.93414015 59.81069157     6    218    0    0    0
H 1055.19694645 26.01440819 60.80633440     6    218    0    0    0
C 1053.54934438 29.66525826 60.34381929     2    218   222   223   224
H 1055.37944114 30.72612564 60.61150927     6    221    0    0    0
H 1052.58613158 30.78354777 58.72241673     6    221    0    0    0
C 1051.94973859 30.15780448 62.84288684     2    221   225   226   227
H 1049.99638733 29.20167820 62.63062438     6    224    0    0    0
H 1053.10240965 29.21902513 64.33200233     6    224    0    0    0
C 1051.95935261 33.08563979 63.38697053     2    224   228   229   230
H 1053.87833446 33.80151252 63.39652528     6    227    0    0    0
H 1051.33784123 34.12133547 61.75243302     6    227    0    0    0
C 1050.47640138 34.18473345 65.55014481     2    227   231   232   233
H 1048.47789771 34.07346536 65.33323469     6    230    0    0    0
H 1050.97614464 33.19569989 67.36626471     6    230    0    0    0
C 1051.00008521 36.94021688 66.25867402     2    230   234   235   236
H 1052.93011436 37.07650414 67.33305340     6    233    0    0    0
H 1051.03944776 38.09940627 64.63469256     6    233    0    0    0
C 1049.08117538 38.21140002 68.02916129     1    233   237   238   239
H 1049.49932197 40.23002617 68.76911697     6    236    0    0    0
H 1048.89610166 37.07036930 69.72433941     6    236    0    0    0
H 1047.32962595 38.46223797 67.11267110     6    236    0    0    0
H 1046.54410043 35.14058405 36.20260080     6     241    0    0    0 
C 1045.07701628 35.04536319 34.81382062     1     240    242    243    244
H 1045.55324177 33.93010459 33.18630753     6     241    0    0    0
H 1043.50683326 33.91200285 35.54730698     6     241    0    0    0
C 1044.74504970 37.84211036 33.96808436     2     241    245    246    247
H 1044.61745700 39.16204332 35.45403430     6     244    0    0    0
H 1046.34130247 38.49076296 32.92063653     6     244    0    0    0
C 1042.20905179 38.36079737 32.25008735     2     244    248   249   250
H 1042.32376782 37.05618581 30.63176402     6     247    0    0    0
H 1040.63395746 37.59043945 33.41952523     6     247    0    0    0
C 1041.54687981 41.28806345 31.66944677     2     247   251   252   253
H 1039.64549481 41.51152872 31.10381379     6    250    0    0    0
H 1041.65356417 42.36074792 33.46479965     6    250    0    0    0
C 1043.03947321 42.40441166 29.44685028     2    250   254   255   256
H 1045.03725669 42.36957404 29.83297337     6    253    0    0    0
H 1042.81128589 41.23823405 27.77018914     6    253    0    0    0
C 1042.32181633 45.19983513 28.93347860     2    253   257   258   259
H 1043.11410910 45.70456580 27.08785308     6    256    0    0    0
H 1040.19205900 45.27301350 28.47396782     6    256    0    0    0
C 1043.42218757 47.06450913 30.96349662     2    256   260   261   262
H 1042.00126291 47.49266381 32.34801086     6    259    0    0    0
H 1045.01444306 46.24102070 31.97809962     6    259    0    0    0
C 1044.13905697 49.72992288 29.70672064     2    259   263   264   265
H 1045.96103753 49.52484647 28.64243452     6    262    0    0    0
H 1042.63966871 50.28792020 28.39291010     6    262    0    0    0
C 1044.49616600 51.78555481 31.63964613     2    262   266   267   268
H 1042.95308547 52.32241912 33.00442737     6    265    0    0    0
H 1045.93502645 51.20787912 32.93088886     6    265    0    0    0
C 1045.15259375 54.21440460 30.38964700     2    265   269   270   271
H 1046.46841097 53.89308556 28.90043579     6    268    0    0    0
H 1043.49036629 54.85755701 29.37797364     6    268    0    0    0
C 1046.46352589 56.12297800 32.24207027     2    268   272   273   274
H 1045.17637275 56.60836893 33.80173373     6    271    0    0    0
H 1047.95677459 54.95080223 32.99465516     6    271    0    0    0
C 1047.71365798 58.44215405 30.95522876     1    271   275   276   277
H 1048.78134508 58.08556187 29.22513929     6    274    0    0    0
H 1048.82905186 59.50439206 32.33622231     6    274    0    0    0
H 1046.13227409 59.76061070 30.39857985     6    274    0    0    0
H 1055.88487314 13.07963331 44.86155731     6     279    0    0    0 
C 1053.93521066 13.75660425 45.28800381     1     278    280    281    282
H 1052.59132091 13.03894537 43.84882768     6     279    0    0    0
H 1053.30551119 12.95348602 47.07981006     6     279    0    0    0
C 1053.72221580 16.73470122 45.14559434     2     279    283    284    285
H 1055.45449601 17.38273946 46.17423072     6     282    0    0    0
H 1053.65610600 17.31915224 43.20621327     6     282    0    0    0
C 1051.33517121 17.86911339 46.47067265     2     282    286   287   288
H 1049.51278950 17.22425582 45.70713575     6     285    0    0    0
H 1051.42540295 17.42066846 48.45657816     6     285    0    0    0
C 1051.34956768 20.68515195 46.44913598     2     285   289   290   291
H 1052.85450100 21.44909750 47.63238940     6    288    0    0    0
H 1051.65084506 21.43448043 44.61409859     6    288    0    0    0
C 1048.80812225 21.60132016 47.43070376     2    288   292   293   294
H 1047.30483822 21.29330256 46.17808011     6    291    0    0    0
H 1048.02256088 20.46882820 49.06004824     6    291    0    0    0
C 1048.79846031 24.51111831 48.09339341     2    291   295   296   297
H 1046.79270602 24.94839517 48.54252074     6    294    0    0    0
H 1050.06355104 24.89917883 49.68607730     6    294    0    0    0
C 1049.43368792 26.26572091 45.89555253     2    294   298   299   300
H 1051.45735469 25.95907461 45.44503451     6    297    0    0    0
H 1048.16904709 25.84546547 44.28148517     6    297    0    0    0
C 1049.04321282 28.97211282 46.65411379     2    297   301   302   303
H 1047.05122067 29.45904723 46.68750954     6    300    0    0    0
H 1049.80220299 29.40117625 48.59356260     6    300    0    0    0
C 1050.24161281 31.07214667 44.90837408     2    300   304   305   306
H 1052.18298168 30.43347133 44.67742763     6    303    0    0    0
H 1049.64323958 30.88244272 42.96094992     6    303    0    0    0
C 1049.88243198 33.60095029 46.15685854     2    303   307   308   309
H 1047.82101306 34.04013558 46.28606232     6    306    0    0    0
H 1050.76341721 33.39443388 48.06006092     6    306    0    0    0
C 1051.05551804 35.57999723 44.37088381     2    306   310   311   312
H 1052.83739705 34.71112481 43.72978716     6    309    0    0    0
H 1049.88294822 35.75773032 42.73383614     6    309    0    0    0
C 1051.33387342 38.13548705 45.65662306     1    309   313   314   315
H 1052.56488378 39.46666853 44.55450658     6    312    0    0    0
H 1052.02596802 37.86359906 47.51387995     6    312    0    0    0
H 1049.56630891 39.13823233 45.92666384     6    312    0    0    0
H 1032.28207058 15.04813326 39.38989238     6     317    0    0    0 
C 1031.21508565 14.30346758 37.67318996     1     316    318    319    320
H 1029.82474010 15.80206996 37.24602386     6     317    0    0    0
H 1032.52670978 13.94503525 36.12886593     6     317    0    0    0
C 1029.79953912 11.86357763 38.11961664     2     317    321    322    323
H 1029.33992652 11.04028799 36.26801948     6     320    0    0    0
H 1031.03579162 10.55030431 39.16765291     6     320    0    0    0
C 1027.30556361 12.44576696 39.40241473     2     320    324   325   326
H 1027.85960731 13.10358330 41.27834863     6     323    0    0    0
H 1026.26050240 13.96342911 38.55513777     6     323    0    0    0
C 1025.64311722 10.11698717 39.49675352     2     323   327   328   329
H 1024.31956182 10.12174141 37.95420460     6    326    0    0    0
H 1026.86436882 8.48912365 39.15621565     6    326    0    0    0
C 1024.04485360 9.94236945 41.84119172     2    326   330   331   332
H 1022.98141347 8.29015381 41.49987534     6    329    0    0    0
H 1025.13078666 9.47736714 43.53290469     6    329    0    0    0
C 1022.16901921 12.09715462 42.45798644     2    329   333   334   335
H 1022.82044350 13.89823300 41.85254221     6    332    0    0    0
H 1020.50926797 11.67314313 41.12290138     6    332    0    0    0
C 1021.27924741 12.05166946 45.19866259     2    332   336   337   338
H 1020.80392144 10.05036782 45.83203653     6    335    0    0    0
H 1022.89163325 12.75609803 46.33049750     6    335    0    0    0
C 1019.17178265 13.89152888 45.68450545     2    335   339   340   341
H 1019.94583576 15.80652378 45.77844518     6    338    0    0    0
H 1017.95315255 13.77715584 44.05345341     6    338    0    0    0
C 1017.57832201 13.51273415 48.11229266     2    338   342   343   344
H 1016.51205889 11.80694313 47.68547224     6    341    0    0    0
H 1018.92876943 13.08052113 49.78788513     6    341    0    0    0
C 1015.87569486 15.80180171 48.54440142     2    341   345   346   347
H 1014.65461794 15.56739185 50.23203588     6    344    0    0    0
H 1017.19388164 17.42870614 48.88536413     6    344    0    0    0
C 1014.13857400 16.59023157 46.31179896     2    344   348   349   350
H 1015.09180250 16.99668670 44.56910905     6    347    0    0    0
H 1012.93406562 15.08781033 45.64057090     6    347    0    0    0
C 1012.66677140 19.00979353 46.60408302     1    347   351   352   353
H 1011.50475255 19.17157113 48.29368348     6    350    0    0    0
H 1011.48067273 19.48200008 45.00466562     6    350    0    0    0
H 1014.11770013 20.51446069 46.62423536     6    350    0    0    0
H 1047.52016324 29.42811483 37.93386460     6     355    0    0    0 
C 1046.19003390 28.26112693 39.08057890     1     354    356    357    358
H 1046.07640692 29.02632242 41.00486568     6     355    0    0    0
H 1044.37647383 28.87905719 38.14881349     6     355    0    0    0
C 1046.96150355 25.44464664 39.11978076     2     355    359    360    361
H 1047.52306349 24.89551913 37.25575881     6     358    0    0    0
H 1048.58861081 24.99613118 40.33825619     6     358    0    0    0
C 1044.76043133 23.80838530 40.11922997     2     358    362   363   364
H 1044.45950585 24.57144450 41.99261032     6     361    0    0    0
H 1043.06199387 24.10654243 38.92808255     6     361    0    0    0
C 1045.41992184 20.98937921 40.42201991     2     361   365   366   367
H 1046.04813105 20.31724133 38.58281761     6    364    0    0    0
H 1047.02989882 20.66936464 41.58753402     6    364    0    0    0
C 1043.10850463 19.33056413 41.29860181     2    364   368   369   370
H 1042.34443286 20.16270106 42.92901786     6    367    0    0    0
H 1041.59075679 19.69423547 40.10049025     6    367    0    0    0
C 1043.89209364 16.53732419 41.55929304     2    367   371   372   373
H 1044.50030405 15.88045075 39.78919814     6    370    0    0    0
H 1045.65418947 16.64859730 42.71621363     6    370    0    0    0
C 1041.52467400 14.80820832 42.02158794     2    370   374   375   376
H 1040.90434761 14.88154082 43.88188914     6    373    0    0    0
H 1039.89935506 15.42740025 40.97277349     6    373    0    0    0
C 1042.19815214 12.11047480 41.21928688     2    373   377   378   379
H 1042.55946998 12.02735780 39.20384328     6    376    0    0    0
H 1043.91903970 11.45753016 42.30556986     6    376    0    0    0
C 1039.93332251 10.24240348 41.70256641     2    376   380   381   382
H 1039.32798819 10.10840790 43.66316319     6    379    0    0    0
H 1038.28830731 11.00325529 40.64489322     6    379    0    0    0
C 1040.33818829 7.56335958 40.83819892     2    379   383   384   385
H 1041.33767806 7.51562044 39.03830273     6    382    0    0    0
H 1041.65744078 6.77129238 42.19054983     6    382    0    0    0
C 1038.13310190 5.82589677 40.81949221     2    382   386   387   388
H 1038.90462932 3.96465556 41.07451676     6    385    0    0    0
H 1036.86042905 6.24516342 42.35392224     6    385    0    0    0
C 1036.83994562 5.89573367 38.14914306     1    385   389   390   391
H 1038.32222492 5.52678991 36.70873411     6    388    0    0    0
H 1036.15059249 7.69535790 37.79920313     6    388    0    0    0
H 1035.39450764 4.32215285 37.78464916     6    388    0    0    0
H 1001.17072195 33.27118377 62.83490396     6     393    0    0    0 
C 1001.57191710 35.14672412 62.34401552     1     392    394    395    396
H 999.67342277 35.98312249 62.13163375     6     393    0    0    0
H 1002.55844787 36.17108247 63.86308025     6     393    0    0    0
C 1002.48803173 35.10918719 59.60000067     2     393    397    398    399
H 1004.39277510 34.29454929 59.58704109     6     396    0    0    0
H 1001.30295427 33.94405750 58.18616583     6     396    0    0    0
C 1002.69292635 37.78091746 58.50367099     2     396    400   401   402
H 1001.08169198 39.08564572 58.81056335     6     399    0    0    0
H 1004.42288807 38.32935373 59.57258432     6     399    0    0    0
C 1003.27164910 37.77511604 55.78346570     2     399   403   404   405
H 1004.58322414 36.24853291 55.28765769     6    402    0    0    0
H 1001.49167240 37.23914239 54.89294999     6    402    0    0    0
C 1004.14517418 40.37356961 54.93023847     2    402   406   407   408
H 1002.51477248 41.61652354 54.59715791     6    405    0    0    0
H 1005.38732653 41.20937458 56.31714884     6    405    0    0    0
C 1005.72361361 40.25978171 52.39289379     2    405   409   410   411
H 1007.31419728 38.82869818 52.70487692     6    408    0    0    0
H 1004.43749841 39.64239855 51.01097102     6    408    0    0    0
C 1006.92194909 42.83430238 51.69030527     2    408   412   413   414
H 1005.35133915 43.98760060 50.96530172     6    411    0    0    0
H 1007.91475380 43.74657021 53.28226247     6    411    0    0    0
C 1009.01540800 42.39053904 49.65512981     2    411   415   416   417
H 1010.40410079 41.07054789 50.63244448     6    414    0    0    0
H 1008.45037103 41.23428936 47.98180688     6    414    0    0    0
C 1010.26830019 44.77050799 48.61954929     2    414   418   419   420
H 1009.00331557 46.13908087 47.98595263     6    417    0    0    0
H 1011.23003725 45.50361818 50.31134254     6    417    0    0    0
C 1012.32504187 44.46172551 46.53474748     2    417   421   422   423
H 1014.08906207 43.75251910 47.49407613     6    420    0    0    0
H 1011.86188983 42.86204238 45.37587882     6    420    0    0    0
C 1012.96132436 46.89877701 45.03545910     2    420   424   425   426
H 1014.44842002 46.22753505 43.70802851     6    423    0    0    0
H 1011.24453587 47.56408707 44.04375867     6    423    0    0    0
C 1014.26205985 48.86719178 46.62069419     1    423   427   428   429
H 1015.03719462 50.44898665 45.39356843     6    426    0    0    0
H 1015.72929278 48.09983502 47.91663181     6    426    0    0    0
H 1013.02538586 49.77877221 47.91220096     6    426    0    0    0
H 1014.08113276 39.29922862 31.50737897     6     431    0    0    0 
C 1012.31447527 39.77996787 30.65195821     1     430    432    433    434
H 1011.92693156 41.78600970 30.66693422     6     431    0    0    0
H 1012.61331389 39.38645751 28.62338577     6     431    0    0    0
C 1010.23780047 38.08845474 31.74791376     2     431    435    436    437
H 1010.92458458 36.24015745 31.91339536     6     434    0    0    0
H 1009.72523682 38.66939003 33.66479861     6     434    0    0    0
C 1007.75367138 38.30961106 30.08177435     2     434    438   439   440
H 1007.11340851 40.38343300 30.34724470     6     437    0    0    0
H 1008.35409471 38.00118888 28.11410130     6     437    0    0    0
C 1005.63527589 36.73165854 31.16507365     2     437   441   442   443
H 1004.22071555 36.36086060 29.70231018     6    440    0    0    0
H 1006.30896490 34.92276897 31.72080124     6    440    0    0    0
C 1004.13312714 37.93111535 33.35359548     2    440   444   445   446
H 1005.57537009 38.08814613 34.94080392     6    443    0    0    0
H 1003.51336147 39.73572186 32.57963524     6    443    0    0    0
C 1001.73798073 36.58763066 34.31658191     2    443   447   448   449
H 1000.75898395 35.85509095 32.54359661     6    446    0    0    0
H 1002.39854131 35.12536468 35.48849338     6    446    0    0    0
C 1000.10013001 38.35782849 35.90731639     2    446   450   451   452
H 999.45268171 39.95315725 34.81540506     6    449    0    0    0
H 998.36550683 37.25500753 36.17628162     6    449    0    0    0
C 1001.10997765 39.17105234 38.51313489     2    449   453   454   455
H 1001.32045151 37.44029190 39.52261210     6    452    0    0    0
H 1002.90655302 40.17291011 38.27000395     6    452    0    0    0
C 999.13961396 41.01892114 39.64954077     2    452   456   457   458
H 999.13602041 42.61802424 38.48321532     6    455    0    0    0
H 997.23212448 40.03546066 39.60766071     6    455    0    0    0
C 999.97528094 41.89473689 42.17600750     2    455   459   460   461
H 998.32190276 42.74390406 43.21565689     6    458    0    0    0
H 1000.68436495 40.38967464 43.41725272     6    458    0    0    0
C 1002.06936654 44.13931955 41.92832651     2    458   462   463   464
H 1003.75473528 43.36559936 41.10851797     6    461    0    0    0
H 1001.64540751 45.59965679 40.47672449     6    461    0    0    0
C 1002.46088709 45.34461651 44.46230878     1    461   465   466   467
H 1002.82003345 43.92527066 46.04902529     6    464    0    0    0
H 1000.79309293 46.36898286 44.87159695     6    464    0    0    0
H 1004.01526948 46.72706432 44.44248423     6    464    0    0    0
H 1032.34428714 8.03768987 33.72126604     6     469    0    0    0 
C 1033.68718081 8.05854685 32.12872199     1     468    470    471    472
H 1035.36086639 6.86166656 32.30076124     6     469    0    0    0
H 1032.69520628 7.35366484 30.43446999     6     469    0    0    0
C 1034.86973832 10.64757930 31.73187905     2     469    473    474    475
H 1035.39833109 10.70809021 29.73523599     6     472    0    0    0
H 1033.24524462 11.84690713 32.13160466     6     472    0    0    0
C 1037.28635156 11.19386832 33.25738757     2     472    476   477   478
H 1036.77661468 10.77722513 35.29600492     6     475    0    0    0
H 1039.08000050 10.08368078 33.13936699     6     475    0    0    0
C 1038.19490811 13.88970960 32.97641185     2     475   479   480   481
H 1038.34711108 14.24082919 30.94366030     6    478    0    0    0
H 1036.70255313 15.23902148 33.32833128     6    478    0    0    0
C 1040.71604472 14.34789599 34.40679795     2    478   482   483   484
H 1040.01521187 14.29289596 36.37546920     6    481    0    0    0
H 1042.00833589 12.72446685 34.22713642     6    481    0    0    0
C 1041.98064590 16.77955491 33.45687961     2    481   485   486   487
H 1041.58483324 17.13447457 31.44682722     6    484    0    0    0
H 1041.33866387 18.52147734 34.55089640     6    484    0    0    0
C 1044.83453673 16.80192949 33.84797478     2    484   488   489   490
H 1045.48519700 16.85897521 35.80261600     6    487    0    0    0
H 1045.63305879 15.02399827 33.06264618     6    487    0    0    0
C 1045.99916128 19.06511132 32.20858778     2    487   491   492   493
H 1045.51634206 18.76939411 30.19115165     6    490    0    0    0
H 1045.25913126 20.90221159 32.70825745     6    490    0    0    0
C 1048.83681515 19.13553352 32.35284728     2    490   494   495   496
H 1049.37940530 19.68475704 34.32822702     6    493    0    0    0
H 1049.69851474 17.24305612 32.17117126     6    493    0    0    0
C 1050.06718945 20.90078683 30.43042341     2    493   497   498   499
H 1049.43522689 20.73239507 28.34047514     6    496    0    0    0
H 1049.33038721 22.79134198 30.66366069     6    496    0    0    0
C 1053.02786289 20.86875137 30.40817223     2    496   500   501   502
H 1053.82620001 20.39318642 32.15761952     6    499    0    0    0
H 1053.67884464 19.39536207 29.26971403     6    499    0    0    0
C 1054.17504705 23.26394497 29.22701869     1    499   503   504   505
H 1056.27881042 23.06347313 29.37585894     6    502    0    0    0
H 1053.64449494 25.09440753 29.96388127     6    502    0    0    0
H 1053.38182930 23.44948386 27.29268557     6    502    0    0    0
H 1033.57451590 54.11387510 28.37127785     6     507    0    0    0 
C 1031.57393171 53.72960843 28.00636082     1     506    508    509    510
H 1030.86143669 55.19288284 26.86102779     6     507    0    0    0
H 1031.12571472 52.00633074 26.81919192     6     507    0    0    0
C 1030.03289090 53.54941646 30.46061584     2     507    511    512    513
H 1031.20335091 52.49453326 31.79990649     6     510    0    0    0
H 1029.53799701 55.27207682 31.39689834     6     510    0    0    0
C 1027.57406536 52.03486464 30.15657707     2     510    514   515   516
H 1026.34996235 52.99960148 28.85174826     6     513    0    0    0
H 1028.15580509 50.23493180 29.27181773     6     513    0    0    0
C 1026.05212305 51.55417379 32.63492352     2     513   517   518   519
H 1027.27989901 50.25655965 33.65771028     6    516    0    0    0
H 1026.10920579 53.44560924 33.58189837     6    516    0    0    0
C 1023.42645769 50.38073915 32.21385380     2    516   520   521   522
H 1022.40611171 51.64269863 30.95286632     6    519    0    0    0
H 1023.59939289 48.76788990 31.13684637     6    519    0    0    0
C 1021.82655720 49.78769655 34.65885656     2    519   523   524   525
H 1022.65074725 48.07565341 35.30775848     6    522    0    0    0
H 1022.31894013 51.07891258 36.21840679     6    522    0    0    0
C 1018.92206314 49.51913088 34.14386432     2    522   526   527   528
H 1018.08838578 51.23983615 33.64682579     6    525    0    0    0
H 1018.88711371 48.42916262 32.38203753     6    525    0    0    0
C 1017.44085059 48.50885165 36.41115164     2    525   529   530   531
H 1018.28266538 46.77301238 37.06992790     6    528    0    0    0
H 1017.41055130 50.01530318 37.75645903     6    528    0    0    0
C 1014.71858801 47.97055796 35.51627859     2    528   532   533   534
H 1013.64368834 49.67457621 35.26579260     6    531    0    0    0
H 1014.55020164 46.66977517 33.92694548     6    531    0    0    0
C 1013.35618352 46.31627812 37.56061181     2    531   535   536   537
H 1014.41114803 44.73302176 38.34400682     6    534    0    0    0
H 1012.88555844 47.66907155 39.12243396     6    534    0    0    0
C 1010.89797483 45.34628209 36.38884083     2    534   538   539   540
H 1010.01925573 46.85612908 35.49192306     6    537    0    0    0
H 1011.47462686 43.99594715 34.82737010     6    537    0    0    0
C 1009.15167094 43.80400170 38.28965260     1    537   541   542   543
H 1007.28020788 43.16158745 37.80439806     6    540    0    0    0
H 1008.75528728 44.84980856 39.95218067     6    540    0    0    0
H 1010.04696971 42.09785717 38.97742113     6    540    0    0    0
H 1012.72228826 28.71820178 46.94167848     6     545    0    0    0 
C 1013.12387213 27.72025413 48.61747837     1     544    546    547    548
H 1013.81638964 25.82086992 47.92244327     6     545    0    0    0
H 1014.70617938 28.73732837 49.69707029     6     545    0    0    0
C 1010.75938059 27.63985964 50.27878844     2     545    549    550    551
H 1009.65983920 29.44679116 50.23062179     6     548    0    0    0
H 1009.54883056 26.30338651 49.35291429     6     548    0    0    0
C 1011.37799741 26.88260933 52.88936811     2     548    552   553   554
H 1012.88723629 27.93417692 53.53254914     6     551    0    0    0
H 1009.60174307 27.43098785 53.95900858     6     551    0    0    0
C 1011.92112629 24.13924519 53.26900104     2     551   555   556   557
H 1010.18948245 23.06320803 52.89454906     6    554    0    0    0
H 1013.33071408 23.40429533 51.99359889     6    554    0    0    0
C 1012.69973678 23.44938459 56.04033585     2    554   558   559   560
H 1014.58655542 24.05417455 56.64562206     6    557    0    0    0
H 1011.36480973 24.61597317 57.13111562     6    557    0    0    0
C 1012.17364959 20.63322368 56.48207561     2    557   561   562   563
H 1010.25102619 20.26174860 56.11959328     6    560    0    0    0
H 1012.95815616 19.26905286 55.21763607     6    560    0    0    0
C 1012.91335697 19.86360219 59.10343620     2    560   564   565   566
H 1014.89759944 20.36312914 59.45982025     6    563    0    0    0
H 1011.84265799 21.03985623 60.34329479     6    563    0    0    0
C 1012.44527737 17.15465915 59.87997409     2    563   567   568   569
H 1010.50265502 16.65593859 59.86952409     6    566    0    0    0
H 1013.68263131 15.79027835 58.78336903     6    566    0    0    0
C 1013.37394703 16.66498544 62.61904776     2    566   570   571   572
H 1015.25611873 17.33909008 62.95008591     6    569    0    0    0
H 1012.26782769 17.83648919 63.94227718     6    569    0    0    0
C 1013.06491950 13.79094332 63.12217383     2    569   573   574   575
H 1011.23240376 13.39742408 63.50532576     6    572    0    0    0
H 1013.47875583 12.52433800 61.50183138     6    572    0    0    0
C 1014.36922763 13.25384689 65.64966807     2    572   576   577   578
H 1013.74737334 14.85383798 66.83933864     6    575    0    0    0
H 1013.74542490 11.54878526 66.56132297     6    575    0    0    0
C 1017.22819776 13.21251116 65.61169140     1    575   579   580   581
H 1018.05198529 11.34887608 65.12280736     6    578    0    0    0
H 1017.82909782 13.90739492 67.46573245     6    578    0    0    0
H 1017.93481528 14.48305007 64.13449894     6    578    0    0    0
H 1048.21421954 12.81889659 45.96959642     6     583    0    0    0 
C 1047.04008676 12.87518948 47.58521970     1     582    584    585    586
H 1048.33337387 13.34403943 49.24419182     6     583    0    0    0
H 1045.78035383 14.45654408 47.67674386     6     583    0    0    0
C 1045.29850900 10.53354292 48.03008092     2     583    587    588    589
H 1043.96196315 10.67577711 46.52420146     6     586    0    0    0
H 1046.41975313 8.99173969 47.53561343     6     586    0    0    0
C 1043.95214017 10.27517001 50.58826349     2     586    590   591   592
H 1045.29186870 9.65668320 52.00804681     6     589    0    0    0
H 1043.24898432 12.04290024 51.23031105     6     589    0    0    0
C 1041.74457936 8.54794559 50.35679276     2     589   593   594   595
H 1040.39886976 9.13933388 48.83509146     6    592    0    0    0
H 1042.34613022 6.68179206 49.93021340     6    592    0    0    0
C 1040.38439362 8.32050799 52.89973522     2    592   596   597   598
H 1041.74818555 7.61322624 54.12784007     6    595    0    0    0
H 1039.71770598 10.11780382 53.55988100     6    595    0    0    0
C 1038.17370650 6.47671847 52.87007911     2    595   599   600   601
H 1036.43758913 7.26524827 52.01093578     6    598    0    0    0
H 1038.36777581 4.96577203 51.54737406     6    598    0    0    0
C 1037.85710079 5.52425726 55.53959308     2    598   602   603   604
H 1039.06131342 4.04178345 55.97737737     6    601    0    0    0
H 1038.07584238 7.18131861 56.95759092     6    601    0    0    0
C 1035.14461173 4.37545252 55.99188918     2    601   605   606   607
H 1033.73893454 5.28302917 54.80354845     6    604    0    0    0
H 1035.16721952 2.44701169 55.33281245     6    604    0    0    0
C 1034.30808636 4.06631107 58.78876498     2    604   608   609   610
H 1035.10542978 2.21003008 59.31332414     6    607    0    0    0
H 1034.99857795 5.47074787 60.22429609     6    607    0    0    0
C 1031.42726082 3.90375475 59.04359570     2    607   611   612   613
H 1030.35402974 5.64514377 58.51907209     6    610    0    0    0
H 1030.67037257 2.48246084 57.81242977     6    610    0    0    0
C 1030.62849016 3.48395112 61.86922088     2    610   614   615   616
H 1031.94907243 2.62851480 63.04897957     6    613    0    0    0
H 1030.12905279 5.35876379 62.67500797     6    613    0    0    0
C 1028.28193571 1.87865239 61.94754186     1    613   617   618   619
H 1027.19036550 2.31831793 63.62143156     6    616    0    0    0
H 1028.59139053 -0.22578987 61.93264106     6    616    0    0    0
H 1026.96369819 2.47917132 60.58035014     6    616    0    0    0
H 1021.58685010 46.98344754 63.82408441     6     621    0    0    0 
C 1022.32635582 47.42970301 61.93198395     1     620    622    623    624
H 1021.14572361 46.17825681 60.60343200     6     621    0    0    0
H 1022.14494936 49.48181443 61.27547976     6     621    0    0    0
C 1025.18414869 46.90854898 61.78747849     2     621    625    626    627
H 1025.77092637 47.07925733 59.86451370     6     624    0    0    0
H 1026.28622983 48.31908563 62.73611220     6     624    0    0    0
C 1025.94267183 44.24369636 62.77565537     2     624    628   629   630
H 1025.49930899 44.35044348 64.70233310     6     627    0    0    0
H 1024.83086729 42.67417884 62.05162070     6     627    0    0    0
C 1028.75813990 43.85696489 62.24383370     2     627   631   632   633
H 1029.32320988 41.94994626 62.65220644     6    630    0    0    0
H 1029.10414752 43.79527195 60.27451025     6    630    0    0    0
C 1030.60815640 45.63134108 63.72577431     2    630   634   635   636
H 1030.39761687 47.54717085 63.06211259     6    633    0    0    0
H 1030.23686192 45.72615040 65.69885904     6    633    0    0    0
C 1033.41544392 44.75623438 63.56433708     2    633   637   638   639
H 1033.42720196 42.75803874 63.82185760     6    636    0    0    0
H 1034.14739385 45.18485848 61.72429892     6    636    0    0    0
C 1034.94269878 46.16570778 65.69470326     2    636   640   641   642
H 1035.00571355 48.19214458 65.26218170     6    639    0    0    0
H 1034.12515898 46.00332732 67.52274510     6    639    0    0    0
C 1037.67843548 45.29256859 66.03779679     2    639   643   644   645
H 1037.80769759 43.21044376 66.32049021     6    642    0    0    0
H 1038.50954298 45.81543683 64.21274344     6    642    0    0    0
C 1038.92496271 46.68763224 68.40564587     2    642   646   647   648
H 1039.16106281 48.68526500 67.96585001     6    645    0    0    0
H 1037.68365557 46.72813882 70.07275059     6    645    0    0    0
C 1041.45031656 45.39581464 69.16854948     2    645   649   650   651
H 1041.08411242 43.54815505 69.98023127     6    648    0    0    0
H 1042.63323195 44.80044790 67.62106487     6    648    0    0    0
C 1043.04042056 47.02738592 70.89222523     2    648   652   653   654
H 1043.54889055 48.91161994 70.16823947     6    651    0    0    0
H 1042.02028358 47.38721978 72.62762660     6    651    0    0    0
C 1045.49749935 45.81251365 71.80133741     1    651   655   656   657
H 1046.70748067 45.91853984 70.18528163     6    654    0    0    0
H 1045.15176960 43.84680074 72.27268493     6    654    0    0    0
H 1046.63680495 46.69549248 73.23320178     6    654    0    0    0
H 1040.28665050 19.65238827 48.14738542     6     659    0    0    0 
C 1041.50905075 18.44432908 49.23145534     1     658    660    661    662
H 1040.80029948 16.62533439 49.00707195     6     659    0    0    0
H 1043.48293519 18.38262602 48.64391156     6     659    0    0    0
C 1041.57564088 19.13427353 52.11964966     2     659    663    664    665
H 1042.83019871 17.84849433 53.15132732     6     662    0    0    0
H 1042.32115894 21.12399099 52.20493642     6     662    0    0    0
C 1039.01270409 19.18135601 53.51935312     2     662    666   667   668
H 1039.19831140 20.58562356 54.97229190     6     665    0    0    0
H 1037.59494896 20.10413271 52.28677701     6     665    0    0    0
C 1038.17389020 16.54083140 54.44721037     2     665   669   670   671
H 1037.68295681 15.46653535 52.70133107     6    668    0    0    0
H 1039.36331060 15.56065860 55.64992524     6    668    0    0    0
C 1035.78614364 16.55834471 55.97585113     2    668   672   673   674
H 1036.27323968 17.43478208 57.75058813     6    671    0    0    0
H 1034.22150135 17.46832796 55.26941379     6    671    0    0    0
C 1034.64844613 13.85448169 56.31142503     2    671   675   676   677
H 1034.24801704 12.96401235 54.59161807     6    674    0    0    0
H 1035.97611441 12.53815203 57.04687827     6    674    0    0    0
C 1032.34001944 14.16518068 57.81460107     2    674   678   679   680
H 1032.49633695 15.11564294 59.59487712     6    677    0    0    0
H 1031.08911859 15.25117204 56.60524285     6    677    0    0    0
C 1031.04586848 11.59360965 58.25095966     2    677   681   682   683
H 1030.81782876 10.58807608 56.45827197     6    680    0    0    0
H 1032.26756940 10.53685446 59.34317698     6    680    0    0    0
C 1028.54595573 11.66671759 59.83021133     2    680   684   685   686
H 1027.24816740 12.94256097 58.97330481     6    683    0    0    0
H 1027.75754568 9.69273705 59.66548788     6    683    0    0    0
C 1028.88148928 11.75072061 62.69347868     2    683   687   688   689
H 1029.64092289 10.05306343 63.56503574     6    686    0    0    0
H 1030.15398596 13.41262804 63.10478512     6    686    0    0    0
C 1026.32867585 12.33910155 64.00013884     2    686   690   691   692
H 1025.29190977 13.83963065 63.07141430     6    689    0    0    0
H 1025.13316158 10.75937759 63.75168293     6    689    0    0    0
C 1026.47449814 12.99000565 66.80485884     1    689   693   694   695
H 1024.54620506 13.04325518 67.57885591     6    692    0    0    0
H 1027.45641186 14.72422625 67.22123233     6    692    0    0    0
H 1027.53922022 11.52530280 67.79160811     6    692    0    0    0
H 1006.82196205 25.72572172 61.57290841     6     697    0    0    0 
C 1006.53177580 23.66731514 62.38605990     1     696    698    699    700
H 1008.36355140 22.86610240 62.17795395     6     697    0    0    0
H 1006.07698517 23.66949491 64.44313448     6     697    0    0    0
C 1004.35909250 22.09518830 61.20842749     2     697    701    702    703
H 1004.26632210 20.14245952 61.78238564     6     700    0    0    0
H 1002.63701278 23.23101177 61.86981530     6     700    0    0    0
C 1004.42033389 22.18630495 58.22410444     2     700    704   705   706
H 1006.16542346 21.18407811 57.63807063     6     703    0    0    0
H 1002.83811487 20.93778382 57.74629284     6     703    0    0    0
C 1003.78594041 24.80291041 56.96609920     2     703   707   708   709
H 1002.03261210 25.79361436 57.71343308     6    706    0    0    0
H 1005.17171277 26.25035921 57.16862530     6    706    0    0    0
C 1003.34389778 24.22616788 54.15979082     2    706   710   711   712
H 1004.76840349 23.15334630 53.35371163     6    709    0    0    0
H 1001.49822372 23.18592903 53.94477389     6    709    0    0    0
C 1002.97641146 26.54045057 52.42690559     2    709   713   714   715
H 1001.73820007 27.84515848 53.48111224     6    712    0    0    0
H 1004.92426862 27.41184647 52.41324063     6    712    0    0    0
C 1002.19182340 25.81060865 49.72420339     2    712   716   717   718
H 1003.72099248 25.11397730 48.55785480     6    715    0    0    0
H 1000.83160551 24.24231923 49.62448841     6    715    0    0    0
C 1000.88364726 27.93910732 48.14171752     2    715   719   720   721
H 999.56044130 29.22769982 49.19701964     6    718    0    0    0
H 1002.50442732 28.98423509 47.49492184     6    718    0    0    0
C 999.47357503 27.16589292 45.84040960     2    718   722   723   724
H 1000.79481303 25.91712631 44.91524301     6    721    0    0    0
H 997.82175899 26.09293269 46.30707292     6    721    0    0    0
C 998.70518320 29.46828107 44.21609242     2    721   725   726   727
H 997.23250736 30.59376859 45.18163892     6    724    0    0    0
H 1000.23739927 30.64293241 43.89898393     6    724    0    0    0
C 997.22097865 28.57496167 41.86105241     2    724   728   729   730
H 996.62582397 30.35362479 40.94232039     6    727    0    0    0
H 998.42021380 27.52990353 40.43278113     6    727    0    0    0
C 994.68454160 27.15105453 42.55034152     1    727   731   732   733
H 993.40175760 27.12139826 40.94485572     6    730    0    0    0
H 993.69220432 28.21425823 44.02681957     6    730    0    0    0
H 995.02968951 25.12768646 42.86680276     6    730    0    0    0
H 1026.62754500 4.49346687 36.73381542     6     735    0    0    0 
C 1025.09457474 3.40819634 35.78211194     1     734    736    737    738
H 1025.93835054 2.39309394 34.07941330     6     735    0    0    0
H 1024.43401000 1.92554154 36.93239460     6     735    0    0    0
C 1023.01236738 5.36973923 35.17365201     2     735    739    740    741
H 1021.23421450 4.66999202 34.57789034     6     738    0    0    0
H 1022.78789742 6.37404345 36.97871463     6     738    0    0    0
C 1023.91743343 7.19988387 33.08514106     2     738    742   743   744
H 1025.94868529 7.69714872 33.47581888     6     741    0    0    0
H 1024.18823483 5.99980827 31.38143204     6     741    0    0    0
C 1022.54464983 9.64551496 32.35170288     2     741   745   746   747
H 1020.61004934 9.21417643 31.73920759     6    744    0    0    0
H 1022.35268129 10.80009508 34.02432236     6    744    0    0    0
C 1023.59309670 11.19217597 30.10005628     2    744   748   749   750
H 1023.82466722 9.77029028 28.57206297     6    747    0    0    0
H 1022.14161318 12.44935140 29.49800239     6    747    0    0    0
C 1026.10291852 12.57847122 30.60316791     2    747   751   752   753
H 1025.79882005 13.58631898 32.47314823     6    750    0    0    0
H 1027.68493725 11.18247828 30.94269169     6    750    0    0    0
C 1026.86766161 14.66460731 28.74344440     2    750   754   755   756
H 1026.13014454 14.25272341 26.97578358     6    753    0    0    0
H 1025.88755376 16.34379170 29.24996420     6    753    0    0    0
C 1029.62741600 14.87885942 28.71707162     2    753   757   758   759
H 1030.23067963 14.93306656 30.61244806     6    756    0    0    0
H 1030.55767308 13.28420348 27.67458864     6    756    0    0    0
C 1030.54424184 17.52941038 27.85411727     2    756   760   761   762
H 1031.01888991 17.14310231 25.92700965     6    759    0    0    0
H 1029.03505930 18.92740974 27.73718536     6    759    0    0    0
C 1032.84956011 18.67665981 29.23806500     2    759   763   764   765
H 1032.24222373 20.00188583 30.75448950     6    762    0    0    0
H 1033.76708701 17.05511440 30.11416506     6    762    0    0    0
C 1034.86379353 20.24997856 27.78639207     2    762   766   767   768
H 1035.18804592 19.29492021 26.05361035     6    765    0    0    0
H 1034.19004983 22.05080914 27.17353297     6    765    0    0    0
C 1037.49785265 19.98551008 28.76025626     1    765   769   770   771
H 1038.01818433 20.26878633 30.68675226     6    768    0    0    0
H 1038.86723105 21.02422075 27.69130255     6    768    0    0    0
H 1037.99970317 18.01400185 28.56681053     6    768    0    0    0
H 1035.19193586 51.80316378 59.52565897     6     773    0    0    0 
C 1035.15065672 53.73580392 60.24588680     1     772    774    775    776
H 1036.06759372 53.67541394 62.05434713     6     773    0    0    0
H 1035.75689875 54.98200439 58.79440040     6     773    0    0    0
C 1032.34790382 54.38184256 60.98694484     2     773    777    778    779
H 1031.68734397 53.82468339 62.75114084     6     776    0    0    0
H 1032.36310445 56.43573669 61.12707783     6     776    0    0    0
C 1030.45920889 53.89046554 58.85230083     2     776    780   781   782
H 1031.30788709 54.83229819 57.12377867     6     779    0    0    0
H 1030.27218998 51.90126330 58.30573635     6     779    0    0    0
C 1027.79366599 54.94175393 59.29156161     2     779   783   784   785
H 1027.24651089 54.65994416 61.35592202     6    782    0    0    0
H 1027.69742529 56.99698981 58.78231259     6    782    0    0    0
C 1025.92978608 53.51867208 57.75360777     2    782   786   787   788
H 1026.57244168 53.54835030 55.78839944     6    785    0    0    0
H 1025.89579776 51.51108714 58.23591313     6    785    0    0    0
C 1023.19319120 54.47064492 57.87189937     2    785   789   790   791
H 1022.26979684 54.89769652 59.61989424     6    788    0    0    0
H 1023.27091653 56.36770280 56.81610915     6    788    0    0    0
C 1021.51328978 52.61258382 56.17661178     2    788   792   793   794
H 1022.44571362 52.01931567 54.57984088     6    791    0    0    0
H 1021.08190217 50.72910416 56.90502629     6    791    0    0    0
C 1019.03945656 53.78253579 55.21311611     2    791   795   796   797
H 1018.29319013 54.85651695 56.74778379     6    794    0    0    0
H 1019.41913129 55.34292481 53.80329368     6    794    0    0    0
C 1017.27140339 51.70921188 54.28476765     2    794   798   799   800
H 1017.97944657 50.98529395 52.39748110     6    797    0    0    0
H 1017.36595213 50.21704502 55.66555675     6    797    0    0    0
C 1014.58936887 52.69011684 53.94994584     2    797   801   802   803
H 1014.12293299 54.18990217 55.20947383     6    800    0    0    0
H 1014.30976537 53.44715926 51.99913790     6    800    0    0    0
C 1012.70672245 50.61844041 54.51561768     2    800   804   805   806
H 1013.43657266 48.79862172 54.12404715     6    803    0    0    0
H 1012.27106727 50.45167905 56.52796795     6    803    0    0    0
C 1010.27559885 50.98142342 53.14223679     1    803   807   808   809
H 1008.71972575 49.76534050 53.53765534     6    806    0    0    0
H 1010.83656165 50.86380949 51.11537433     6    806    0    0    0
H 1009.52143574 52.89978943 53.63621822     6    806    0    0    0
H 1037.97075304 25.23354638 45.41920180     6     811    0    0    0 
C 1038.35868504 26.68297162 43.99238812     1     810    812    813    814
H 1039.43433223 25.83002028 42.62253884     6     811    0    0    0
H 1036.49536153 27.32275934 43.34786022     6     811    0    0    0
C 1039.82045617 29.01833842 44.92492253     2     811    815    816    817
H 1038.95236192 29.63481671 46.69377652     6     814    0    0    0
H 1041.85913690 28.70463916 45.48277140     6     814    0    0    0
C 1039.81857354 31.12675973 43.02672458     2     814    818   819   820
H 1040.90605136 30.23386320 41.42781793     6     817    0    0    0
H 1038.05209645 31.99823925 42.41919456     6     817    0    0    0
C 1041.24902547 33.33896906 44.24509226     2     817   821   822   823
H 1040.09457129 34.35141476 45.59951178     6    820    0    0    0
H 1042.96167333 32.65024233 45.17112942     6    820    0    0    0
C 1041.83369968 35.51310990 42.36731885     2    820   824   825   826
H 1042.48533127 34.50943470 40.58442199     6    823    0    0    0
H 1040.07010603 36.38520577 41.57351754     6    823    0    0    0
C 1043.63653656 37.66847611 43.03119190     2    823   827   828   829
H 1042.62127067 38.82400075 44.40294219     6    826    0    0    0
H 1045.40185221 37.08853794 43.95676201     6    826    0    0    0
C 1044.07591073 39.57922440 40.85700343     2    826   830   831   832
H 1045.75922379 39.25700484 39.84427553     6    829    0    0    0
H 1042.53465182 39.43343602 39.45728973     6    829    0    0    0
C 1044.67643981 42.36802243 41.78823685     2    829   833   834   835
H 1043.16863192 43.26087139 42.83295009     6    832    0    0    0
H 1046.22531617 42.37843218 43.24691842     6    832    0    0    0
C 1045.34455810 44.15591335 39.50744510     2    832   836   837   838
H 1047.07072719 43.50195508 38.34385296     6    835    0    0    0
H 1043.80112738 43.97811523 38.24978782     6    835    0    0    0
C 1045.68887878 47.06346221 40.21021944     2    835   839   840   841
H 1043.87258976 47.60723075 41.16086308     6    838    0    0    0
H 1047.22246762 47.23288659 41.64878872     6    838    0    0    0
C 1046.16574015 48.89482487 38.14768207     2    838   842   843   844
H 1047.88481196 48.12741525 37.36297977     6    841    0    0    0
H 1044.74701118 48.92314339 36.71233867     6    841    0    0    0
C 1046.65277046 51.55337724 39.22706966     1    841   845   846   847
H 1044.99112703 52.39379331 40.07421131     6    844    0    0    0
H 1047.91507412 52.71062420 38.12320305     6    844    0    0    0
H 1047.70358417 51.16741179 40.88754770     6    844    0    0    0
H 1031.29168541 -0.77047311 73.65937557     6     849    0    0    0 
C 1029.22284357 -0.44992027 73.11443337     1     848    850    851    852
H 1028.58204717 -2.26569737 72.41808038     6     849    0    0    0
H 1028.42178281 -0.23449305 74.89931153     6     849    0    0    0
C 1028.94594101 1.73337340 71.14356039     2     849    853    854    855
H 1030.46957483 1.36338162 69.78656365     6     852    0    0    0
H 1027.30532864 1.59534811 70.00165297     6     852    0    0    0
C 1029.15924175 4.40917798 72.20370263     2     852    856   857   858
H 1027.25193836 4.99170545 72.93750534     6     855    0    0    0
H 1030.42925342 4.24830619 73.77010380     6     855    0    0    0
C 1030.09041806 6.65498412 70.61617903     2     855   859   860   861
H 1028.57733538 6.76694428 69.12126850     6    858    0    0    0
H 1029.67600225 8.44341927 71.60392286     6    858    0    0    0
C 1032.82082998 7.01019896 69.85067487     2    858   862   863   864
H 1033.87985792 7.32076975 71.54073234     6    861    0    0    0
H 1033.40603996 5.22602727 68.97584539     6    861    0    0    0
C 1033.11866206 9.01438987 67.92042031     2    861   865   866   867
H 1032.27235020 8.23559824 66.20633806     6    864    0    0    0
H 1032.14840247 10.82538233 68.36391129     6    864    0    0    0
C 1035.75505641 9.73135662 67.11667475     2    864   868   869   870
H 1036.76767648 10.20108097 69.04934549     6    867    0    0    0
H 1036.53964162 7.98989505 66.30939934     6    867    0    0    0
C 1035.91392144 12.01014558 65.14198823     2    867   871   872   873
H 1034.78586813 11.52345055 63.56212964     6    870    0    0    0
H 1034.89340130 13.55139392 65.99025885     6    870    0    0    0
C 1038.54093438 12.97533157 64.27199002     2    870   874   875   876
H 1038.34873152 14.73871961 63.31014780     6    873    0    0    0
H 1039.69680396 13.45725614 65.94825930     6    873    0    0    0
C 1040.09298480 11.01699791 62.64570773     2    873   877   878   879
H 1040.70848214 9.24513235 63.58846432     6    876    0    0    0
H 1038.87327465 10.16028933 61.07558689     6    876    0    0    0
C 1042.45000040 12.17285516 61.42393554     2    876   880   881   882
H 1042.06943439 13.57639312 59.87559406     6    879    0    0    0
H 1043.35798956 13.12278543 62.91750052     6    879    0    0    0
C 1044.28311859 10.17829217 60.32813126     1    879   883   884   885
H 1043.66163217 9.52165872 58.46414770     6    882    0    0    0
H 1044.55451396 8.58125365 61.52523040     6    882    0    0    0
H 1046.42279394 10.91995949 60.36213332     6    882    0    0    0
H 1033.98670884 35.64693031 50.83887186     6     887    0    0    0 
C 1032.71466628 35.38598925 49.22122128     1     886    888    889    890
H 1031.30269713 36.81287395 49.34274590     6     887    0    0    0
H 1033.80422851 35.57306810 47.47455164     6     887    0    0    0
C 1031.36651411 32.80103823 49.14913678     2     887    891    892    893
H 1029.69175868 33.10907723 50.23918404     6     890    0    0    0
H 1030.74772376 32.40724046 47.20702965     6     890    0    0    0
C 1032.99832504 30.44725122 49.93749381     2     890    894   895   896
H 1034.84511318 30.89781221 49.26690414     6     893    0    0    0
H 1032.97309547 29.93227003 51.97640489     6     893    0    0    0
C 1032.23556936 28.07126115 48.43700518     2     893   897   898   899
H 1030.29909429 27.75126257 48.89631432     6    896    0    0    0
H 1032.29231368 28.43655260 46.40418755     6    896    0    0    0
C 1033.23697580 25.47487155 49.32313216     2    896   900   901   902
H 1035.28003522 25.62007719 49.33198379     6    899    0    0    0
H 1032.44056260 25.16674433 51.16751372     6    899    0    0    0
C 1032.79967089 23.36869899 47.17449086     2    899   903   904   905
H 1030.66504962 23.44246369 46.82286657     6    902    0    0    0
H 1033.66928502 23.95605105 45.49826581     6    902    0    0    0
C 1033.86592469 20.82253416 48.03983759     2    902   906   907   908
H 1035.80796321 20.83752779 48.10339496     6    905    0    0    0
H 1033.00989852 20.38594406 49.91603771     6    905    0    0    0
C 1032.86491629 18.69920593 46.28646017     2    905   909   910   911
H 1030.82195094 18.98188000 46.19772383     6    908    0    0    0
H 1033.47256443 18.88980027 44.28365185     6    908    0    0    0
C 1033.70174580 16.14316391 47.48643976     2    908   912   913   914
H 1035.69958327 15.92999768 48.02335904     6    911    0    0    0
H 1032.68435205 15.71562640 49.29567097     6    911    0    0    0
C 1033.49687914 14.01787417 45.68504169     2    911   915   916   917
H 1031.59374664 14.01519452 44.82230316     6    914    0    0    0
H 1034.76254992 14.36644266 43.98971985     6    914    0    0    0
C 1033.98834317 11.32636657 46.81212131     2    914   918   919   920
H 1036.06863509 10.90841138 47.10958119     6    917    0    0    0
H 1033.07398712 11.49107944 48.53741371     6    917    0    0    0
C 1032.80467404 9.27826739 45.30404527     1    917   921   922   923
H 1033.27802475 9.16029649 43.38311673     6    920    0    0    0
H 1030.80977700 9.28945339 45.64573687     6    920    0    0    0
H 1033.28088263 7.43773400 45.98889287     6    920    0    0    0
H 1035.74714569 26.29019570 71.67427852     6     925    0    0    0 
C 1036.50114143 27.88877108 70.48111561     1     924    926    927    928
H 1035.11428938 29.45065807 70.78707713     6     925    0    0    0
H 1038.16083341 28.44308470 71.45978542     6     925    0    0    0
C 1036.60272117 27.38305995 67.63011001     2     925    929    930    931
H 1034.69903384 27.50394670 66.96704557     6     928    0    0    0
H 1037.59353442 28.83570313 66.61235585     6     928    0    0    0
C 1037.92848544 24.88632722 66.78625036     2     928    932   933   934
H 1039.42255758 24.47518377 68.09631785     6     931    0    0    0
H 1036.53389281 23.31411901 66.92167854     6     931    0    0    0
C 1038.87351396 25.27117510 64.04400425     2     931   935   936   937
H 1037.30641983 25.92017363 62.80089561     6    934    0    0    0
H 1040.18750046 26.91229681 64.07022491     6    934    0    0    0
C 1039.82079706 22.83386111 63.15216218     2    934   938   939   940
H 1041.53330148 22.61532643 64.15473987     6    937    0    0    0
H 1038.57829388 21.35417751 63.86148917     6    937    0    0    0
C 1040.33657322 22.46964125 60.25386727     2    937   941   942   943
H 1038.57232799 22.46175676 59.39170359     6    940    0    0    0
H 1041.17048213 24.16253568 59.41913344     6    940    0    0    0
C 1041.93758212 20.11379397 59.74975035     2    940   944   945   946
H 1040.96318812 18.43663683 60.50860044     6    943    0    0    0
H 1042.26041354 20.07018082 57.68836048     6    943    0    0    0
C 1044.59754119 20.15928780 61.23932884     2    943   947   948   949
H 1045.21948165 22.16517502 61.00375852     6    946    0    0    0
H 1044.38032970 19.87169574 63.25804688     6    946    0    0    0
C 1046.65354063 18.27717349 60.37398101     2    946   950   951   952
H 1046.40285317 16.49592694 61.18142587     6    949    0    0    0
H 1046.58806017 18.11896340 58.33512511     6    949    0    0    0
C 1049.32135171 19.22873807 61.18633667     2    949   953   954   955
H 1049.86766873 20.98727314 60.24860865     6    952    0    0    0
H 1048.99113595 19.62962013 63.25456304     6    952    0    0    0
C 1051.22658261 17.19789974 60.64984322     2    952   956   957   958
H 1050.68561840 15.35004244 61.50936745     6    955    0    0    0
H 1051.31070694 16.87421182 58.60427333     6    955    0    0    0
C 1053.95568465 17.65175121 61.58859146     1    955   959   960   961
H 1055.08254193 15.80556467 61.36321986     6    958    0    0    0
H 1053.94143291 18.10425272 63.56957151     6    958    0    0    0
H 1054.65987448 19.19956329 60.46794464     6    958    0    0    0
H 1027.16067905 29.48383833 37.67448587     6     963    0    0    0 
C 1025.25323220 28.65759574 37.28135183     1     962    964    965    966
H 1025.63519965 27.51026919 35.69452821     6     963    0    0    0
H 1024.87669913 27.39516290 38.99317538     6     963    0    0    0
C 1023.25810880 30.70487451 36.78117628     2     963    967    968    969
H 1023.50264801 32.34763581 38.04689995     6     966    0    0    0
H 1023.89320006 31.59626851 35.06304152     6     966    0    0    0
C 1020.52201837 29.75680039 36.95054612     2     966    970   971   972
H 1019.95312213 28.46667976 35.45253222     6     969    0    0    0
H 1020.37818944 28.65620121 38.64468135     6     969    0    0    0
C 1018.76477779 31.89292018 36.86218475     2     969   973   974   975
H 1019.41365386 33.25539304 38.23771646     6    972    0    0    0
H 1018.83565442 32.94511907 35.09266675     6    972    0    0    0
C 1016.03507078 31.01194432 37.52975503     2    972   976   977   978
H 1015.38023875 29.47109544 36.29516627     6    975    0    0    0
H 1016.04333054 30.39966751 39.51535054     6    975    0    0    0
C 1014.16679883 33.22884264 37.24399042     2    975   979   980   981
H 1015.05100531 34.99360097 37.98578437     6    978    0    0    0
H 1013.74519877 33.47862897 35.21944717     6    978    0    0    0
C 1011.68825691 32.82337612 38.64839411     2    978   982   983   984
H 1010.51200493 31.25744540 37.64804550     6    981    0    0    0
H 1011.73346965 32.15837968 40.60466508     6    981    0    0    0
C 1010.04423798 35.23514124 38.74340455     2    981   985   986   987
H 1011.13714497 36.84837890 39.20778757     6    984    0    0    0
H 1009.39391485 35.71075060 36.85365898     6    984    0    0    0
C 1007.72165056 35.02223833 40.59430392     2    984   988   989   990
H 1006.07922083 35.94847169 39.74954918     6    987    0    0    0
H 1006.96869919 33.09249743 40.90532424     6    987    0    0    0
C 1008.22875684 35.81191241 43.32533482     2    987   991   992   993
H 1009.68740422 34.31225098 44.02699744     6    990    0    0    0
H 1008.80237119 37.78529081 43.25072641     6    990    0    0    0
C 1005.84633318 35.31973696 44.87478644     2    990   994   995   996
H 1004.43208928 36.77206721 44.42073709     6    993    0    0    0
H 1005.05830859 33.62400112 44.40473974     6    993    0    0    0
C 1006.32005844 35.27840237 47.72223799     1    993   997   998   999
H 1007.06373156 33.36646379 48.16942239     6    996    0    0    0
H 1004.56811035 35.81023630 48.75338746     6    996    0    0    0
H 1007.81325926 36.65160078 48.21704167     6    996    0    0    0
H 1037.45797457 34.10003315 30.67884078     6     1001    0    0    0 
C 1036.02166906 35.44487945 31.42982952     1     1000    1002    1003    1004
H 1036.45023066 35.80030998 33.48710258     6     1001    0    0    0
H 1036.19669946 37.32817872 30.58428044     6     1001    0    0    0
C 1033.46704456 33.87417363 31.03046050     2     1001    1005    1006    1007
H 1033.13104941 33.60393531 29.00361606     6     1004    0    0    0
H 1033.64761009 31.99944766 31.82517240     6     1004    0    0    0
C 1031.18987070 35.28594131 31.94140211     2     1004    1008   1009   1010
H 1030.88003967 34.58933074 33.76633904     6     1007    0    0    0
H 1031.28920727 37.29142669 32.24549943     6     1007    0    0    0
C 1029.00627456 34.64762632 30.25202609     2     1007   1011   1012   1013
H 1028.86885617 35.43057974 28.30151292     6    1010    0    0    0
H 1028.93448201 32.54985590 29.94103367     6    1010    0    0    0
C 1026.40953466 35.52866753 31.59340069     2    1010   1014   1015   1016
H 1026.49254288 34.60479363 33.38132557     6    1013    0    0    0
H 1026.45629996 37.62451917 31.78491992     6    1013    0    0    0
C 1023.88351297 34.77187620 30.45931923     2    1013   1017   1018   1019
H 1023.90884898 32.72409977 30.80909833     6    1016    0    0    0
H 1022.27690009 35.38565046 31.55464859     6    1016    0    0    0
C 1023.62940135 35.43316253 27.56363486     2    1016   1020   1021   1022
H 1024.28767223 37.29100284 27.08748540     6    1019    0    0    0
H 1024.92531408 34.08869839 26.73493697     6    1019    0    0    0
C 1020.97438973 35.04107791 26.42181704     2    1019   1023   1024   1025
H 1019.77154986 36.58026696 27.03057190     6    1022    0    0    0
H 1020.93174745 35.21394794 24.35611801     6    1022    0    0    0
C 1019.68226391 32.45509021 27.04847615     2    1022   1026   1027   1028
H 1019.28342071 31.38391044 25.34506754     6    1025    0    0    0
H 1020.91245078 31.17678586 28.10202880     6    1025    0    0    0
C 1017.25677687 32.71303078 28.56786870     2    1025   1029   1030   1031
H 1017.44774142 34.22210673 29.99183004     6    1028    0    0    0
H 1015.92566243 33.81909896 27.33710805     6    1028    0    0    0
C 1016.08186792 30.17202848 29.46515757     2    1028   1032   1033   1034
H 1016.34588464 28.78321750 27.95202976     6    1031    0    0    0
H 1017.43153870 29.68235632 30.98745950     6    1031    0    0    0
C 1013.31912624 30.24905897 30.31007008     1    1031   1035   1036   1037
H 1013.16757994 32.13818086 31.27849539     6    1034    0    0    0
H 1012.84195469 28.71891894 31.45383903     6    1034    0    0    0
H 1012.22035004 30.23296756 28.59785530     6    1034    0    0    0
H 1027.46224994 48.21155773 54.95258187     6     1039    0    0    0 
C 1029.07569956 48.30555675 53.89254995     1     1038    1040    1041    1042
H 1028.47511802 47.21142134 52.21496107     6     1039    0    0    0
H 1029.45144572 50.29728889 53.64039923     6     1039    0    0    0
C 1031.34785112 46.98161448 55.07523727     2     1039    1043    1044    1045
H 1031.00033023 46.60631596 57.07322862     6     1042    0    0    0
H 1031.58559294 45.15263698 54.22284445     6     1042    0    0    0
C 1033.82782518 48.31404328 54.72693262     2     1042    1046   1047   1048
H 1034.04919799 48.50712667 52.60188439     6     1045    0    0    0
H 1033.71091701 50.05432967 55.59413150     6     1045    0    0    0
C 1036.10422390 46.80258016 55.69635630     2     1045   1049   1050   1051
H 1035.78908791 46.19713569 57.59520426     6    1048    0    0    0
H 1036.26765745 45.04017561 54.70621114     6    1048    0    0    0
C 1038.69788450 48.10183857 55.07259877     2    1048   1052   1053   1054
H 1038.64395558 48.61847044 53.00005244     6    1051    0    0    0
H 1038.78017223 49.97930037 56.12146084     6    1051    0    0    0
C 1040.80016408 46.29707016 55.87251392     2    1051   1055   1056   1057
H 1040.70474356 45.98372967 57.80398821     6    1054    0    0    0
H 1040.60191972 44.61875092 54.69474417     6    1054    0    0    0
C 1043.43894017 47.24552195 55.48100635     2    1054   1058   1059   1060
H 1044.16871971 46.98039331 53.54571449     6    1057    0    0    0
H 1043.72839319 49.27193951 55.74923600     6    1057    0    0    0
C 1045.30289084 45.77087660 57.07041708     2    1057   1061   1062   1063
H 1045.12991859 46.69890211 58.90054356     6    1060    0    0    0
H 1044.75747951 43.68705209 57.14448220     6    1060    0    0    0
C 1047.92539348 45.89586699 56.01417059     2    1060   1064   1065   1066
H 1048.14738065 44.68423718 54.25608242     6    1063    0    0    0
H 1048.48072152 47.85028177 55.64037135     6    1063    0    0    0
C 1049.77205639 44.80827936 58.05297754     2    1063   1067   1068   1069
H 1049.24688734 42.85974571 58.80806331     6    1066    0    0    0
H 1051.48889365 44.47026946 56.91848704     6    1066    0    0    0
C 1050.46185160 46.78574061 60.12807310     2    1066   1070   1071   1072
H 1051.35610819 48.41237183 59.43508051     6    1069    0    0    0
H 1048.85971989 47.37147457 61.20929573     6    1069    0    0    0
C 1052.47873039 45.63533013 61.87374081     1    1069   1073   1074   1075
H 1053.33222163 47.09552009 62.97340706     6    1072    0    0    0
[...]
 1803      H    1027.6269691000    38.3027523400    68.5903650900
 1804      H    1029.6915912400    40.4259444800    67.0320261700
 1805      C    1031.4265253800    37.9442216200    69.7927401300
 1806      H    1033.0726297600    39.2117095700    69.8924209100
 1807      H    1031.1956860100    37.4603813000    71.7862628000
 1808      C    1031.9107916800    35.6889424000    68.1764825100
 1809      H    1032.9277338100    34.3803100700    69.3190013400
 1810      H    1030.1596713800    34.6454957000    67.5376330200
 1811      C    1033.4179324100    36.0428905800    65.6037320100
 1812      H    1032.2126782500    37.1149329400    64.3416761400
 1813      H    1035.0383022400    37.1990071500    66.1078002700
 1814      C    1034.1129778200    33.5251729000    64.1782794600
 1815      H    1035.5046301400    32.5409744000    65.3887232000
 1816      H    1032.2835394900    32.2555369400    64.1336742900
 1817      C    1035.0897005500    33.7205190300    61.4588043200
 1818      H    1033.5627183600    34.6153910800    60.3314533300
 1819      H    1036.8304190600    34.8121964300    61.3842968900
 1820      C    1035.8623654200    31.1155305900    60.4742067400
 1821      H    1037.3171102900    30.2228920600    61.6335855100
 1822      H    1034.2762888100    29.9868678300    60.4366331700
 1823      C    1037.0174900100    31.1530595500    57.7513323300
 1824      H    1035.7233332900    32.2187572000    56.5029954700
 1825      H    1038.7631744600    32.2410123600    57.3881207500
 1826      C    1037.6793357500    28.3448439300    56.9995122200
 1827      H    1039.0538354500    27.9141460700    58.5147595100
 1828      H    1036.0406086300    27.0779531900    57.3777564800
 1829      C    1038.5030411500    28.5000616500    54.2975356200
 1830      H    1037.1646028100    29.3913983300    52.9760082300
 1831      H    1040.1361117100    29.7144156400    54.1104897100
 1832      C    1039.2707631800    25.9384541000    53.4030568400
 1833      H    1039.2799432900    26.2894822900    51.3739737900
 1834      H    1037.8849706300    24.4872288500    53.6974688300
 1835      H    1040.9668084200    25.3447472200    54.4730352100
 1836      H    1030.3368478200    23.8023697500    55.9471742100
 1837      C    1031.8505169300    22.4232775400    55.7957769500
 1838      H    1030.8949942100    20.7490631700    55.0621858700
 1839      H    1033.1755722100    23.0416444600    54.3612488400
 1840      C    1033.1596918700    22.1076244300    58.4641656400
 1841      H    1034.8153489100    20.8656516000    58.2716547500
 1842      H    1033.7859298600    23.9427702500    59.0615911300
 1843      C    1031.4192323800    21.1906063600    60.4687356900
 1844      H    1029.8574366600    22.4349394500    60.5029002000
 1845      H    1030.6147664900    19.1822256500    60.1731830500
 1846      C    1032.4553977800    21.5333607300    63.2481654400
 1847      H    1034.3275872800    20.7952681300    63.4287268600
 1848      H    1032.7672687200    23.4349968700    63.6829849300
 1849      C    1030.9066715300    20.3169618500    65.2551248600
 1850      H    1028.9978040500    21.1458237200    65.2637385200
 1851      H    1030.6145611900    18.3489965000    64.7342355500
 1852      C    1032.0328021000    20.2160284700    68.0146909600
 1853      H    1033.9167662300    19.4003327500    68.0279694300
 1854      H    1032.4248242300    22.1209734900    68.7749398600
 1855      C    1030.3305971800    18.4469763800    69.7688253900
 1856      H    1028.3165287600    19.0130853700    69.4563405300
 1857      H    1030.4508177900    16.5194771400    69.2886094100
 1858      C    1030.8087346900    18.4603991700    72.6167853700
 1859      H    1032.7454665200    17.7291503400    73.0117336100
 1860      H    1030.7773835400    20.4208825000    73.3077219900
 1861      C    1028.9942337500    16.8927860500    74.1201453900
 1862      H    1027.1293656900    17.9533373200    74.0095794500
 1863      H    1028.7828887800    15.0390917800    73.2955385600
 1864      C    1029.5371530200    16.5525167800    77.0068746700
 1865      H    1031.2247716300    15.3525263700    76.9643928400
 1866      H    1030.2717870000    18.1888024400    77.9812053800
 1867      C    1027.3813038700    15.3086248100    78.3414825300
 1868      H    1026.0482692800    16.6914740400    79.0320966000
 1869      H    1026.6284459000    14.0703159700    76.8762580900
 1870      C    1028.3312772300    13.6578083500    80.5672846000
 1871      H    1026.7268723600    12.6832343900    81.5361136500
 1872      H    1029.4743292400    14.9027864400    81.7903203900
 1873      H    1029.6815685700    12.2604463400    79.9297098000
 1874      H    1007.5937134800    30.0283604300    68.0950466000
 1875      C    1007.4911877800    29.6726741900    66.1398973100
 1876      H    1008.4263079200    27.8247002700    65.8616294900
 1877      H    1005.5468061500    29.3812975700    65.6163935600
 1878      C    1008.9524671900    31.4122650900    64.3485297500
 1879      H    1008.4226264000    33.3834467800    64.8816130300
 1880      H    1011.0780140200    31.4850376300    64.8184504100
 1881      C    1008.7454156600    30.9922653700    61.4325015000
 1882      H    1009.5357476500    29.0978211800    60.9704139700
 1883      H    1006.6925114700    30.5737980100    60.8441755300
 1884      C    1009.8475422000    33.1899957800    59.8999563100
 1885      H    1008.4726099200    34.7646623900    59.9739901200
 1886      H    1011.3657555300    34.0411892300    60.9841067500
 1887      C    1010.5979914200    32.4753875000    57.2383282500
 1888      H    1011.8455635400    30.7690756100    57.0637894400
 1889      H    1008.9096760000    31.8393757700    56.3699574700
 1890      C    1011.6955344000    34.6832929200    55.7784676100
 1891      H    1010.3677019500    36.3203662400    55.8414637900
 1892      H    1013.2723493900    35.4253730700    56.7578342500
 1893      C    1012.3640180900    33.9409868200    53.0337215400
 1894      H    1013.6522665300    32.3122184600    53.0385523000
 1895      H    1010.3878921000    33.3297474700    52.4152134100
 1896      C    1013.6775038900    36.0902023800    51.5812968700
 1897      H    1012.4730796700    37.7518948000    51.7210008700
 1898      H    1015.4370126800    36.5284392300    52.4396820900
 1899      C    1014.2509948000    35.3123737300    48.8513851900
 1900      H    1015.5854082400    33.8853843800    48.8909600200
 1901      H    1012.3985182000    34.5837738900    48.2487230700
 1902      C    1015.3998533700    37.4270180900    47.1445266800
 1903      H    1013.7692400000    38.7694933000    46.8464626700
 1904      H    1016.8680428600    38.3642368700    48.1477502700
 1905      C    1016.1602950000    36.7216610100    44.3833330000
 1906      H    1018.0400184200    35.8957372100    44.4661006100
 1907      H    1014.9244402700    35.3949237000    43.3994677000
 1908      C    1016.6736165300    38.9108812300    42.6300310700
 1909      H    1017.7203366900    38.3609235900    40.9383847300
 1910      H    1017.9657955900    40.2179004500    43.4086399700
 1911      H    1015.0238891000    39.8883689700    41.9657049900
 ----------------------------------------------------------------
 Nuclear Repulsion Energy =           0.00000000 hartrees
 There are     2498 alpha and     2498 beta electrons

 Total QAlloc Memory Limit   2000 MB
 Mega-Array Size       204 MB
 MEM_STATIC part       192 MB
   **** Step 1: MM calculation on the entire system **** 
 OPLSAA force field loaded.
Reading user-defined FF parameters...
 Reading user defined atom types.
 Found 3 user defined AtomTypes
finished.
Determining angles, torsions, etc. from user defined input
Determining VDW/Coulomb pairs... (useList = 0)

 Time req'd to get MM system information: 0.2 s (CPU) 0.5 s (wall)

 ------ MM Energies ------
   Ebond:           559.240049728580
   Eangle:          878.844794271719
   EUreyBrad:         0.000000000000
   Eimptors:          0.000000000000
   Etorsion:        223.275000547321
   Evdw:        1170708.324023378082
   Ecoulomb:        186.149763924648
   Etot:        1172555.833631850313 Kcal/mol (   1868.586671310735 hartree)
 -------------------------
 Time req'd to calc MM energy: 0.1 s (CPU) 0.1 s (wall)
 OPLSAA force field loaded.
Reading user-defined FF parameters...
 Reading user defined atom types.
 Found 3 user defined AtomTypes
finished.
 Time req'd to get MM system information: 0.0 s (CPU) 0.0 s (wall)
 Time req'd to calc MM gradient: 0.2 s (CPU) 0.2 s (wall)
   **** Step 2: MM calculation on the model system **** 
 Reading user defined atom types.
 Found 3 user defined AtomTypes
 ----------------------------------------------------------------
             Standard Nuclear Orientation (Bohr)
    I     Atom           X                Y                Z
 ----------------------------------------------------------------
    1      Fe   1020.9913678200    26.2563354200    51.7979243500
    2      C    1019.7127075200    27.8869809000    49.1713722600
    3      C    1023.1979655500    26.1768367700    54.4954315600
    4      C    1019.1941291100    23.2894726100    52.0417509100
    5      C    1023.5226639900    25.2997617300    49.8350506700
    6      C    1018.8817227800    28.0502556700    53.7843630000
    7      O    1018.9120624800    28.8232510100    47.3616440400
    8      O    1024.4085519200    25.9934519800    56.3158132100
    9      O    1017.7313275300    21.6731552900    52.3357174900
   10      O    1025.3243610700    24.8380111300    48.6512078900
   11      O    1017.5065025900    29.5048703100    54.6334234800
 ----------------------------------------------------------------
 Nuclear Repulsion Energy =         802.82171023 hartrees
 There are       48 alpha and       48 beta electrons
 OPLSAA force field loaded.
Reading user-defined FF parameters...
 Reading user defined atom types.
 Found 3 user defined AtomTypes
finished.
Determining VDW/Coulomb pairs... (useList = 0)

 No MM bonds in system. Return all possible pairs.
 Time req'd to get MM system information: 0.0 s (CPU) 0.0 s (wall)

 ------ MM Energies ------
   Ebond:             0.000000000000
   Eangle:            0.000000000000
   EUreyBrad:         0.000000000000
   Eimptors:          0.000000000000
   Etorsion:          0.000000000000
   Evdw:        1171170.198417741107
   Ecoulomb:         -6.532328514045
   Etot:        1171163.666089226957 Kcal/mol (   1866.368111102545 hartree)
 -------------------------
 Eold: 1868.5866713 mm_energy: 1866.3681111 Enew:    2.2185602
 Time req'd to calc MM energy: 0.0 s (CPU) 0.0 s (wall)
 OPLSAA force field loaded.
Reading user-defined FF parameters...
 Reading user defined atom types.
 Found 3 user defined AtomTypes
finished.
Determining VDW/Coulomb pairs... (useList = 0)

 No MM bonds in system. Return all possible pairs.
 Time req'd to get MM system information: 0.0 s (CPU) 0.0 s (wall)
 Number of fixed atoms: 0
 Time req'd to calc MM gradient: 0.0 s (CPU) 0.0 s (wall)
   **** Step 3: QM calculation on the model system **** 
 Requested basis set is def2-mSVP
 There are 80 shells and 174 basis functions

                       Distance Matrix (Bohrs)
             Fe(  1)   C (  2)   C (  3)   C (  4)   C (  5)   C (  6)
   C (  2)  3.345557
   C (  3)  3.485963  6.589175
   C (  4)  3.477326  5.444730  5.512543
   C (  5)  3.342958  4.652950  4.753298  5.258042
   C (  6)  3.408033  4.690083  4.758705  5.079306  6.685852
   O (  7)  5.531107  2.189235  8.732892  7.252976  6.307960  6.469139
   O (  8)  5.670765  8.756680  2.193841  7.264249  6.577711  6.417517
   O (  9)  5.650011  7.249178  7.404839  2.199701  7.276344  6.639984
   O ( 10)  5.539702  6.407608  6.361522  7.174503  2.204724  8.841684
   O ( 11)  5.544125  6.108921  6.594513  6.942335  8.769351  2.174405
             O (  7)   O (  8)   O (  9)   O ( 10)
   O (  8) 10.881007
   O (  9)  8.789733  8.893337
   O ( 10)  7.659157  7.805122  9.013661
   O ( 11)  7.437673  7.924568  8.164910 10.894282

 A cutoff of  1.0D-11 yielded   2486 shell pairs
 There are     12800 function pairs (     14660 Cartesian)
 Smallest overlap matrix eigenvalue = 2.46E-03
 Guess MOs from SCF MO coefficient file
 Reading MOs from coefficient file
 Reading MOs from coefficient file
 A restricted Kohn-Sham SCF calculation will be
 performed using Pulay DIIS extrapolation
 Exchange:  B88      Correlation:  P86
 Using SG-1 standard quadrature grid
 SCF converges when DIIS error is below 1.0E-08
 Using Q-Chem read-in guess as SCF_GUESS READ specified.

 using 2 threads for integral computing
 -------------------------------------------------------
 OpenMP Integral computing Module                
 Release: version 1.0, May 2013, Q-Chem Inc. Pittsburgh 
 -------------------------------------------------------
 ---------------------------------------
  Cycle       Energy         DIIS Error
 ---------------------------------------
    1   -1830.5192325948      4.57E-09
    2   -1830.5192325947      5.23E-08
    3   -1830.5192325948      3.37E-09 Convergence criterion met
 ---------------------------------------
 SCF time:  CPU 3.87 s  wall 2.03 s
 E(QM + QM/MM):    -1830.5192325948 E(MM):    2.2185602 E(Tot): -1828.300672386630 
 SCF   energy in the final basis set = -1828.30067239
 Total energy in the final basis set = -1828.30067239

 --------------------------------------------------------------

                    Orbital Energies (a.u.)
 --------------------------------------------------------------

 Alpha MOs
 -- Occupied --
******** -29.6325 -25.5910 -25.5837 -25.5731 -18.8864 -18.8831 -18.8795
-18.8790 -18.8719 -10.0516 -10.0490 -10.0481 -10.0435 -10.0386  -3.3176
 -2.1518  -2.1378  -2.1135  -1.0666  -1.0567  -1.0514  -1.0505  -1.0487
 -0.5737  -0.5237  -0.5203  -0.5170  -0.5135  -0.4568  -0.4489  -0.4373
 -0.4356  -0.4335  -0.4301  -0.4257  -0.4240  -0.4135  -0.4119  -0.4093
 -0.4064  -0.4029  -0.3860  -0.3813  -0.2824  -0.2629  -0.2448  -0.2096
 -- Virtual --
 -0.1022  -0.0878  -0.0820  -0.0780  -0.0681  -0.0633  -0.0611  -0.0555
 -0.0502  -0.0423  -0.0167   0.0151   0.1964   0.2061   0.2234   0.2482
  0.2933   0.3298   0.3699   0.3893   0.4148   0.4178   0.4388   0.4471
  0.4554   0.4749   0.4823   0.5107   0.5236   0.5338   0.5811   0.6035
  0.6273   0.6384   0.6436   0.6568   0.7434   0.7533   0.7626   0.7638
  0.7739   0.8316   0.8495   0.8563   0.8831   0.9118   0.9418   0.9659
  0.9669   0.9733   0.9811   1.0083   1.0341   1.0464   1.0619   1.0829
  1.1392   1.1953   1.2127   1.3602   1.3982   1.4058   1.4073   1.4130
  1.4173   1.4191   1.4232   1.4320   1.4559   1.4631   1.4803   1.4853
  1.5229   1.5274   1.5599   1.5765   1.5942   1.6431   1.6585   1.6867
  1.7253   1.8199   1.8262   1.8337   1.8429   1.8445   1.8566   1.8606
  1.8615   1.8758   1.8788   1.8881   1.8921   1.9089   1.9178   1.9595
  2.3781   2.4026   2.4151   2.4538   2.4651   2.4713   2.4913   2.5177
  2.5214   2.5586   2.6278   2.6454   2.6546   2.6852   2.7011   2.8233
  2.8300   2.8558   2.8834   3.0137  13.2652  13.2873  13.3223  13.3554
 13.4094  24.9186  24.9329  24.9559  24.9664  25.0279
 --------------------------------------------------------------

          Ground-State Mulliken Net Atomic Charges

     Atom                 Charge (a.u.)
  ----------------------------------------
      1 Fe                   -0.535090
      2 C                     0.199754
      3 C                     0.216703
      4 C                     0.265743
      5 C                     0.190855
      6 C                     0.212204
      7 O                    -0.117491
      8 O                    -0.106545
      9 O                    -0.110602
     10 O                    -0.119393
     11 O                    -0.096137
  ----------------------------------------
  Sum of atomic charges =     0.000000

 -----------------------------------------------------------------
                    Cartesian Multipole Moments
 -----------------------------------------------------------------
    Charge (ESU x 10^10)
                -0.0000
    Dipole Moment (Debye)
         X      -0.0345031290      Y      -0.2322091271      Z       0.3955028508
       Tot       0.4599283092
    Quadrupole Moments (Debye-Ang)
        XX    -107.1511     XY    -125.9222     YY     -75.4825
        XZ     212.4052     YZ      -0.0820     ZZ     -47.8075
    Octopole Moments (Debye-Ang^2)
       XXX -143451.8895    XXY  -69249.8153    XYY  -40777.0835
       YYY   -3001.6700    XXZ  112151.7900    XYZ     -63.1322
       YYZ   -1972.7580    XZZ  -25872.9768    YZZ    -796.3891
       ZZZ   -4825.5970
    Hexadecapole Moments (Debye-Ang^3)
      XXXX ************   XXXY ************   XXYY ************
      XYYY ************   YYYY  -82439.8905   XXXZ ************
      XXYZ  -70765.5107   XYYZ ************   YYYZ  -80836.1425
      XXZZ ************   XYZZ -430917.7544   YYZZ  -65096.7993
      XZZZ ************   YZZZ  -70110.6229   ZZZZ -281766.7982
 -----------------------------------------------------------------
 Calculating MO derivatives via CPSCF
 Full subspace dimension requested for CIS/TDDFT
 MAX_CIS_SUBSPACE fits in available memory
    1     0    36    0.0399560  
    2     0    36    0.0056349  
    3     0    36    0.0006348  
    4     0    36    0.0000528  
    5    34     2    0.0000016  
    6    36     0    0.0000000  Converged
 Time for AOints: 6.7 s (CPU) 3.4 s (wall)
 ------------------------------------------------------------------------------
                     AOints        : Timing summary (seconds)
 ------------------------------------------------------------------------------
     job step          cpu (% of tot)      sys (% of tot)     wall (% of tot)
 ------------------------------------------------------------------------------
  AOints            0.6720E+01 ( 3.7)   0.1400E-04 (12.1)   0.3420E+01 ( 3.7)
 ------------------------------------------------------------------------------
   Grand Totals     0.1816E+03          0.1160E-03          0.9144E+02
 ------------------------------------------------------------------------------
 Polarizability Matrix (a.u.)
            1           2           3
    1 -95.6595167   8.2272890   0.1949052
    2   8.2272890 -79.3393154   1.1796113
    3   0.1949052   1.1796113 -97.3934165
 Derivative of Dipole Moment Matrix (a.u.)
            1           2           3
    1  -1.8998571   0.0600903  -0.0785509
    2   0.0504272  -1.7059137   0.0703883
    3   0.0878018  -0.0403301  -1.9323281
    4   0.6534422  -0.3722513   0.6397215
    5  -0.2670450   0.8250091  -0.6859080
    6   0.5805787  -0.8156015   1.6781318
    7   1.0964088   0.0153221   0.8776725
    8  -0.0929410   0.4065044  -0.1502920
    9   1.0603856   0.0058870   1.5984360
   10   1.1104067   1.0241986  -0.0903427
   11   0.7520388   1.5839564  -0.1122816
   12  -0.1314033  -0.1757368   0.4503744
   13   1.6037642  -0.2969637  -0.8739513
   14  -0.3160253   0.5212768   0.2668728
   15  -0.8693889   0.2358096   1.0380275
   16   1.1187937  -0.6827440  -0.6116150
   17  -0.6836780   1.0745739   0.6064242
   18  -0.5498326   0.5179389   0.8445724
   19  -0.3678920   0.2784053  -0.4827779
   20   0.2223074  -0.4861163   0.5299046
   21  -0.4730496   0.6412024  -1.2034775
   22  -0.7002642   0.0050515  -0.6888717
   23   0.0857124  -0.1605472   0.1227052
   24  -0.8545025   0.0250088  -1.1834796
   25  -0.7554081  -0.8787731   0.0731999
   26  -0.6032932  -1.0880861   0.0858827
   27   0.1137736   0.1756004  -0.1934498
   28  -1.1237799   0.2961196   0.7210480
   29   0.2433495  -0.2467824  -0.1925118
   30   0.6476812  -0.2051500  -0.6290767
   31  -0.7356144   0.5515446   0.5144675
   32   0.6091471  -0.7238750  -0.5411844
   33   0.3879560  -0.3646287  -0.4677306
 -----------------------------------------
 Net:  -0.00000  -0.00000  -0.00000
 -----------------------------------------

 Calculating analytic Hessian of the SCF energy
