                  Welcome to Q-Chem
     A Quantum Leap Into The Future Of Chemistry


 Q-Chem 5.4 (devel), Q-Chem, Inc., Pleasanton, CA (2021)

 E. Epifanovsky,  A. T. B. Gilbert,  Xintian Feng,  Joonho Lee,  Yuezhi Mao,  
 N. Mardirossian,  P. Pokhilko,  A. White,  M. Wormit,  M. P. Coons,  
 A. L. Dempwolff,  Zhengting Gan,  D. Hait,  P. R. Horn,  L. D. Jacobson,  
 I. Kaliman,  J. Kussmann,  A. W. Lange,  Ka Un Lao,  D. S. Levine,  Jie Liu,  
 S. C. McKenzie,  A. F. Morrison,  K. Nanda,  F. Plasser,  D. R. Rehn,  
 M. L. Vidal,  Zhi-Qiang You,  Ying Zhu,  B. Alam,  B. Albrecht,  
 A. Aldossary,  E. Alguire,  J. H. Andersen,  D. Barton,  K. Begam,  A. Behn,  
 Y. A. Bernard,  E. J. Berquist,  H. Burton,  A. Carreras,  K. Carter-Fenk,  
 R. Chakraborty,  A. D. Chien,  K. D. Closser,  V. Cofer-Shabica,  
 S. Dasgupta,  Jia Deng,  M. de Wergifosse,  M. Diedenhofen,  Hainam Do,  
 S. Ehlert,  Po-Tung Fang,  S. Fatehi,  Qingguo Feng,  T. Friedhoff,  
 J. Gayvert,  Qinghui Ge,  G. Gidofalvi,  M. Goldey,  J. Gomes,  
 C. Gonzalez-Espinoza,  S. Gulania,  A. Gunina,  M. W. D. Hanson-Heine,  
 P. H. P. Harbach,  A. W. Hauser,  M. F. Herbst,  M. Hernandez Vera,  
 M. Hodecker,  Z. C. Holden,  S. Houck,  Xunkun Huang,  Kerwin Hui,  
 B. C. Huynh,  M. Ivanov,  Hyunjun Ji,  Hanjie Jiang,  B. Kaduk,  S. Kaehler,  
 K. Khistyaev,  Jaehoon Kim,  P. Klunzinger,  Z. Koczor-Benda,  
 Joong Hoon Koh,  D. Kosenkov,  L. Koulias,  T. Kowalczyk,  C. M. Krauter,  
 K. Kue,  A. Kunitsa,  T. Kus,  A. Landau,  K. V. Lawler,  D. Lefrancois,  
 S. Lehtola,  Rain Li,  Yi-Pei Li,  Jiashu Liang,  M. Liebenthal,  
 Hung-Hsuan Lin,  You-Sheng Lin,  Fenglai Liu,  Kuan-Yu Liu,  
 M. Loipersberger,  A. Luenser,  A. Manjanath,  P. Manohar,  E. Mansoor,  
 S. F. Manzer,  Shan-Ping Mao,  A. V. Marenich,  T. Markovich,  S. Mason,  
 S. A. Maurer,  P. F. McLaughlin,  M. F. S. J. Menger,  J.-M. Mewes,  
 S. A. Mewes,  P. Morgante,  J. W. Mullinax,  K. J. Oosterbaan,  G. Paran,  
 Alexander C. Paul,  Suranjan K. Paul,  F. Pavosevic,  Zheng Pei,  S. Prager,  
 E. I. Proynov,  E. Ramos,  B. Rana,  A. E. Rask,  A. Rettig,  R. M. Richard,  
 F. Rob,  E. Rossomme,  T. Scheele,  M. Scheurer,  M. Schneider,  
 N. Sergueev,  S. M. Sharada,  W. Skomorowski,  D. W. Small,  C. J. Stein,  
 Yu-Chuan Su,  E. J. Sundstrom,  Zhen Tao,  J. Thirman,  T. Tsuchimochi,  
 N. M. Tubman,  S. P. Veccham,  O. Vydrov,  J. Wenzel,  J. Witte,  A. Yamada,  
 Kun Yao,  S. Yeganeh,  S. R. Yost,  A. Zech,  Igor Ying Zhang,  Xing Zhang,  
 Yu Zhang,  D. Zuev,  A. Aspuru-Guzik,  A. T. Bell,  N. A. Besley,  
 K. B. Bravaya,  B. R. Brooks,  D. Casanova,  Jeng-Da Chai,  S. Coriani,  
 C. J. Cramer,  A. E. DePrince, III,  R. A. DiStasio Jr.,  A. Dreuw,  
 B. D. Dunietz,  T. R. Furlani,  W. A. Goddard III,  S. Grimme,  
 S. Hammes-Schiffer,  T. Head-Gordon,  W. J. Hehre,  Chao-Ping Hsu,  
 T.-C. Jagau,  Yousung Jung,  A. Klamt,  Jing Kong,  D. S. Lambrecht,  
 WanZhen Liang,  N. J. Mayhall,  C. W. McCurdy,  J. B. Neaton,  
 C. Ochsenfeld,  J. A. Parkhill,  R. Peverati,  V. A. Rassolov,  Yihan Shao,  
 L. V. Slipchenko,  T. Stauch,  R. P. Steele,  J. E. Subotnik,  
 A. J. W. Thom,  A. Tkatchenko,  D. G. Truhlar,  T. Van Voorhis,  
 T. A. Wesolowski,  K. B. Whaley,  H. L. Woodcock III,  P. M. Zimmerman,  
 S. Faraji,  P. M. W. Gill,  M. Head-Gordon,  J. M. Herbert,  A. I. Krylov

 Additional authors for Version 5.4.1: 
 S. Kotaru,  Shaozhi Li,  Xiangyuan Li,  F. Matz,  A. Molle,  Haisheng Ren,  
 Yingli Su,  Hung-Yi Tsai,  C. Utku,  Fang Wang

 Contributors to earlier versions of Q-Chem not listed above: 
 R. D. Adamson,  B. Austin,  R. Baer,  J. Baker,  G. J. O. Beran,  
 K. Brandhorst,  S. T. Brown,  E. F. C. Byrd,  A. K. Chakraborty,  
 G. K. L. Chan,  Chun-Min Chang,  Yunqing Chen,  C.-L. Cheng,  
 Siu Hung Chien,  D. M. Chipman,  D. L. Crittenden,  H. Dachsel,  
 R. J. Doerksen,  A. D. Dutoi,  R. G. Edgar,  J. Fosso-Tande,  
 L. Fusti-Molnar,  D. Ghosh,  A. Ghysels,  A. Golubeva-Zadorozhnaya,  
 J. Gonthier,  M. S. Gordon,  S. R. Gwaltney,  G. Hawkins,  J. E. Herr,  
 A. Heyden,  S. Hirata,  E. G. Hohenstein,  G. Kedziora,  F. J. Keil,  
 C. Kelley,  Jihan Kim,  R. A. King,  R. Z. Khaliullin,  P. P. Korambath,  
 W. Kurlancheek,  A. Laurent,  A. M. Lee,  M. S. Lee,  S. V. Levchenko,  
 Ching Yeh Lin,  D. Liotard,  E. Livshits,  R. C. Lochan,  I. Lotan,  
 L. A. Martinez-Martinez,  P. E. Maslen,  N. Nair,  D. P. O'Neill,  
 D. Neuhauser,  E. Neuscamman,  C. M. Oana,  R. Olivares-Amaya,  R. Olson,  
 T. M. Perrine,  B. Peters,  P. A. Pieniazek,  A. Prociuk,  Y. M. Rhee,  
 J. Ritchie,  M. A. Rohrdanz,  E. Rosta,  N. J. Russ,  H. F. Schaefer III,  
 M. W. Schmidt,  N. E. Schultz,  S. Sharma,  N. Shenvi,  C. D. Sherrill,  
 A. C. Simmonett,  A. Sodt,  T. Stein,  D. Stuck,  K. S. Thanthiriwatte,  
 V. Vanovschi,  L. Vogt,  Tao Wang,  A. Warshel,  M. A. Watson,  
 C. F. Williams,  Q. Wu,  X. Xu,  Jun Yang,  W. Zhang,  Yan Zhao

 Please cite Q-Chem as follows:
 Y. Shao et al., Mol. Phys. 113, 184-215 (2015)
 DOI: 10.1080/00268976.2014.952696

 Q-Chem 5.4.1 for Intel X86 EM64T Linux

 Parts of Q-Chem use Armadillo 9.900.5 (Nocturnal Misbehaviour).
 http://arma.sourceforge.net/

 Q-Chem begins on Fri Jul  1 20:00:03 2022  

 Host: p09r14n09.grace.hpc.yale.internal
0

     Scratch files written to /home/tl686/scratch60/qchem_dev/scratch/qchem8574//
 Processing $rem in /home/tl686/qchem_dev/qchem/config/preferences:
 Processing $rem in /home/tl686/.qchemrc:
Applying user defined connections for MM calculations

 Checking the input file for inconsistencies... 	...done.

--------------------------------------------------------------
User input:
--------------------------------------------------------------
$molecule
0   1
 Fe 381.60508681 39.64274515 61.11031002    -1  0   0   0   0
C 380.79094401 36.68931879 59.92991131    -2  0   0   0   0 
C 382.19557658 42.58357371 62.80045995    -2  0   0   0   0
C 384.62359257 38.46765898 61.98737172    -2  0   0   0   0
C 381.05825163 41.07116633 57.90184623    -2  0   0   0   0
C 378.70394742 39.30602137 62.88681300    -2  0   0   0   0
O 379.84225480 34.84097661 59.15288159    -3  0   0   0   0
O 382.49986919 44.52389408 63.79694586    -3  0   0   0   0 
O 386.34232022 37.38307879 62.91390566    -3  0   0   0   0
O 380.87079319 41.85419729 55.82097224    -3  0   0   0   0 
O 376.90657872 38.89073902 64.08746894    -3  0   0   0   0
H 387.92684189 13.28485250 49.17642705      6     13    0    0    0 
C 388.18783931 12.74984633 47.14371941     1     12    14    15    16
H 389.71398049 11.32130788 46.75186813     6     13    0    0    0
H 386.43868186 11.88700065 46.56001664     6     13    0    0    0
C 388.81421989 15.32196102 45.81128632     2     13    17    18    19
H 390.74663958 15.56111327 45.98823575     6     16    0    0    0
H 388.24764799 14.97584684 43.84498214     6     16    0    0    0
C 387.22072995 17.66613584 46.76739448     2     16    20   21   22
H 385.31474104 17.25884977 46.86432916     6     19    0    0    0
H 387.83738832 18.28040672 48.70379603     6     19    0    0    0
C 387.80268139 19.96319568 45.13245767     2     19   23   24   25
H 389.77440110 20.59634419 45.18886333     6    22    0    0    0
H 387.56320518 19.16392023 43.23954197     6    22    0    0    0
C 386.09749278 22.21050868 45.69288643     2    22   26   27   28
H 384.13042546 21.68940823 45.61533297     6    25    0    0    0
H 386.43196181 23.03707693 47.50647332     6    25    0    0    0
C 386.10513465 24.19907468 43.53220955     2    25   29   30   31
H 387.60424708 25.70593224 43.73990530     6    28    0    0    0
H 386.30023470 23.47086949 41.63932887     6    28    0    0    0
C 383.53513724 25.42577239 43.20631586     2    28   32   33   34
H 381.94828297 24.03869553 43.55682640     6    31    0    0    0
H 383.53702523 26.78630495 44.73727775     6    31    0    0    0
C 383.16298284 26.78617694 40.63311730     2    31   35   36   37
H 384.57874248 28.27763218 40.27150473     6    34    0    0    0
H 383.63087800 25.35888631 39.08203425     6    34    0    0    0
C 380.65171753 27.94390886 40.65979240     2    34   38   39   40
H 379.28615111 26.44696784 41.37550134     6    37    0    0    0
H 380.58234542 29.35348906 42.11618719     6    37    0    0    0
C 379.82625768 28.95817598 38.00413572     2    37   41   42   43
H 380.54995269 30.87107545 37.47977335     6    40    0    0    0
H 380.29354354 27.57257350 36.45761931     6    40    0    0    0
C 377.04311279 29.52467079 38.10014920     2    40   44   45   46
H 376.04963201 27.78302488 38.45005750     6    43    0    0    0
H 376.75763868 30.59920964 39.65232552     6    43    0    0    0
C 375.95732183 30.54894476 35.49588967     1    43   47   48   49
H 376.98198555 32.15497485 34.74779105     6    46    0    0    0
H 374.00244312 31.20923843 35.59175399     6    46    0    0    0
H 376.10096660 28.92174490 33.98464225     6    46    0    0    0
H 376.48917457 31.46180791 51.56948861     6     51    0    0    0 
C 376.49591031 32.72011570 49.94906076     1     50    52    53    54
H 374.62715692 32.19806405 49.35340499     6     51    0    0    0
H 376.49744499 34.67366471 50.76271526     6     51    0    0    0
C 378.59811839 31.92744484 48.07749708     2     51    55    56    57
H 380.29147657 31.58982048 49.21584549     6     54    0    0    0
H 377.95325263 30.13661846 47.21453652     6     54    0    0    0
C 379.24716323 33.55845059 45.76137283     2     54    58   59   60
H 380.00989746 35.30620224 46.45304603     6     57    0    0    0
H 380.62947635 32.61823550 44.56975023     6     57    0    0    0
C 376.78076156 34.05585703 44.00754455     2     57   61   62   63
H 376.10148783 32.16399116 43.45572662     6    60    0    0    0
H 375.30711574 34.81708710 44.93229900     6    60    0    0    0
C 377.25286245 35.72671413 41.66380744     2    60   64   65   66
H 377.70879058 37.59601914 42.23182055     6    63    0    0    0
H 378.92477862 35.21749651 40.46689968     6    63    0    0    0
C 374.94022377 35.91775471 39.90000123     2    63   67   68   69
H 375.74494836 36.52089555 38.10565594     6    66    0    0    0
H 374.07176834 33.99424014 39.58958767     6    66    0    0    0
C 372.87836636 37.87077728 40.49824825     2    66   70   71   72
H 372.09385653 37.62068054 42.34451345     6    69    0    0    0
H 373.62057136 39.68507622 40.94599507     6    69    0    0    0
C 370.81065239 37.73213711 38.53995226     2    69   73   74   75
H 371.59675206 38.40244683 36.68944752     6    72    0    0    0
H 370.27519230 35.78367731 38.32245784     6    72    0    0    0
C 368.31089533 39.13575043 39.15131303     2    72   76   77   78
H 367.39995130 38.25063546 40.72049456     6    75    0    0    0
H 368.89505205 40.98915475 39.86621918     6    75    0    0    0
C 366.52424906 39.17763557 36.87106391     2    75   79   80   81
H 367.44516770 39.65565164 35.10001294     6    78    0    0    0
H 365.75124747 37.24135657 36.58431789     6    78    0    0    0
C 364.51073538 41.05571641 37.31103876     2    78   82   83   84
H 363.30753824 40.62926546 38.86873965     6    81    0    0    0
H 365.41693321 42.77665034 37.92269703     6    81    0    0    0
C 362.97995863 41.83088726 35.09210891     1    81   85   86   87
H 361.61115959 43.13909272 35.60504151     6    84    0    0    0
H 362.19618446 40.13033745 34.21873034     6    84    0    0    0
H 364.48491018 42.59856195 33.69977036     6    84    0    0    0
H 409.88257065 42.58481357 37.93808070     6     89    0    0    0 
C 407.98159108 42.65818758 37.42390884     1     88    90    91    92
H 407.02346666 43.14519782 39.15735526     6     89    0    0    0
H 407.74734185 43.96183905 35.94352094     6     89    0    0    0
C 407.18133546 40.08969487 36.54939445     2     89    93    94    95
H 408.02916259 39.66393262 34.64466126     6     92    0    0    0
H 408.12160371 38.64796500 37.92965360     6     92    0    0    0
C 404.27606976 39.70942488 36.32637555     2     92    96   97   98
H 403.64538960 39.04098024 38.11835789     6     95    0    0    0
H 403.47049813 41.52251572 35.89104765     6     95    0    0    0
C 403.40673977 37.92277396 34.19733303     2     95   99   100   101
H 403.39355868 38.67280441 32.31735672     6    98    0    0    0
H 404.80895960 36.33817030 34.35773493     6    98    0    0    0
C 400.79337697 36.71632175 34.60876893     2    98   102   103   104
H 400.44221047 36.38221025 36.63334522     6    101    0    0    0
H 399.40792169 38.24959857 34.11124802     6    101    0    0    0
C 400.61998710 34.06767180 33.21031788     2    101   105   106   107
H 401.11893349 34.08010295 31.24994022     6    104    0    0    0
H 401.82581800 32.72400919 34.26127712     6    104    0    0    0
C 397.93723984 33.31674571 33.29074350     2    104   108   109   110
H 396.99893241 33.61308911 35.14391903     6    107    0    0    0
H 397.18044856 34.51309307 31.89931050     6    107    0    0    0
C 397.83186548 30.67109255 32.47912269     2    107   111   112   113
H 398.87821975 30.16587594 30.81588335     6    110    0    0    0
H 398.83085295 29.46672091 33.87569102     6    110    0    0    0
C 395.11045060 29.81587502 31.81939194     2    110   114   115   116
H 393.68885640 30.01723151 33.30995070     6    113    0    0    0
H 394.56453361 30.92538291 30.26647250     6    113    0    0    0
C 394.81285000 27.07611539 30.82879249     2    113   117   118   119
H 395.13198606 26.89575922 28.83397143     6    116    0    0    0
H 396.12725928 25.86814265 31.84201651     6    116    0    0    0
C 392.09997451 25.97683374 30.95999721     2    116   120   121   122
H 391.30468588 26.16683986 32.86500571     6    119    0    0    0
H 390.81042731 27.26641790 29.92050053     6    119    0    0    0
C 391.95586784 23.17793623 30.32762233     1    119   123   124   125
H 389.94318437 22.78766703 30.05126637     6    122    0    0    0
H 392.72457348 21.80151716 31.64512219     6    122    0    0    0
H 392.81975342 23.03980696 28.50540030     6    122    0    0    0
H 407.28783238 35.18338540 46.66646113     6     127    0    0    0 
C 405.62533873 35.84816742 47.52825032     1     126    128    129    130
H 405.90780400 37.86008863 47.38844501     6     127    0    0    0
H 404.13048621 35.10994348 46.31803615     6     127    0    0    0
C 405.60641301 34.88971283 50.37788723     2     127    131    132    133
H 404.73564192 33.13180785 50.51143561     6     130    0    0    0
H 407.58615409 34.94422324 51.11998850     6     130    0    0    0
C 404.10508893 36.42222588 52.30002847     2     130    134   135   136
H 405.34869994 37.99243883 52.77216608     6     133    0    0    0
H 402.55402578 37.53840949 51.46626325     6     133    0    0    0
C 403.23180176 35.03364241 54.57897758     2     133   137   138   139
H 401.58146067 34.02206124 53.90299895     6    136    0    0    0
H 404.60974511 33.57659294 55.07119439     6    136    0    0    0
C 402.56871369 36.69390883 56.78217729     2    136   140   141   142
H 404.36188410 37.46896090 57.15588871     6    139    0    0    0
H 401.45756928 38.30457279 56.03231056     6    139    0    0    0
C 401.39543960 35.49475862 59.18786610     2    139   143   144   145
H 399.76751369 34.58581298 58.85535740     6    142    0    0    0
H 402.64537209 34.02050222 59.77192549     6    142    0    0    0
C 400.78716314 37.46426269 61.20004791     2    142   146   147   148
H 402.53357863 38.05557753 62.05949836     6    145    0    0    0
H 400.10678546 39.21965233 60.39826202     6    145    0    0    0
C 398.85702231 36.42475621 63.39784644     2    145   149   150   151
H 397.29113316 35.70177050 62.35183380     6    148    0    0    0
H 399.75411166 34.87895056 64.41552146     6    148    0    0    0
C 397.87328546 38.40776918 65.05028178     2    148   152   153   154
H 399.30959779 39.90554740 65.28735844     6    151    0    0    0
H 396.38209551 39.51085612 64.08536918     6    151    0    0    0
C 396.85153935 37.46940961 67.65332868     2    151   155   156   157
H 396.38182581 39.10604297 68.79573929     6    154    0    0    0
H 395.01986544 36.51471191 67.34555979     6    154    0    0    0
C 398.71737739 35.93364762 69.19043480     2    154   158   159   160
H 399.17919230 34.09102601 68.35510569     6    157    0    0    0
H 400.43606282 37.10777152 69.55688449     6    157    0    0    0
C 397.45736588 35.05286331 71.60215457     1    157   161   162   163
H 396.62842329 36.60596948 72.75615589     6    160    0    0    0
H 398.75727723 33.85285655 72.69230982     6    160    0    0    0
H 395.79064165 33.88184035 71.15864049     6    160    0    0    0
H 405.19234717 63.27817191 29.62827000     6     165    0    0    0 
C 406.47050265 63.15172936 31.26147114     1     164    166    167    168
H 407.29965568 61.29396204 31.59472333     6     165    0    0    0
H 407.87332446 64.63822693 30.86401269     6     165    0    0    0
C 404.82282832 63.91665842 33.53612374     2     165    169    170    171
H 403.83370240 65.63142526 33.26383310     6     168    0    0    0
H 403.11758702 62.69870682 33.65119204     6     168    0    0    0
C 406.43082064 63.96040836 36.00790826     2     168    172   173   174
H 407.59836569 62.28443444 36.10624884     6     171    0    0    0
H 407.68611555 65.49844389 35.98088029     6     171    0    0    0
C 404.79052473 64.13462254 38.46684866     2     171   175   176   177
H 403.29475952 65.59883153 38.01944763     6    174    0    0    0
H 403.79510832 62.44614630 38.64875682     6    174    0    0    0
C 406.68604726 64.61788473 40.61103926     2    174   178   179   180
H 408.71235447 64.26043018 40.30193452     6    177    0    0    0
H 406.63559462 66.65173316 41.01067507     6    177    0    0    0
C 405.89409217 63.14591431 43.00081136     2    177   181   182   183
H 404.15664250 63.77167351 43.86890202     6    180    0    0    0
H 405.66833809 61.08834151 42.75635547     6    180    0    0    0
C 407.84818221 63.63295902 45.14211279     2    180   184   185   186
H 409.63206943 62.95524383 44.54330815     6    183    0    0    0
H 408.03830423 65.72750097 45.32464308     6    183    0    0    0
C 407.18861158 62.45477564 47.63129608     2    183   187   188   189
H 405.51296302 63.46946798 48.24344130     6    186    0    0    0
H 406.91483701 60.43943363 47.54816632     6    186    0    0    0
C 409.11924395 63.28142900 49.64310553     2    186   190   191   192
H 410.91152608 62.68768348 49.01743740     6    189    0    0    0
H 408.78546361 65.27851459 49.79594605     6    189    0    0    0
C 408.70474261 62.19351317 52.25357832     2    189   193   194   195
H 407.01885811 62.85926187 53.12966104     6    192    0    0    0
H 408.45626806 60.15251718 52.04577330     6    192    0    0    0
C 411.02940196 62.63420416 54.01078913     2    192   196   197   198
H 412.39553179 61.07211536 53.65173477     6    195    0    0    0
H 411.94021757 64.31653168 53.55706027     6    195    0    0    0
C 410.47723570 62.49806364 56.83517902     1    195   199   200   201
H 412.29390723 62.78325290 57.88757229     6    198    0    0    0
H 409.65326656 60.61897765 57.25649306     6    198    0    0    0
H 409.26525643 63.98405391 57.47559534     6    198    0    0    0
H 389.43494389 73.04954514 36.49795403     6     203    0    0    0 
C 388.85212430 71.13678335 35.97298029     1     202    204    205    206
H 389.74539130 70.81431700 34.10255763     6     203    0    0    0
H 389.64391194 69.57439355 37.11096615     6     203    0    0    0
C 385.96873954 70.66158449 36.14452258     2     203    207    208    209
H 385.03506627 71.94878897 34.92594125     6     206    0    0    0
H 385.66686380 68.77381147 35.45788674     6     206    0    0    0
C 385.30652032 70.91213255 38.90953578     2     206    210   211   212
H 386.65150236 70.22085933 40.24358500     6     209    0    0    0
H 385.27823838 72.95937271 39.33613493     6     209    0    0    0
C 382.89794711 69.31488310 39.48080240     2     209   213   214   215
H 381.36536897 70.04013847 38.21330069     6    212    0    0    0
H 383.16485354 67.39008534 38.88317254     6    212    0    0    0
C 382.10072319 69.41028201 42.25470661     2    212   216   217   218
H 383.38577730 68.12908201 43.23161847     6    215    0    0    0
H 382.48625984 71.35099775 43.00234713     6    215    0    0    0
C 379.22686423 69.18374443 42.75847017     2    215   219   220   221
H 378.22893855 70.66678804 41.62136446     6    218    0    0    0
H 378.66974339 67.29962323 41.99586131     6    218    0    0    0
C 378.36502595 69.10336260 45.50573262     2    218   222   223   224
H 379.48455822 67.84654634 46.56480940     6    221    0    0    0
H 378.63228872 70.99231841 46.33975741     6    221    0    0    0
C 375.68209274 68.09212533 45.71142866     2    221   225   226   227
H 374.49959408 69.60497521 44.94887161     6    224    0    0    0
H 375.54887923 66.33778401 44.69669049     6    224    0    0    0
C 374.71660030 67.57623944 48.31930225     2    224   228   229   230
H 376.09513799 66.59848644 49.40597352     6    227    0    0    0
H 374.65821524 69.36322905 49.32734099     6    227    0    0    0
C 372.18441155 66.27069653 48.07003808     2    227   231   232   233
H 371.05468841 67.00322398 46.50380328     6    230    0    0    0
H 372.79135671 64.33356377 47.66187103     6    230    0    0    0
C 370.57665387 66.26477260 50.36676939     2    230   234   235   236
H 371.58823211 65.14838046 51.85427797     6    233    0    0    0
H 370.36995960 68.09751437 51.08356680     6    233    0    0    0
C 367.92260857 65.19532062 49.85321429     1    233   237   238   239
H 366.95850532 65.42116462 51.74061550     6    236    0    0    0
H 367.92710447 63.26858518 49.34770100     6    236    0    0    0
H 366.78984293 66.34046258 48.48076752     6    236    0    0    0
H 378.82740710 35.15703389 24.85144776     6     241    0    0    0 
C 378.54423563 35.19908767 26.95727741     1     240    242    243    244
H 379.01482747 33.26115451 27.51479415     6     241    0    0    0
H 379.82397151 36.60226845 27.63223160     6     241    0    0    0
C 375.81725028 35.61220900 27.66651483     2     241    245    246    247
H 375.31424165 37.58001240 27.41122855     6     244    0    0    0
H 374.55399594 34.69434220 26.42373366     6     244    0    0    0
C 375.32575187 34.91744389 30.48467809     2     244    248   249   250
H 375.46016721 32.77039026 30.75469385     6     247    0    0    0
H 376.79103344 35.58271182 31.90299746     6     247    0    0    0
C 372.58803001 35.41781908 31.29532751     2     247   251   252   253
H 372.56798539 34.88656120 33.27905197     6    250    0    0    0
H 372.12634590 37.51850287 31.39738953     6    250    0    0    0
C 370.58639789 33.95523183 30.03675259     2    250   254   255   256
H 370.68235514 34.22747779 28.01868057     6    253    0    0    0
H 370.91116066 31.86473723 30.53750993     6    253    0    0    0
C 367.91437886 34.71305061 31.13964989     2    253   257   258   259
H 367.89809813 34.34883662 33.21483579     6    256    0    0    0
H 367.63153760 36.75427100 31.09772991     6    256    0    0    0
C 365.65835861 33.08120527 30.33767024     2    256   260   261   262
H 365.29412842 33.22492340 28.29619529     6    259    0    0    0
H 365.91732678 31.00102910 30.69106784     6    259    0    0    0
C 363.17196952 33.75981415 31.71765795     2    259   263   264   265
H 363.55593818 33.59675398 33.70382608     6    262    0    0    0
H 362.44115266 35.70437778 31.37122266     6    262    0    0    0
C 360.86351734 32.08372555 30.90930214     2    262   266   267   268
H 360.94187389 32.09964705 28.88736855     6    265    0    0    0
H 361.15942966 30.21271333 31.67249249     6    265    0    0    0
C 358.21905177 33.20671707 31.88791215     2    265   269   270   271
H 358.24925226 32.45643149 33.77399641     6    268    0    0    0
H 358.16554539 35.28636410 31.95377679     6    268    0    0    0
C 355.94496981 31.94826070 30.47334413     2    268   272   273   274
H 355.95216002 32.15791854 28.45140233     6    271    0    0    0
H 356.21428759 29.91665694 30.79258249     6    271    0    0    0
C 353.51607787 32.85447433 31.71726396     1    271   275   276   277
H 353.78399591 32.58762212 33.78610253     6    274    0    0    0
H 351.86782844 31.64488536 31.36509400     6    274    0    0    0
H 353.04978116 34.74122673 31.24444534     6    274    0    0    0
H 401.05939903 54.84989183 32.02034458     6     279    0    0    0 
C 399.68824211 53.36121479 31.68669158     1     278    280    281    282
H 399.05316741 53.54083791 29.75187782     6     279    0    0    0
H 400.54902610 51.64641483 32.14127438     6     279    0    0    0
C 397.63560680 53.78952207 33.58361231     2     279    283    284    285
H 398.41565135 53.64649579 35.48256413     6     282    0    0    0
H 396.92066285 55.68040741 33.36812701     6     282    0    0    0
C 395.29724067 52.13746873 33.05068904     2     282    286   287   288
H 394.80243088 52.36239609 31.16759213     6     285    0    0    0
H 395.65134229 50.07353995 33.36850651     6     285    0    0    0
C 393.00111595 52.99722726 34.57818380     2     285   289   290   291
H 393.38593849 52.75753566 36.56726660     6    288    0    0    0
H 392.62134276 54.98732800 34.19484034     6    288    0    0    0
C 390.51332317 51.59268853 33.79525763     2    288   292   293   294
H 389.90576871 52.38054684 31.98798463     6    291    0    0    0
H 390.97180555 49.66212044 33.37914836     6    291    0    0    0
C 388.41593209 51.64784424 35.80029316     2    291   295   296   297
H 388.81825376 50.17858861 37.10099973     6    294    0    0    0
H 388.22029509 53.45793627 36.71488518     6    294    0    0    0
C 385.89604427 50.80178345 34.57898528     2    294   298   299   300
H 385.39429677 52.31994636 33.27841591     6    297    0    0    0
H 386.31468994 48.97895807 33.70115162     6    297    0    0    0
C 383.87349289 50.41220011 36.61948563     2    297   301   302   303
H 384.17466013 48.66399425 37.60328757     6    300    0    0    0
H 384.14289317 51.90496154 37.93770230     6    300    0    0    0
C 381.22970482 50.49604608 35.33964128     2    300   304   305   306
H 381.38245055 51.42356124 33.48876082     6    303    0    0    0
H 380.41205453 48.66763640 35.04471662     6    303    0    0    0
C 379.30779205 51.97436853 36.96183465     2    303   307   308   309
H 378.49814888 50.98839339 38.66085927     6    306    0    0    0
H 380.10745722 53.73336614 37.82588424     6    306    0    0    0
C 377.20463751 52.89431076 35.39710182     2    306   310   311   312
H 377.76095561 54.35431810 34.15843827     6    309    0    0    0
H 376.58284388 51.33597702 34.18065139     6    309    0    0    0
C 375.25091329 53.98374166 37.06992601     1    309   313   314   315
H 373.71604259 54.83309322 36.08201651     6    312    0    0    0
H 375.96566133 55.60307944 38.16820110     6    312    0    0    0
H 374.64428795 52.51123262 38.45357877     6    312    0    0    0
H 400.38307908 38.86663054 40.88139285     6     317    0    0    0 
C 398.61127959 39.82193174 40.73964610     1     316    318    319    320
H 399.36699084 41.75413376 41.13012352     6     317    0    0    0
H 397.89754727 39.82767247 38.72645870     6     317    0    0    0
C 396.71292622 38.58648761 42.64890806     2     317    321    322    323
H 394.96067926 39.90198362 42.74441826     6     320    0    0    0
H 395.98229977 36.77657756 41.88002672     6     320    0    0    0
C 397.73502325 37.93572350 45.28120798     2     320    324   325   326
H 399.43460744 36.66146931 45.03773822     6     323    0    0    0
H 398.41249922 39.60520318 46.10448922     6     323    0    0    0
C 395.80400510 36.86883057 47.14962611     2     323   327   328   329
H 394.31471609 38.08984848 47.35670428     6    326    0    0    0
H 395.00943521 35.08203980 46.56369204     6    326    0    0    0
C 396.99127973 36.39940283 49.63605024     2    326   330   331   332
H 398.64824531 35.20196658 49.17896689     6    329    0    0    0
H 397.79932445 38.21377106 50.21232095     6    329    0    0    0
C 395.41073523 35.34059710 51.90255553     2    329   333   334   335
H 394.75691777 33.42248732 51.42715011     6    332    0    0    0
H 396.78347799 34.96295471 53.29147407     6    332    0    0    0
C 393.34338950 36.95917674 53.03097056     2    332   336   337   338
H 393.97731142 38.72061421 53.95322256     6    335    0    0    0
H 392.00649531 37.36157213 51.50154606     6    335    0    0    0
C 391.99947284 35.40827123 55.13863433     2    335   339   340   341
H 390.19271913 36.14775823 55.87427799     6    338    0    0    0
H 391.27972346 33.66976296 54.43201571     6    338    0    0    0
C 393.71860441 34.92882185 57.39006467     2    338   342   343   344
H 395.58826587 33.93499331 56.96016009     6    341    0    0    0
H 394.43538298 36.88571549 58.05885893     6    341    0    0    0
C 392.20975788 33.59225265 59.53614414     2    341   345   346   347
H 393.24775837 33.47305165 61.17293660     6    344    0    0    0
H 390.81055857 34.81248181 60.18027600     6    344    0    0    0
C 391.41507891 30.88319098 59.08827595     2    344   348   349   350
H 389.97459920 30.55663614 57.71174663     6    347    0    0    0
H 392.90961612 29.61876293 58.48937757     6    347    0    0    0
C 390.68227550 29.66174415 61.50654527     1    347   351   352   353
H 392.06917698 30.29422982 62.89297844     6    350    0    0    0
H 390.84800350 27.58556130 61.52946630     6    350    0    0    0
H 388.87584193 30.46067247 62.16846409     6    350    0    0    0
H 378.72747076 39.74276414 32.67506282     6     355    0    0    0 
C 379.79479716 39.47183132 34.39417897     1     354    356    357    358
H 378.52449462 38.90310075 35.80969478     6     355    0    0    0
H 380.94176891 37.88368509 33.93448863     6     355    0    0    0
C 381.40200242 41.81948013 34.97639517     2     355    359    360    361
H 382.32523247 42.38139198 33.15782871     6     358    0    0    0
H 380.26170959 43.36573736 35.55849833     6     358    0    0    0
C 383.54408559 40.99528123 36.94824876     2     358    362   363   364
H 382.81942344 40.42181966 38.67713293     6     361    0    0    0
H 384.58699017 39.35130027 36.32590179     6     361    0    0    0
C 385.45869087 43.15569942 37.11333180     2     361   365   366   367
H 385.68891177 43.61490074 35.18527447     6    364    0    0    0
H 384.50295191 44.78953269 38.11431769     6    364    0    0    0
C 388.03445438 42.31569634 38.10723128     2    364   368   369   370
H 387.90804953 42.19968760 40.11119819     6    367    0    0    0
H 388.70128571 40.51668420 37.54145791     6    367    0    0    0
C 390.19638326 44.20395359 37.22643969     2    367   371   372   373
H 390.86021732 43.74008709 35.45782751     6    370    0    0    0
H 389.26602457 45.98996934 36.75052454     6    370    0    0    0
C 392.46336943 44.47133635 38.95050136     2    370   374   375   376
H 391.93877424 45.43122683 40.63522392     6    373    0    0    0
H 393.31810050 42.69215868 39.47393217     6    373    0    0    0
C 394.62778907 46.03290383 37.85780009     2    373   377   378   379
H 395.48029215 45.24321495 36.10360122     6    376    0    0    0
H 393.62032045 47.75594606 37.33481116     6    376    0    0    0
C 396.89605086 46.80097017 39.50016426     2    376   380   381   382
H 396.35005744 47.01043941 41.52037041     6    379    0    0    0
H 398.26327723 45.30767822 39.35126858     6    379    0    0    0
C 398.40548963 48.97543975 38.41193803     2    379   383   384   385
H 398.96026588 48.89076970 36.45437118     6    382    0    0    0
H 397.08901344 50.56738259 38.74840333     6    382    0    0    0
C 400.90197130 49.04194559 40.01874670     2    382   386   387   388
H 401.43357512 51.09973571 40.41825267     6    385    0    0    0
H 400.44186632 48.02532587 41.75083294     6    385    0    0    0
C 403.00639168 47.85168053 38.55486770     1    385   389   390   391
H 403.15313450 48.70237444 36.68023246     6    388    0    0    0
H 402.82082877 45.75609356 38.21611379     6    388    0    0    0
H 404.76472425 48.17192268 39.44847820     6    388    0    0    0
H 378.09509917 26.40470764 81.11824220     6     393    0    0    0 
C 376.97497896 27.55667734 79.97183811     1     392    394    395    396
H 375.48369397 28.36437733 81.12275034     6     393    0    0    0
H 378.13756613 28.90272404 78.96624081     6     393    0    0    0
C 375.65520873 25.96446256 77.98238163     2     393    397    398    399
H 377.00957428 24.82886795 76.82939776     6     396    0    0    0
H 374.58046478 24.54375588 79.14184126     6     396    0    0    0
C 373.81266840 27.58199495 76.32156366     2     396    400   401   402
H 372.18831248 28.46998932 77.21385259     6     399    0    0    0
H 375.16955064 29.05555958 75.69094866     6     399    0    0    0
C 372.77767657 25.83270600 74.40948202     2     399   403   404   405
H 374.29422411 25.07338843 73.22191227     6    402    0    0    0
H 371.71710835 24.14863615 75.22751440     6    402    0    0    0
C 370.83392235 27.22960147 72.83148233     2    402   406   407   408
H 369.25843101 27.75667136 73.93491255     6    405    0    0    0
H 371.62668869 28.89963382 72.02584373     6    405    0    0    0
C 369.93190355 25.61424185 70.57738379     2    405   409   410   411
H 371.39935195 25.10970672 69.31827904     6    408    0    0    0
H 368.93779035 23.86199355 71.05721945     6    408    0    0    0
C 367.89893730 27.15038455 69.01942927     2    408   412   413   414
H 366.25725388 27.24538253 70.19278855     6    411    0    0    0
H 368.68078689 29.08558847 68.66392558     6    411    0    0    0
C 366.99866861 25.63162141 66.67299878     2    411   415   416   417
H 368.65553445 24.62017691 65.71939472     6    414    0    0    0
H 365.85582417 24.09776335 67.33373303     6    414    0    0    0
C 365.41320617 27.28273460 64.86969113     2    414   418   419   420
H 363.70689623 27.82470067 65.99373930     6    417    0    0    0
H 366.43895599 29.00698676 64.34215033     6    417    0    0    0
C 364.67125073 25.81271401 62.46343571     2    417   421   422   423
H 366.39699135 24.93248899 61.67267039     6    420    0    0    0
H 363.52950337 24.32332238 63.24839265     6    420    0    0    0
C 363.21322975 27.40852568 60.55759983     2    420   424   425   426
H 362.94881151 26.20491377 58.88848855     6    423    0    0    0
H 361.31725473 28.03702258 61.22187198     6    423    0    0    0
C 364.68993952 29.80838647 59.65085850     1    423   427   428   429
H 364.79508361 31.27302233 61.06739488     6    426    0    0    0
H 363.49634103 30.45060062 58.18027842     6    426    0    0    0
H 366.52478995 29.30279516 59.01940525     6    426    0    0    0
H 376.17383923 2.31894290 55.00375090     6     431    0    0    0 
C 376.10949101 4.10149498 53.92758942     1     430    432    433    434
H 377.94296564 4.63416194 53.55423336     6     431    0    0    0
H 375.35429482 3.55429972 51.97684234     6     431    0    0    0
C 374.28411508 6.02419851 55.39591398     2     431    435    436    437
H 372.40776380 5.08499122 55.38672920     6     434    0    0    0
H 374.65849163 6.11291109 57.42496921     6     434    0    0    0
C 374.05607757 8.70230329 54.13597727     2     434    438   439   440
H 376.00432904 9.50301926 53.97957962     6     437    0    0    0
H 373.30413109 8.44085262 52.21050362     6     437    0    0    0
C 372.80375859 10.70841313 55.86865430     2     437   441   442   443
H 372.31774105 12.41464234 54.65862698     6    440    0    0    0
H 370.89156671 10.33342421 56.39614304     6    440    0    0    0
C 374.29909254 11.61625751 57.99551785     2    440   444   445   446
H 374.93505231 10.02999014 59.21631374     6    443    0    0    0
H 375.99066483 12.48185275 57.28974024     6    443    0    0    0
C 372.80986744 13.47159715 59.60330075     2    443   447   448   449
H 372.09851809 15.06435643 58.67546088     6    446    0    0    0
H 370.92606885 12.58556013 60.28125631     6    446    0    0    0
C 374.13433685 14.18523663 62.06356937     2    446   450   451   452
H 374.88429676 12.56280489 63.01391599     6    449    0    0    0
H 375.91173267 15.18980794 61.61804094     6    449    0    0    0
C 372.58317693 15.61442102 63.89920851     2    449   453   454   455
H 371.94948336 17.32927099 63.12771545     6    452    0    0    0
H 370.76757407 14.63773399 64.24992821     6    452    0    0    0
C 374.10779938 16.52660783 66.27516211     2    452   456   457   458
H 374.94231630 14.71003702 67.03639317     6    455    0    0    0
H 375.66557837 17.71015551 65.79811916     6    455    0    0    0
C 372.42649316 18.02882271 68.14047424     2    455   459   460   461
H 373.52682018 18.88764962 69.56244114     6    458    0    0    0
H 371.43002823 19.42492996 67.05940023     6    458    0    0    0
C 370.58688175 16.50000136 69.65293414     2    458   462   463   464
H 369.50240857 15.19758213 68.49066333     6    461    0    0    0
H 371.55581862 15.55397283 71.06120243     6    461    0    0    0
C 368.64499221 17.97670436 71.15393611     1    461   465   466   467
H 367.27888701 19.09229775 69.97430221     6    464    0    0    0
H 369.72778521 19.05305944 72.62970968     6    464    0    0    0
H 367.47823062 16.67576793 72.42618786     6    464    0    0    0
H 396.56752369 48.09946606 29.78820622     6     469    0    0    0 
C 397.86018917 46.59696787 29.38351371     1     468    470    471    472
H 397.68098508 46.21529171 27.42598469     6     469    0    0    0
H 399.74035285 47.34285724 29.87061071     6     469    0    0    0
C 397.43276754 44.26116045 31.07258636     2     469    473    474    475
H 398.95692249 42.82296694 30.74309909     6     472    0    0    0
H 397.82448247 44.55946265 33.00089673     6     472    0    0    0
C 394.80903824 43.13744725 30.95574647     2     472    476   477   478
H 393.49148345 44.34922980 31.82670714     6     475    0    0    0
H 394.19223403 43.05432807 28.99663897     6     475    0    0    0
C 394.39164743 40.62065703 32.33427150     2     475   479   480   481
H 395.91686319 39.22812940 32.08419346     6    478    0    0    0
H 394.49344678 40.79354660 34.29900226     6    478    0    0    0
C 391.96513396 39.29900032 31.47334502     2    478   482   483   484
H 390.49630615 40.68179974 31.52650855     6    481    0    0    0
H 392.19585744 38.98645354 29.46748407     6    481    0    0    0
C 391.16086228 36.87095442 32.84776543     2    481   485   486   487
H 392.78232981 35.68251383 33.13617936     6    484    0    0    0
H 390.53041879 37.41331497 34.81891117     6    484    0    0    0
C 388.90681582 35.33377387 31.76999686     2    484   488   489   490
H 387.20161385 36.56591752 31.76261182     6    487    0    0    0
H 389.36804886 34.61577762 29.93845278     6    487    0    0    0
C 388.36323256 33.15342209 33.58618862     2    487   491   492   493
H 389.88602105 31.89104905 33.74672805     6    490    0    0    0
H 387.72229978 33.62424522 35.51273616     6    490    0    0    0
C 386.29655009 31.37857913 32.54602056     2    490   494   495   496
H 384.60102139 32.57241829 32.33425506     6    493    0    0    0
H 386.86464759 31.19507981 30.61572668     6    493    0    0    0
C 385.86193711 28.73462637 33.61995891     2    493   497   498   499
H 387.69898004 27.84155951 33.89377410     6    496    0    0    0
H 384.81535694 28.63390080 35.27684545     6    496    0    0    0
C 384.50262889 27.02179480 31.70853703     2    496   500   501   502
H 382.63831633 27.77541989 31.14131838     6    499    0    0    0
H 385.54911429 27.28256016 29.91369591     6    499    0    0    0
C 384.33913194 24.14825021 32.36516630     1    499   503   504   505
H 383.82601059 23.07444612 30.74281978     6    502    0    0    0
H 382.93588564 23.80518387 33.81082564     6    502    0    0    0
H 386.10130174 23.61445683 33.14184942     6    502    0    0    0
H 355.81049451 26.80652837 37.13613806     6     507    0    0    0 
C 357.67673561 26.04831361 37.84511121     1     506    508    509    510
H 357.70214510 24.02380027 37.39241078     6     507    0    0    0
H 359.26884338 26.89365718 37.07311579     6     507    0    0    0
C 357.59516592 26.45489472 40.74467392     2     507    511    512    513
H 357.34047840 28.51284782 40.87446257     6     510    0    0    0
H 356.01688918 25.47904145 41.56765161     6     510    0    0    0
C 359.64877555 25.20024138 42.38177685     2     510    514   515   516
H 359.46325306 23.16824433 42.15951986     6     513    0    0    0
H 361.46351386 25.81679770 41.69638152     6     513    0    0    0
C 359.43367051 25.62893261 45.17023836     2     513   517   518   519
H 360.23914741 27.51704930 45.61242073     6    516    0    0    0
H 357.50680708 25.82076700 45.70983673     6    516    0    0    0
C 361.07830062 23.74719105 46.84080700     2    516   520   521   522
H 361.01484792 21.84158904 46.15190060     6    519    0    0    0
H 362.96398847 24.33236408 46.41972403     6    519    0    0    0
C 361.15827098 24.16398875 49.75679675     2    519   523   524   525
H 361.65071316 26.09518205 50.08436219     6    522    0    0    0
H 359.23457860 23.77283097 50.54627585     6    522    0    0    0
C 363.05065763 22.41498456 51.18878549     2    522   526   527   528
H 362.87075486 20.45145909 50.53859525     6    525    0    0    0
H 364.95709985 23.08843590 50.97477439     6    525    0    0    0
C 362.28783270 22.35561597 53.98411327     2    525   529   530   531
H 362.79525651 24.19442955 54.64319800     6    528    0    0    0
H 360.23095076 21.95550901 54.29500076     6    528    0    0    0
C 363.70223349 20.36716720 55.27150238     2    528   532   533   534
H 363.45619605 18.46436266 54.41014320     6    531    0    0    0
H 365.75083140 20.77792402 55.14101595     6    531    0    0    0
C 363.16473215 19.95001659 58.15988282     2    531   535   536   537
H 363.01197167 21.75842971 58.95459488     6    534    0    0    0
H 361.40534095 19.04095306 58.08672518     6    534    0    0    0
C 365.09862140 18.38942129 59.66866662     2    534   538   539   540
H 365.10589515 16.33741906 59.01429034     6    537    0    0    0
H 366.88220676 18.87429051 58.93386386     6    537    0    0    0
C 365.01730961 18.29846967 62.54361580     1    537   541   542   543
H 366.57065721 17.51624937 63.60742732     6    540    0    0    0
H 363.46442068 17.11368461 63.14298187     6    540    0    0    0
H 364.70085555 20.28047189 63.09348147     6    540    0    0    0
H 379.65570809 31.49842784 65.23698667     6     545    0    0    0 
C 380.12562136 33.22054224 66.17425979     1     544    546    547    548
H 379.65932104 34.78691944 64.96487013     6     545    0    0    0
H 378.91875813 33.44096365 67.85183451     6     545    0    0    0
C 382.88922224 33.35927014 66.88294668     2     545    549    550    551
H 383.60704366 31.65873285 67.82749786     6     548    0    0    0
H 384.14344671 33.45219603 65.15553530     6     548    0    0    0
C 383.18061227 35.79783455 68.46675840     2     548    552   553   554
H 382.97442551 37.57952030 67.48137461     6     551    0    0    0
H 381.69877246 35.90906092 69.99245248     6     551    0    0    0
C 385.88779527 35.76744814 69.75967930     2     551   555   556   557
H 385.80202530 34.25685596 71.12280060     6    554    0    0    0
H 387.24005598 35.25481068 68.33626128     6    554    0    0    0
C 386.51205346 38.37868613 70.85823292     2    554   558   559   560
H 386.08168566 39.78677433 69.43495288     6    557    0    0    0
H 385.30124672 38.78020128 72.50965887     6    557    0    0    0
C 389.37351418 38.76115128 71.40534988     2    557   561   562   563
H 390.18795602 37.02406345 72.21718842     6    560    0    0    0
H 390.57522998 39.50502570 69.87326874     6    560    0    0    0
C 389.77856494 40.84682349 73.44037683     2    560   564   565   566
H 388.71253159 42.58880349 72.95903835     6    563    0    0    0
H 389.01994178 40.25942678 75.26244809     6    563    0    0    0
C 392.67519590 41.30885483 73.61974961     2    563   567   568   569
H 393.63103509 39.74101514 74.42412084     6    566    0    0    0
H 393.58444618 41.48079032 71.78218607     6    566    0    0    0
C 393.18204231 43.67600699 75.19350334     2    566   570   571   572
H 391.57874290 44.98222843 75.04138417     6    569    0    0    0
H 392.91844039 43.16266186 77.18872160     6    569    0    0    0
C 395.74385139 44.85016710 74.53246477     2    569   573   574   575
H 396.02096228 46.18052957 76.07550802     6    572    0    0    0
H 397.15332806 43.43978292 74.76989952     6    572    0    0    0
C 396.15196198 46.17400888 72.03192764     2    572   576   577   578
H 395.06526709 45.41892083 70.49940967     6    575    0    0    0
H 395.34708282 48.05762199 72.34930911     6    575    0    0    0
C 398.84996204 46.30750589 70.99252767     1    575   579   580   581
H 398.62525018 47.67262967 69.46898183     6    578    0    0    0
H 399.49434283 44.42079010 70.46416863     6    578    0    0    0
H 400.12288710 47.32794209 72.39006436     6    578    0    0    0
H 394.57645511 60.09726899 35.49932464     6     583    0    0    0 
C 395.69808702 60.46251703 37.19729703     1     582    584    585    586
H 397.56786783 60.89073080 36.72369661     6     583    0    0    0
H 395.19179172 62.29271634 38.01083514     6     583    0    0    0
C 395.55909842 58.51473449 39.45639390     2     583    587    588    589
H 393.59485482 58.13902396 39.67064663     6     586    0    0    0
H 396.41383752 56.89193364 38.76159769     6     586    0    0    0
C 396.58460961 59.42421324 41.94521843     2     586    590   591   592
H 398.02894531 60.78579077 41.51897662     6     589    0    0    0
H 394.89105005 60.20682860 42.96957524     6     589    0    0    0
C 397.73816368 57.29529504 43.47078876     2     589   593   594   595
H 396.60127880 55.58754072 43.72067425     6    592    0    0    0
H 399.50511011 56.41796219 42.48593183     6    592    0    0    0
C 398.48927840 58.21223687 46.07423056     2    592   596   597   598
H 398.65694981 60.35423744 46.15383549     6    595    0    0    0
H 396.84986618 57.69847691 47.27897632     6    595    0    0    0
C 400.83768314 56.79160391 46.95641314     2    595   599   600   601
H 400.19908361 54.77761923 46.77865361     6    598    0    0    0
H 402.46326654 56.88641814 45.47294170     6    598    0    0    0
C 401.72860397 57.26989025 49.61831804     2    598   602   603   604
H 402.41853167 59.15968892 49.77806825     6    601    0    0    0
H 400.14831160 56.94395451 50.95318555     6    601    0    0    0
C 403.82949742 55.45816567 50.25866460     2    601   605   606   607
H 403.01748532 53.69063018 49.86134474     6    604    0    0    0
H 405.43963269 55.68265401 49.06533797     6    604    0    0    0
C 404.38646707 55.56870634 53.18694642     2    604   608   609   610
H 404.83804020 57.40702102 53.63467827     6    607    0    0    0
H 402.70586067 55.00948442 54.26342769     6    607    0    0    0
C 406.18119530 53.53706119 54.38948346     2    607   611   612   613
H 405.54557526 51.77762089 53.70301625     6    610    0    0    0
H 408.22077654 53.53789625 53.73368178     6    610    0    0    0
C 406.20275128 53.55121468 57.32080255     2    610   614   615   616
H 406.34689977 55.65637873 57.73715224     6    613    0    0    0
H 404.45884646 52.75149843 57.94675345     6    613    0    0    0
C 408.30962298 51.90318640 58.45912528     1    613   617   618   619
H 408.14851280 51.80151352 60.52477752     6    616    0    0    0
H 410.04032967 52.77140453 57.84410894     6    616    0    0    0
H 408.23339821 49.91981870 57.87061188     6    616    0    0    0
H 371.22615733 48.05594077 64.74596598     6     621    0    0    0 
C 372.24633694 49.16943282 63.34558113     1     620    622    623    624
H 374.21113516 48.55269650 63.43491442     6     621    0    0    0
H 371.60393537 48.58937678 61.41168465     6     621    0    0    0
C 372.03994351 51.91936199 63.48114096     2     621    625    626    627
H 373.02192932 52.70285586 61.89700162     6     624    0    0    0
H 370.03407666 52.47743473 63.13056692     6     624    0    0    0
C 373.18988550 53.15679035 65.89794591     2     624    628   629   630
H 372.13002459 52.70428066 67.72937849     6     627    0    0    0
H 374.94661556 52.38251884 66.02069072     6     627    0    0    0
C 373.86813894 56.09381884 65.78554127     2     627   631   632   633
H 374.79135559 56.34080649 67.59066245     6    630    0    0    0
H 375.11588270 56.55354046 64.28866371     6    630    0    0    0
C 371.49228122 57.76965179 65.75899157     2    630   634   635   636
H 370.78690926 57.93376089 63.78165989     6    633    0    0    0
H 369.91966120 56.70434213 66.67357288     6    633    0    0    0
C 371.91146187 60.40284405 66.83029268     2    633   637   638   639
H 371.98407404 60.31086577 68.85804659     6    636    0    0    0
H 373.66495511 61.08093144 66.31405509     6    636    0    0    0
C 369.88313375 62.38002510 66.15025223     2    636   640   641   642
H 368.99786549 61.91172032 64.29461288     6    639    0    0    0
H 368.36979077 62.15789323 67.49501436     6    639    0    0    0
C 370.92942313 65.08734730 65.90262647     2    639   643   644   645
H 372.50109982 65.35198354 67.19786969     6    642    0    0    0
H 371.53124046 65.48997152 63.91195626     6    642    0    0    0
C 368.71409607 66.86990741 66.64030181     2    642   646   647   648
H 366.99629211 66.63251461 65.48757410     6    645    0    0    0
H 368.22101509 66.74366521 68.70595697     6    645    0    0    0
C 369.73729544 69.58377653 66.39917162     2    645   649   650   651
H 370.86553830 70.08275265 68.10984612     6    648    0    0    0
H 370.98601314 69.83628601 64.77088452     6    648    0    0    0
C 367.54416651 71.70126746 66.10108486     2    648   652   653   654
H 366.51411381 71.49690465 64.28320018     6    651    0    0    0
H 366.03488737 71.54922830 67.48212883     6    651    0    0    0
C 368.66809539 74.31401483 65.95167969     1    651   655   656   657
H 370.29453049 74.59017273 64.64094226     6    654    0    0    0
H 369.37223918 74.97241421 67.82024876     6    654    0    0    0
H 367.22457521 75.55357221 65.10739996     6    654    0    0    0
H 391.28706134 49.88596733 43.85444414     6     659    0    0    0 
C 392.37610924 51.64231738 44.10102958     1     658    660    661    662
H 394.38135454 51.12824821 44.43828981     6     659    0    0    0
H 392.29835118 52.54825568 42.17573699     6     659    0    0    0
C 391.47105956 53.51428109 46.24423269     2     659    663    664    665
H 392.41181865 55.35007409 46.13529824     6     662    0    0    0
H 389.62437721 54.19422377 45.96739130     6     662    0    0    0
C 391.43411618 52.55060640 48.98032657     2     662    666   667   668
H 390.40206064 53.92957190 50.16573214     6     665    0    0    0
H 390.52646999 50.73937727 49.27026019     6     665    0    0    0
C 394.09795489 52.64285667 50.17208917     2     665   669   670   671
H 395.39637816 51.62944082 48.78844733     6    668    0    0    0
H 394.93459752 54.47013136 50.26425668     6    668    0    0    0
C 394.05073659 51.46003717 52.84495673     2    668   672   673   674
H 393.08347612 52.82484009 54.02544128     6    671    0    0    0
H 393.07038888 49.79564840 53.11217790     6    671    0    0    0
C 396.82195106 50.86347195 53.59405299     2    671   675   676   677
H 397.77996877 49.67947098 52.24564168     6    674    0    0    0
H 397.62448820 52.78723732 53.79088281     6    674    0    0    0
C 397.16505059 49.71716813 56.39326738     2    674   678   679   680
H 398.93058849 50.35910075 57.13330426     6    677    0    0    0
H 395.70032985 50.35710755 57.58028003     6    677    0    0    0
C 397.17176157 46.87221246 56.59363718     2    677   681   682   683
H 395.32050311 46.03980229 56.16477828     6    680    0    0    0
H 398.49587083 46.15028715 55.33838707     6    680    0    0    0
C 397.57506741 46.19108185 59.42179167     2    680   684   685   686
H 396.62792749 47.43658586 60.84759078     6    683    0    0    0
H 396.88810039 44.26699467 59.84588320     6    683    0    0    0
C 400.18937419 46.06309139 60.42197716     2    683   687   688   689
H 401.24655352 44.86554907 59.08359326     6    686    0    0    0
H 401.23149133 47.84355163 60.26156882     6    686    0    0    0
C 400.30470446 45.37857277 63.32329028     2    686   690   691   692
H 399.33433467 46.83026463 64.33439087     6    689    0    0    0
H 399.39442049 43.53395212 63.67929466     6    689    0    0    0
C 403.09242776 44.95563412 64.17287143     1    689   693   694   695
H 404.51052211 46.43663349 63.60137205     6    692    0    0    0
H 403.89710393 43.14431906 63.56095433     6    692    0    0    0
H 403.10657487 44.67343054 66.15403444     6    692    0    0    0
H 384.02336614 36.88605961 85.40016250     6     697    0    0    0 
C 383.65062947 38.56951584 84.46412328     1     696    698    699    700
H 381.66795793 38.73914495 84.03652741     6     697    0    0    0
H 384.00075862 39.98287262 85.98418606     6     697    0    0    0
C 385.22886772 39.07282170 82.01471948     2     697    701    702    703
H 384.69843105 40.97406420 81.32887093     6     700    0    0    0
H 387.26649618 38.92126812 82.33395568     6     700    0    0    0
C 384.79703437 37.02591501 79.99572133     2     700    704   705   706
H 383.15334988 37.41790682 78.86030646     6     703    0    0    0
H 386.23783665 37.21167653 78.54709708     6     703    0    0    0
C 384.73476909 34.19266348 80.86134568     2     703   707   708   709
H 386.64272339 33.62953863 81.52222868     6    706    0    0    0
H 383.70866337 33.91870266 82.60495653     6    706    0    0    0
C 383.63421400 32.61220121 78.65907787     2    706   710   711   712
H 381.78244028 33.53463105 78.20085231     6    709    0    0    0
H 384.84784586 33.04032292 77.03868627     6    709    0    0    0
C 383.93073811 29.68804509 78.69387326     2    709   713   714   715
H 385.66255343 29.20958886 79.43080308     6    712    0    0    0
H 382.51361523 28.79068488 79.95785783     6    712    0    0    0
C 383.73304244 28.48256778 76.23140092     2    712   716   717   718
H 381.73053721 28.68348783 75.80670567     6    715    0    0    0
H 384.85236796 29.57997124 74.95024582     6    715    0    0    0
C 384.11321409 25.56770683 76.25877932     2    715   719   720   721
H 385.98661932 25.02861230 75.91618069     6    718    0    0    0
H 383.52683052 24.83772236 78.10697273     6    718    0    0    0
C 382.61168706 24.21206613 74.16268180     2    718   722   723   724
H 380.57291788 24.51785998 74.53511788     6    721    0    0    0
H 383.36129689 24.91989579 72.42126058     6    721    0    0    0
C 383.42449866 21.48316431 73.65362801     2    721   725   726   727
H 385.30358969 21.76213963 72.85103060     6    724    0    0    0
H 383.50477798 20.42271140 75.42581298     6    724    0    0    0
C 381.70270897 20.11529526 71.80051743     2    724   728   729   730
H 381.87640222 20.65919927 69.80801952     6    727    0    0    0
H 382.33159067 18.11532276 71.63863387     6    727    0    0    0
C 378.92859016 19.73394884 72.72116674     1    727   731   732   733
H 377.94344581 18.44273308 71.35347445     6    730    0    0    0
H 377.99586646 21.46922068 73.14635331     6    730    0    0    0
H 379.08697235 18.90582987 74.61345957     6    730    0    0    0
H 405.54286651 28.62075251 41.58293871     6     735    0    0    0 
C 404.79872054 29.23578622 39.79420338     1     734    736    737    738
H 406.34722685 29.95980975 38.61044533     6     735    0    0    0
H 404.12115025 27.39122628 39.17483790     6     735    0    0    0
C 402.63311215 31.12715572 40.11036135     2     735    739    740    741
H 403.24361494 33.00861619 40.88023878     6     738    0    0    0
H 401.77072899 31.47224344 38.22805276     6     738    0    0    0
C 400.47808208 30.03696242 41.72644693     2     738    742   743   744
H 399.85483729 28.37171438 40.78752459     6     741    0    0    0
H 401.03245535 29.67365997 43.69728083     6     741    0    0    0
C 398.03134375 31.52995389 41.40366804     2     741   745   746   747
H 398.44846225 33.48040303 41.69281659     6    744    0    0    0
H 397.41977685 31.52785528 39.47903216     6    744    0    0    0
C 395.79733905 30.61727512 42.93790264     2    744   748   749   750
H 396.31780689 31.03201951 44.84681169     6    747    0    0    0
H 394.19677013 31.80494887 42.52917025     6    747    0    0    0
C 395.07259999 27.84055070 42.56225371     2    747   751   752   753
H 396.69261856 26.73479439 42.96274316     6    750    0    0    0
H 393.73513483 27.29029127 43.99818074     6    750    0    0    0
C 393.84823900 27.04996004 40.02451824     2    750   754   755   756
H 392.42149255 28.34293019 39.51263419     6    753    0    0    0
H 395.19887993 27.30525497 38.50812076     6    753    0    0    0
C 392.98502160 24.24049879 40.17641082     2    753   757   758   759
H 394.57549082 23.17045152 40.62292286     6    756    0    0    0
H 391.83015631 24.01971571 41.78938117     6    756    0    0    0
C 391.90056076 23.26283858 37.64721098     2    756   760   761   762
H 390.40929623 24.68069516 37.07911026     6    759    0    0    0
H 393.29165457 23.32028700 36.14239094     6    759    0    0    0
C 390.91506615 20.66807050 38.03022583     2    759   763   764   765
H 392.44154494 19.23880308 37.80349097     6    762    0    0    0
H 390.48997541 20.62315933 40.05886501     6    762    0    0    0
C 389.13485973 19.52976264 36.20406050     2    762   766   767   768
H 387.28394832 20.64159130 36.02103904     6    765    0    0    0
H 389.87485642 19.39491569 34.29372072     6    765    0    0    0
C 388.43807268 16.69928559 36.83532591     1    765   769   770   771
H 390.04394565 15.27110915 36.80615028     6    768    0    0    0
H 387.45760604 15.81810974 35.28461366     6    768    0    0    0
H 387.36761205 16.32994476 38.67647140     6    768    0    0    0
H 365.82478392 57.57311635 64.06424681     6     773    0    0    0 
C 364.05429034 58.03420105 65.18971240     1     772    774    775    776
H 364.42814305 57.48877926 67.09897870     6     773    0    0    0
H 363.37174014 60.05497972 65.17814634     6     773    0    0    0
C 361.80227019 56.40056644 64.08872336     2     773    777    778    779
H 360.16705610 56.35840423 65.41791671     6     776    0    0    0
H 361.16226937 57.02132889 62.28721565     6     776    0    0    0
C 362.64418747 53.64430894 63.98232988     2     776    780   781   782
H 364.27055091 53.52133225 62.74111434     6     779    0    0    0
H 363.51767980 52.91597363 65.78852024     6     779    0    0    0
C 360.68282962 51.68943821 63.08655918     2     779   783   784   785
H 359.00465303 52.07577648 64.23060338     6    782    0    0    0
H 360.12669651 52.24279848 61.19691215     6    782    0    0    0
C 361.53871385 48.99593452 63.55233145     2    782   786   787   788
H 363.29381360 49.00453940 62.48049044     6    785    0    0    0
H 361.93122185 48.65753850 65.54308948     6    785    0    0    0
C 359.54144884 47.01869118 62.71080388     2    785   789   790   791
H 357.68157134 47.32354098 63.51530016     6    788    0    0    0
H 359.41910127 47.18069379 60.67932340     6    788    0    0    0
C 360.33267873 44.24127956 63.39286591     2    788   792   793   794
H 362.22046187 44.02190938 62.94670484     6    791    0    0    0
H 360.25958844 44.11680528 65.49110271     6    791    0    0    0
C 358.65663813 42.38263746 62.08862311     2    791   795   796   797
H 356.75133030 42.91236776 62.48572016     6    794    0    0    0
H 358.82610620 42.59216506 60.02973167     6    794    0    0    0
C 359.08846173 39.47023105 62.58902124     2    794   798   799   800
H 361.18259057 39.14034917 62.51484242     6    797    0    0    0
H 358.41979718 39.02115415 64.50748967     6    797    0    0    0
C 357.55601390 37.52007397 60.91991317     2    797   801   802   803
H 355.52340394 37.78349946 61.50882770     6    800    0    0    0
H 357.72589750 38.14948732 58.91954672     6    800    0    0    0
C 358.23404974 34.76459009 61.07983204     2    800   804   805   806
H 360.15640808 34.50089848 60.45628742     6    803    0    0    0
H 358.03169300 34.14538761 63.02713797     6    803    0    0    0
C 356.20103517 33.19577824 59.49431154     1    803   807   808   809
H 356.78708088 31.31314946 59.13793574     6    806    0    0    0
H 355.79127119 34.05193703 57.69170968     6    806    0    0    0
H 354.41004851 33.00769484 60.42563028     6    806    0    0    0
H 380.50889914 45.93402832 38.80123048     6     811    0    0    0 
C 379.97156076 45.44510042 40.74220909     1     810    812    813    814
H 381.34293629 44.05074769 41.31363119     6     811    0    0    0
H 380.43242098 47.23256375 41.78973823     6     811    0    0    0
C 377.18892003 44.58576335 41.26499560     2     811    815    816    817
H 377.09970745 42.75006882 40.25249346     6     814    0    0    0
H 376.72157874 43.94133041 43.10771210     6     814    0    0    0
C 375.18333684 46.38464054 40.24245323     2     814    818   819   820
H 375.03123063 48.05780409 41.38024521     6     817    0    0    0
H 375.68239603 46.98350056 38.37001882     6     817    0    0    0
C 372.39267247 45.36763140 40.12882200     2     817   821   822   823
H 372.35751812 43.71660487 38.92243976     6    820    0    0    0
H 371.55023929 45.00035678 42.00620737     6    820    0    0    0
C 370.55111274 47.10472986 38.74037781     2    820   824   825   826
H 368.66947525 46.35231763 38.94070494     6    823    0    0    0
H 370.46282033 48.93774781 39.72449181     6    823    0    0    0
C 371.01665205 47.53191643 35.85980905     2    823   827   828   829
H 373.02737880 47.69347186 35.49562040     6    826    0    0    0
H 370.42580879 45.72838667 34.93127439     6    826    0    0    0
C 369.72478627 49.93218149 35.10983555     2    826   830   831   832
H 367.77919816 50.06588642 35.64944787     6    829    0    0    0
H 370.54311002 51.60488273 36.06671809     6    829    0    0    0
C 369.68914841 50.30044723 32.21991355     2    829   833   834   835
H 371.23962958 49.43637363 31.41431005     6    832    0    0    0
H 368.04125220 49.05459934 31.55699117     6    832    0    0    0
C 369.30958383 52.94950620 31.43392551     2    832   836   837   838
H 368.00565193 53.99093468 32.67362139     6    835    0    0    0
H 370.96210866 54.11941922 31.54853841     6    835    0    0    0
C 368.43782679 53.00518606 28.59301112     2    835   839   840   841
H 370.15143104 52.98254802 27.51663253     6    838    0    0    0
H 367.28367866 51.44195157 27.96838889     6    838    0    0    0
C 367.32624181 55.55491313 27.89392188     2    838   842   843   844
H 365.69568227 55.91665004 29.00722376     6    841    0    0    0
H 368.64858549 56.95281890 28.36118566     6    841    0    0    0
C 366.26336983 55.63435078 25.17615822     1    841   845   846   847
H 367.28036807 54.35313438 23.96483688     6    844    0    0    0
H 366.15271147 57.58215451 24.39134350     6    844    0    0    0
H 364.34220355 54.94112096 25.11252518     6    844    0    0    0
H 401.20624005 52.45023572 69.28641531     6     849    0    0    0 
C 401.28476623 52.13024440 67.19653559     1     848    850    851    852
H 401.38664377 50.09220932 66.88219609     6     849    0    0    0
H 399.55344340 52.85464698 66.43055720     6     849    0    0    0
C 403.66367918 53.47607228 66.20390721     2     849    853    854    855
H 405.36466993 52.52054885 66.91378269     6     852    0    0    0
H 403.51555736 53.28540038 64.15761232     6     852    0    0    0
C 403.81730649 56.38496494 66.69179798     2     852    856   857   858
H 401.92456630 57.23487309 66.09254214     6     855    0    0    0
H 404.26187675 56.94528232 68.59849321     6     855    0    0    0
C 405.78858953 57.66587286 64.84942948     2     855   859   860   861
H 407.65462797 57.19746969 65.50781144     6    858    0    0    0
H 405.75406291 56.60193950 63.20074300     6    858    0    0    0
C 405.44780082 60.57492316 64.62283601     2    858   862   863   864
H 404.96902858 61.34436931 66.46959378     6    861    0    0    0
H 407.16706482 61.53944670 63.96510399     6    861    0    0    0
C 403.18262518 61.39482823 62.92880559     2    861   865   866   867
H 403.22172373 60.44362973 61.14483198     6    864    0    0    0
H 401.50131658 60.65018722 63.79144460     6    864    0    0    0
C 402.99389582 64.23753880 62.49299683     2    864   868   869   870
H 402.59845688 65.22399659 64.23524306     6    867    0    0    0
H 404.70711487 65.14294222 61.80610402     6    867    0    0    0
C 400.77852991 64.61589239 60.71724569     2    867   871   872   873
H 401.07638827 63.62942705 58.82434415     6    870    0    0    0
H 399.09963273 63.99974004 61.68071281     6    870    0    0    0
C 400.53605239 67.45934549 60.19719682     2    870   874   875   876
H 398.56189547 68.02578359 59.64940499     6    873    0    0    0
H 401.08273631 68.85556269 61.66861149     6    873    0    0    0
C 402.31078576 68.37504803 58.00318818     2    873   877   878   879
H 404.02236941 67.33929177 58.37730272     6    876    0    0    0
H 401.44479798 67.75472204 56.28701272     6    876    0    0    0
C 402.86621302 71.31333944 57.88170233     2    876   880   881   882
H 401.05894924 72.22042584 57.23337984     6    879    0    0    0
H 403.11167795 72.10509046 59.73169641     6    879    0    0    0
C 405.18016851 71.60439060 56.20129559     1    879   883   884   885
H 404.67440045 71.44549949 54.24137769     6    882    0    0    0
H 406.54665324 70.28240538 56.77737625     6    882    0    0    0
H 405.92382012 73.35825670 56.76687620     6    882    0    0    0
H 375.83321101 41.19143865 45.68406551     6     887    0    0    0 
C 375.85122875 42.15407867 47.48157726     1     886    888    889    890
H 375.58914981 44.23298275 47.11337774     6     887    0    0    0
H 374.11475767 41.50080428 48.52048382     6     887    0    0    0
C 378.17039256 41.67587314 48.98326907     2     887    891    892    893
H 378.36756875 43.01597575 50.44796593     6     890    0    0    0
H 378.27212358 40.03073031 50.19626203     6     890    0    0    0
C 380.49052396 42.01091269 47.10818448     2     890    894   895   896
H 379.96002733 40.82435572 45.60240960     6     893    0    0    0
H 380.36562715 44.04749846 46.40778993     6     893    0    0    0
C 383.00738952 41.43877404 48.31598567     2     893   897   898   899
H 382.88612201 42.16641370 50.32713033     6    896    0    0    0
H 383.14789866 39.47848661 48.44614786     6    896    0    0    0
C 385.22208176 42.65482813 46.92361945     2    896   900   901   902
H 385.07054216 42.52103139 44.85554293     6    899    0    0    0
H 385.07149962 44.62112159 47.30727804     6    899    0    0    0
C 387.84715064 41.74067910 47.78653976     2    899   903   904   905
H 387.95497130 41.69378410 49.83424591     6    902    0    0    0
H 388.10723257 39.74085026 47.39087523     6    902    0    0    0
C 390.00530708 43.40637182 46.69034442     2    902   906   907   908
H 390.58996977 42.84671810 44.75044526     6    905    0    0    0
H 389.34713068 45.19136049 46.59170189     6    905    0    0    0
C 392.42831050 43.41875441 48.19890671     2    905   909   910   911
H 392.15628237 44.57091550 49.97019137     6    908    0    0    0
H 392.67068921 41.27943579 48.51712417     6    908    0    0    0
C 394.59388344 44.54729492 46.83826360     2    908   912   913   914
H 395.12052703 43.43766976 45.06910528     6    911    0    0    0
H 393.91103782 46.46609803 46.30020492     6    911    0    0    0
C 396.93344695 44.94359543 48.43775718     2    911   915   916   917
H 396.43025260 46.25321317 49.97464181     6    914    0    0    0
H 397.08557876 43.27278784 49.41865648     6    914    0    0    0
C 399.32912292 45.38089170 46.81210583     2    914   918   919   920
H 399.14924525 44.45353419 44.98032124     6    917    0    0    0
H 399.39096519 47.34091031 46.29408585     6    917    0    0    0
C 401.93975545 44.65741312 48.07900765     1    917   921   922   923
H 402.64047882 42.79741088 47.34973997     6    920    0    0    0
H 401.89466388 44.42957257 50.14954154     6    920    0    0    0
H 403.31315027 46.05495569 48.01266118     6    920    0    0    0
H 390.72072337 60.21929569 54.33943247     6     925    0    0    0 
C 391.63749888 58.76388286 55.43627312     1     924    926    927    928
H 390.41480065 57.82574889 56.74594488     6     925    0    0    0
H 392.28186123 57.32823037 54.27414695     6     925    0    0    0
C 394.11428487 59.80097911 56.70390851     2     925    929    930    931
H 393.80115764 61.00129145 58.35031995     6     928    0    0    0
H 395.01882233 58.17818558 57.43163963     6     928    0    0    0
C 395.95041580 61.02110877 54.65277891     2     928    932   933   934
H 397.77701604 61.58919082 55.64084427     6     931    0    0    0
H 396.78835835 59.63570564 53.48036355     6     931    0    0    0
C 394.79545657 63.08619606 53.20079507     2     931   935   936   937
H 392.96196151 62.64691425 52.32320434     6    934    0    0    0
H 394.10486839 64.37264529 54.61787417     6    934    0    0    0
C 396.68120058 64.04418680 51.36151538     2    934   938   939   940
H 398.39251243 64.49180794 52.34738862     6    937    0    0    0
H 397.12854203 62.67255153 49.91185665     6    937    0    0    0
C 395.78726807 66.54347484 50.00529136     2    937   941   942   943
H 394.06458077 66.22852127 49.04339893     6    940    0    0    0
H 395.24036360 67.83701491 51.53329034     6    940    0    0    0
C 397.76190686 67.52256132 48.16158943     2    940   944   945   946
H 398.75820504 66.03076973 47.28111496     6    943    0    0    0
H 396.93448903 68.76963753 46.73834145     6    943    0    0    0
C 399.79444891 68.94236441 49.52223000     2    943   947   948   949
H 399.04910917 70.67897807 50.48698652     6    946    0    0    0
H 400.66289686 67.62341473 50.91809854     6    946    0    0    0
C 402.14042362 69.59118509 47.85688839     2    946   950   951   952
H 402.68182413 67.94442478 46.83895867     6    949    0    0    0
H 401.34127655 70.92213755 46.41161429     6    949    0    0    0
C 404.41862495 70.90442562 49.14224733     2    949   953   954   955
H 403.65037173 72.37795905 50.41208074     6    952    0    0    0
H 405.45303046 69.84083455 50.54382838     6    952    0    0    0
C 406.26300709 72.25749226 47.07262216     2    952   956   957   958
H 407.45849558 70.95803637 46.15616864     6    955    0    0    0
H 405.09987407 73.24388080 45.70615718     6    955    0    0    0
C 407.94645016 74.30724646 48.16966168     1    955   959   960   961
H 408.84170779 75.43533165 46.69441613     6    958    0    0    0
H 409.37514762 73.50629982 49.48808620     6    958    0    0    0
H 406.68597895 75.54588599 49.31574347     6    958    0    0    0
H 373.83775614 26.61536733 42.38157155     6     963    0    0    0 
C 374.97867583 26.20502122 44.15373338     1     962    964    965    966
H 375.73247549 24.19303478 43.85852776     6     963    0    0    0
H 376.64452836 27.35057076 44.38206987     6     963    0    0    0
C 373.15902844 26.00425141 46.42172567     2     963    967    968    969
H 372.70075199 27.89585601 46.50338518     6     966    0    0    0
H 371.52627899 24.87813791 45.96733803     6     966    0    0    0
C 374.23500004 25.12547402 48.85982904     2     966    970   971   972
H 375.20017973 23.29713450 48.36731345     6     969    0    0    0
H 375.48964083 26.58507158 49.43691906     6     969    0    0    0
C 372.35778789 24.87582550 51.13897233     2     969   973   974   975
H 371.35288383 26.80243314 51.50170523     6    972    0    0    0
H 370.90475479 23.44230315 50.90643631     6    972    0    0    0
C 373.89055396 24.36513908 53.50225133     2    972   976   977   978
H 375.26257062 22.73574786 53.55049671     6    975    0    0    0
H 375.54466155 25.68565361 53.54912645     6    975    0    0    0
C 372.29640707 24.10927407 55.82750646     2    975   979   980   981
H 370.71096511 25.43953683 55.76840631     6    978    0    0    0
H 371.54179178 22.15952983 55.80092688     6    978    0    0    0
C 373.93601385 24.59757892 58.16814426     2    978   982   983   984
H 375.58080543 23.36202427 58.33365402     6    981    0    0    0
H 374.49165472 26.53568804 58.11069892     6    981    0    0    0
C 372.46538061 24.38638048 60.66566233     2    981   985   986   987
H 371.22540551 26.02376934 60.75360608     6    984    0    0    0
H 371.14449610 22.92414469 60.33578232     6    984    0    0    0
C 374.03873573 23.57454197 62.92062095     2    984   988   989   990
H 372.60955126 22.78478901 64.11465351     6    987    0    0    0
H 375.03206643 21.75839115 62.51632977     6    987    0    0    0
C 375.83527082 25.47657990 64.06975434     2    987   991   992   993
H 377.30602407 26.07957003 62.56871698     6    990    0    0    0
H 374.80702557 27.18287526 64.52851158     6    990    0    0    0
C 376.84729828 24.14057495 66.47635465     2    990   994   995   996
H 375.23544696 23.14663030 67.39284291     6    993    0    0    0
H 378.10135913 22.69656306 65.84416819     6    993    0    0    0
C 378.17176754 25.99170454 68.14390796     1    993   997   998   999
H 379.72194119 26.93160221 67.17564874     6    996    0    0    0
H 379.16106356 25.10340993 69.65317142     6    996    0    0    0
H 376.91857481 27.43468076 68.77872322     6    996    0    0    0
H 371.73477433 25.95889205 30.51193928     6     1001    0    0    0 
C 373.50251646 25.18030989 31.04881283     1     1000    1002    1003    1004
H 374.07923732 23.75619242 29.54978725     6     1001    0    0    0
H 374.91990502 26.75675883 31.12947008     6     1001    0    0    0
C 373.15088291 24.01875137 33.75857750     2     1001    1005    1006    1007
H 372.52153541 25.37762644 35.09372564     6     1004    0    0    0
H 371.66793733 22.67261913 33.68679374     6     1004    0    0    0
C 375.67024425 23.04721543 34.78051412     2     1004    1008   1009   1010
H 376.52108872 21.72654025 33.48252494     6     1007    0    0    0
H 376.93618716 24.54487672 35.09572695     6     1007    0    0    0
C 375.41088022 21.73059539 37.30678983     2     1007   1011   1012   1013
H 374.64675859 23.00147944 38.79116669     6    1010    0    0    0
H 374.18326424 20.06033265 36.98169204     6    1010    0    0    0
C 378.07098501 20.81096017 38.20989058     2    1010   1014   1015   1016
H 378.78667056 19.59527454 36.73321808     6    1013    0    0    0
H 379.27505920 22.42749462 38.35180451     6    1013    0    0    0
C 378.18035533 18.97409208 40.42583258     2    1013   1017   1018   1019
H 377.09952516 19.76171568 41.91065637     6    1016    0    0    0
H 377.52079678 17.23744284 39.81481039     6    1016    0    0    0
C 380.92196178 18.50110016 41.21233311     2    1016   1020   1021   1022
H 381.93663589 17.83481707 39.64869312     6    1019    0    0    0
H 381.88944197 20.24234925 41.98524043     6    1019    0    0    0
C 381.30264206 16.08858052 42.87856157     2    1019   1023   1024   1025
H 380.31052787 14.63513795 41.73098003     6    1022    0    0    0
H 383.27608421 15.50692575 42.87132022     6    1022    0    0    0
C 380.17273589 16.71186266 45.45190524     2    1022   1026   1027   1028
H 380.80632883 18.58235540 46.13967141     6    1025    0    0    0
H 378.20958194 16.92710826 45.13625930     6    1025    0    0    0
C 380.41763233 14.70496685 47.59426534     2    1025   1029   1030   1031
H 379.64050515 12.97930969 46.90272369     6    1028    0    0    0
H 382.36475363 14.34954126 48.20111692     6    1028    0    0    0
C 379.16227511 15.55996128 50.02202108     2    1028   1032   1033   1034
H 380.00238656 17.37555895 50.37991760     6    1031    0    0    0
H 377.28209187 16.03499187 49.52619023     6    1031    0    0    0
C 379.75632173 13.40210139 51.98666138     1    1031   1035   1036   1037
H 378.34382336 13.26892792 53.36111896     6    1034    0    0    0
H 381.55505583 13.96596260 52.82920690     6    1034    0    0    0
H 379.74721697 11.57638750 51.08724108     6    1034    0    0    0
H 368.33359907 44.42005350 58.15761461     6     1039    0    0    0 
C 367.01934200 46.03449574 58.54925717     1     1038    1040    1041    1042
H 364.95967284 45.63120835 58.12786817     6     1039    0    0    0
H 367.08663398 46.35189424 60.59944305     6     1039    0    0    0
C 367.86348404 48.42739372 57.07789826     2     1039    1043    1044    1045
H 369.75771617 49.06969321 57.68876184     6     1042    0    0    0
H 367.66135045 48.06523575 55.08858119     6     1042    0    0    0
C 366.41987260 50.82735794 57.80485949     2     1042    1046   1047   1048
H 364.52937384 50.86741026 56.95085324     6     1045    0    0    0
H 366.14445572 50.79424786 59.73644765     6     1045    0    0    0
C 367.70435532 53.37317716 57.12395688     2     1045   1049   1050   1051
H 369.67304669 53.31597561 57.70295874     6    1048    0    0    0
H 367.60530501 53.61101793 55.16286743     6    1048    0    0    0
C 366.49574353 55.58189113 58.48142906     2    1048   1052   1053   1054
H 364.49931930 55.67489008 58.63344198     6    1051    0    0    0
H 367.35286446 55.47735624 60.36158737     6    1051    0    0    0
C 367.27094490 58.09901664 57.33794756     2    1051   1055   1056   1057
H 369.24401816 58.09416844 56.75281009     6    1054    0    0    0
H 366.09915727 58.18388999 55.49953573     6    1054    0    0    0
C 366.75137934 60.34763659 58.99771278     2    1054   1058   1059   1060
H 364.79606096 60.28070557 59.68863496     6    1057    0    0    0
H 368.19986525 60.17240274 60.46268940     6    1057    0    0    0
C 366.99503337 62.82144720 57.47921649     2    1057   1061   1062   1063
H 368.84478120 62.84074323 56.50397829     6    1060    0    0    0
H 365.48209923 62.74879023 56.11196543     6    1060    0    0    0
C 366.54239332 65.21189114 58.90969902     2    1060   1064   1065   1066
H 364.72943125 65.37479563 59.90082988     6    1063    0    0    0
H 367.91631496 65.23321761 60.40845735     6    1063    0    0    0
C 366.95029998 67.65019060 57.38001456     2    1063   1067   1068   1069
H 368.43484006 67.37061241 55.91447915     6    1066    0    0    0
H 365.20604086 68.17375226 56.28592851     6    1066    0    0    0
C 367.44344575 70.01623724 59.00404007     2    1066   1070   1071   1072
H 365.71165035 70.53586928 60.05714663     6    1069    0    0    0
H 368.65301190 69.63325777 60.66279412     6    1069    0    0    0
C 368.34387750 72.43175695 57.68144335     1    1069   1073   1074   1075
H 367.00590962 74.06123001 57.99396558     6    1072    0    0    0
H 368.40044610 72.03803223 55.68366569     6    1072    0    0    0
H 370.36801047 72.85769993 58.15494200     6    1072    0    0    0
H 377.59083321 76.00614896 65.08938553     6     1077    0    0    0 
C 377.77770319 75.66592790 63.05594008     1     1076    1078    1079    1080
H 376.19871046 76.78884821 62.30337586     6     1077    0    0    0
H 379.59550476 76.48536748 62.46230559     6     1077    0    0    0
C 377.27761648 72.91934756 62.22688624     2     1077    1081    1082    1083
H 378.56014795 71.51602843 62.77397794     6     1080    0    0    0
H 375.40201810 72.48169672 63.00718832     6     1080    0    0    0
C 376.96979943 72.72210889 59.28257824     2     1080    1084   1085   1086
H 375.53302352 71.27774543 58.62116760     6     1083    0    0    0
H 376.04098164 74.48189508 58.59612252     6     1083    0    0    0
C 379.64969634 72.24959300 58.12193606     2     1083   1087   1088   1089
[...]
 1803      H     386.2167901500    62.3770704900    63.4480931400
 1804      H     383.4243060100    61.0395589100    63.0302080200
 1805      C     384.2117165300    64.2291737300    60.4389393300
 1806      H     382.3198856900    64.8035689300    60.0131978100
 1807      H     385.2176806200    66.1106715200    60.5127535400
 1808      C     385.1131497300    62.6045344000    58.1615458000
 1809      H     385.0455448000    63.9034303300    56.4974424600
 1810      H     386.9098792200    61.8359922200    58.5411231800
 1811      C     383.5824826800    60.3114635500    57.5893113100
 1812      H     383.7259318000    59.0303926500    59.1422862100
 1813      H     381.5970893700    60.8924086400    57.2834095200
 1814      C     384.3309272800    59.2918898100    55.0138397700
 1815      H     384.7834479700    60.8262992500    53.5100683700
 1816      H     386.1200999100    58.5238077500    55.2139096000
 1817      C     382.6868763700    57.4137269900    53.7053288200
 1818      H     382.2746611200    56.0402452200    55.2811212900
 1819      H     381.0909891200    58.3819533300    53.0951613100
 1820      C     384.0659808700    56.0012752600    51.5904456400
 1821      H     384.5880852400    57.5707962300    50.2292933500
 1822      H     385.7603516100    54.8467888900    52.3032036200
 1823      C     382.2901515800    54.1619589300    50.0731832600
 1824      H     381.9898824500    52.5068879400    51.2811750100
 1825      H     380.4984278900    55.1655164200    49.6971488500
 1826      C     383.6565825700    53.5051862500    47.5927070100
 1827      H     384.0851812100    55.3190463900    46.5362802300
 1828      H     385.4522454700    52.6751916700    48.1937030600
 1829      C     382.3262270900    51.7859654500    45.7569299000
 1830      H     381.6774743600    50.0430736600    46.6788294100
 1831      H     380.5937140600    52.6363905700    45.1487583500
 1832      C     384.0638457200    51.1809220400    43.3874097300
 1833      H     385.3391243100    52.7228101000    43.2588716900
 1834      H     382.8274129300    50.8081354000    41.6924782600
 1835      H     385.3880015200    49.5952651800    43.8719154300
 1836      H     381.6071738700    47.5996273100    55.8488623300
 1837      C     383.3094857300    48.0756930000    54.6470363900
 1838      H     384.5927573300    46.5692431400    55.0093479000
 1839      H     382.4267259600    48.2783457800    52.7383611400
 1840      C     384.5086388100    50.4664205300    55.5703069000
 1841      H     385.9679927000    51.0047458600    54.2476380700
 1842      H     383.1039343600    51.9397599900    55.5738907000
 1843      C     385.6960082600    50.2959848200    58.2928183800
 1844      H     384.3499257100    50.0011862700    59.7929862100
 1845      H     386.9917787100    48.6585117600    58.2988892900
 1846      C     387.1369356800    52.6961155200    59.0167927800
 1847      H     388.4447043500    53.1815894100    57.5055163100
 1848      H     385.9138614000    54.4306739700    59.2632478900
 1849      C     388.7957584400    52.4677996900    61.4072349800
 1850      H     387.4604601000    51.9441769500    62.7961884900
 1851      H     390.0463702100    50.8077028100    60.9613341000
 1852      C     390.1117887700    54.9077784900    62.2983894200
 1853      H     391.2002301700    55.7190680800    60.8633637200
 1854      H     388.6854379500    56.3093045100    62.4703605400
 1855      C     391.4632800000    54.5756479500    64.9322336000
 1856      H     390.0654247600    53.7742247300    66.1452635000
 1857      H     392.9752185800    53.0829605100    64.8326457600
 1858      C     392.5807314100    56.9432704400    65.9816584100
 1859      H     393.2380352800    58.2500878500    64.5589686300
 1860      H     391.1913491000    58.1462782400    66.8130331700
 1861      C     394.4247116200    56.7274074000    68.1728784300
 1862      H     393.5070909500    56.0961865600    69.8377911300
 1863      H     395.7491903900    55.2388189900    67.6904770800
 1864      C     395.8616762200    59.2352647500    68.6343745900
 1865      H     396.6249177800    59.8820595600    66.6902453400
 1866      H     394.6672024800    60.6920897800    69.1753651500
 1867      C     398.0125342100    59.1018156400    70.5908906800
 1868      H     397.2492915300    58.4912678000    72.4626635500
 1869      H     398.9927453900    57.3822936700    70.2128941900
 1870      C     399.6411165200    61.4755340100    70.7657024500
 1871      H     400.5697034900    61.8586950000    68.9781042200
 1872      H     401.2338305600    61.4018701900    72.0299544100
 1873      H     398.3516992800    63.0230636800    71.3309308200
 1874      H     377.8606213000    39.1040926000    82.0012581800
 1875      C     376.2674196400    37.9301982300    82.3678348900
 1876      H     376.3171075600    37.3765869100    84.4155160400
 1877      H     374.5100721500    39.0615881200    82.2096974700
 1878      C     376.5210681900    35.7656922100    80.5064156800
 1879      H     378.5858505800    34.9464531500    80.6255989300
 1880      H     375.2440538300    34.2013606900    80.6470434900
 1881      C     376.1244695800    36.6678938200    77.7815019300
 1882      H     374.4700931300    37.8100667100    77.9011775600
 1883      H     377.6725827600    38.0233721000    77.3545512800
 1884      C     375.8933731100    34.6035443300    75.7198013800
 1885      H     377.7081369000    33.6869394600    75.4143536600
 1886      H     374.2513488100    33.2870068700    76.2504620400
 1887      C     375.7214311700    35.6496045300    73.1621379400
 1888      H     374.5771220400    37.2868435800    73.3847103100
 1889      H     377.5865423300    36.4181025400    72.7040061500
 1890      C     374.7040216100    33.6857999100    71.3109246300
 1891      H     375.9792669700    32.0333227900    71.2506457700
 1892      H     373.1673063500    32.6861223300    72.1004343400
 1893      C     373.8366870900    34.4880195600    68.7398885500
 1894      H     372.1490484200    35.6531305600    69.0132581800
 1895      H     375.4195511200    35.6699599800    68.2935639800
 1896      C     373.3641192000    32.4802228200    66.6770458500
 1897      H     374.8594057300    31.0314006300    66.6516114500
 1898      H     371.7229081700    31.3288462600    67.0593664700
 1899      C     373.0154305000    33.5320582000    64.0653738900
 1900      H     371.0938100500    34.0457521800    63.8720729600
 1901      H     374.2061026300    35.2051139300    63.6204550500
 1902      C     373.4453563600    31.8033310100    61.8097376400
 1903      H     375.4076715700    31.2562886500    61.8815924300
 1904      H     372.1831954100    30.1235596700    61.7630802400
 1905      C     373.0535894000    33.3758928600    59.3504961100
 1906      H     371.0472607700    34.0011591800    59.4319229400
 1907      H     374.0889615400    35.1360180500    59.2057022400
 1908      C     373.1894407100    31.7820533000    56.8619788000
 1909      H     372.5684328900    33.0534736900    55.3073339500
 1910      H     371.9619574800    30.1161985700    56.8428364800
 1911      H     375.0430531000    30.9227190800    56.3012288500
 ----------------------------------------------------------------
 Nuclear Repulsion Energy =           0.00000000 hartrees
 There are     2498 alpha and     2498 beta electrons

 Total QAlloc Memory Limit   2000 MB
 Mega-Array Size       204 MB
 MEM_STATIC part       192 MB
   **** Step 1: MM calculation on the entire system **** 
 OPLSAA force field loaded.
Reading user-defined FF parameters...
 Reading user defined atom types.
 Found 3 user defined AtomTypes
finished.
Determining angles, torsions, etc. from user defined input
Determining VDW/Coulomb pairs... (useList = 0)

 Time req'd to get MM system information: 0.2 s (CPU) 0.6 s (wall)

 ------ MM Energies ------
   Ebond:           543.646997521558
   Eangle:          895.547744723932
   EUreyBrad:         0.000000000000
   Eimptors:          0.000000000000
   Etorsion:        229.364678837979
   Evdw:        1024931.888674181188
   Ecoulomb:        186.471092638427
   Etot:        1026786.919187903055 Kcal/mol (   1636.289118555635 hartree)
 -------------------------
 Time req'd to calc MM energy: 0.1 s (CPU) 0.1 s (wall)
 OPLSAA force field loaded.
Reading user-defined FF parameters...
 Reading user defined atom types.
 Found 3 user defined AtomTypes
finished.
 Time req'd to get MM system information: 0.0 s (CPU) 0.0 s (wall)
 Time req'd to calc MM gradient: 0.2 s (CPU) 0.2 s (wall)
   **** Step 2: MM calculation on the model system **** 
 Reading user defined atom types.
 Found 3 user defined AtomTypes
 ----------------------------------------------------------------
             Standard Nuclear Orientation (Bohr)
    I     Atom           X                Y                Z
 ----------------------------------------------------------------
    1      Fe    381.6050868100    39.6427451500    61.1103100200
    2      C     380.7909440100    36.6893187900    59.9299113100
    3      C     382.1955765800    42.5835737100    62.8004599500
    4      C     384.6235925700    38.4676589800    61.9873717200
    5      C     381.0582516300    41.0711663300    57.9018462300
    6      C     378.7039474200    39.3060213700    62.8868130000
    7      O     379.8422548000    34.8409766100    59.1528815900
    8      O     382.4998691900    44.5238940800    63.7969458600
    9      O     386.3423202200    37.3830787900    62.9139056600
   10      O     380.8707931900    41.8541972900    55.8209722400
   11      O     376.9065787200    38.8907390200    64.0874689400
 ----------------------------------------------------------------
 Nuclear Repulsion Energy =         800.36524966 hartrees
 There are       48 alpha and       48 beta electrons
 OPLSAA force field loaded.
Reading user-defined FF parameters...
 Reading user defined atom types.
 Found 3 user defined AtomTypes
finished.
Determining VDW/Coulomb pairs... (useList = 0)

 No MM bonds in system. Return all possible pairs.
 Time req'd to get MM system information: 0.0 s (CPU) 0.0 s (wall)

 ------ MM Energies ------
   Ebond:             0.000000000000
   Eangle:            0.000000000000
   EUreyBrad:         0.000000000000
   Eimptors:          0.000000000000
   Etorsion:          0.000000000000
   Evdw:        1025337.842442835448
   Ecoulomb:         -6.424048518043
   Etot:        1025331.418394317385 Kcal/mol (   1633.969630387168 hartree)
 -------------------------
 Eold: 1636.2891186 mm_energy: 1633.9696304 Enew:    2.3194882
 Time req'd to calc MM energy: 0.0 s (CPU) 0.0 s (wall)
 OPLSAA force field loaded.
Reading user-defined FF parameters...
 Reading user defined atom types.
 Found 3 user defined AtomTypes
finished.
Determining VDW/Coulomb pairs... (useList = 0)

 No MM bonds in system. Return all possible pairs.
 Time req'd to get MM system information: 0.0 s (CPU) 0.0 s (wall)
 Number of fixed atoms: 0
 Time req'd to calc MM gradient: 0.0 s (CPU) 0.0 s (wall)
   **** Step 3: QM calculation on the model system **** 
 Requested basis set is def2-mSVP
 There are 80 shells and 174 basis functions

                       Distance Matrix (Bohrs)
             Fe(  1)   C (  2)   C (  3)   C (  4)   C (  5)   C (  6)
   C (  2)  3.283123
   C (  3)  3.442929  6.704870
   C (  4)  3.355807  4.699450  4.847384
   C (  5)  3.554385  4.835813  5.251409  6.015100
   C (  6)  3.418473  4.466089  4.789706  6.045994  5.788642
   O (  7)  5.476868  2.218142  8.876416  6.636893  6.469853  5.930819
   O (  8)  5.643072  8.902525  2.202367  6.668039  6.982248  6.516407
   O (  9)  5.549813  6.340607  6.652330  2.233563  8.163584  7.876749
   O ( 10)  5.779862  6.600434  7.141449  7.973495  2.231214  7.817578
   O ( 11)  5.612929  6.100806  6.577759  8.008852  7.762254  2.201038
             O (  7)   O (  8)   O (  9)   O ( 10)
   O (  8) 11.062962
   O (  9)  7.928331  8.156925
   O ( 10)  7.832291  8.567224 10.011904
   O ( 11)  7.026302  7.943660  9.627227  9.634939

 A cutoff of  1.0D-11 yielded   2492 shell pairs
 There are     12856 function pairs (     14718 Cartesian)
 Smallest overlap matrix eigenvalue = 2.57E-03
 Guess MOs from SCF MO coefficient file
 Reading MOs from coefficient file
 Reading MOs from coefficient file
 A restricted Kohn-Sham SCF calculation will be
 performed using Pulay DIIS extrapolation
 Exchange:  B88      Correlation:  P86
 Using SG-1 standard quadrature grid
 SCF converges when DIIS error is below 1.0E-08
 Using Q-Chem read-in guess as SCF_GUESS READ specified.

 using 2 threads for integral computing
 -------------------------------------------------------
 OpenMP Integral computing Module                
 Release: version 1.0, May 2013, Q-Chem Inc. Pittsburgh 
 -------------------------------------------------------
 ---------------------------------------
  Cycle       Energy         DIIS Error
 ---------------------------------------
    1   -1830.5186733969      2.50E-09
    2   -1830.5186733971      2.80E-08
    3   -1830.5186733968      2.31E-09 Convergence criterion met
 ---------------------------------------
 SCF time:  CPU 3.95 s  wall 2.08 s
 E(QM + QM/MM):    -1830.5186733968 E(MM):    2.3194882 E(Tot): -1828.199185228382 
 SCF   energy in the final basis set = -1828.19918523
 Total energy in the final basis set = -1828.19918523

 --------------------------------------------------------------

                    Orbital Energies (a.u.)
 --------------------------------------------------------------

 Alpha MOs
 -- Occupied --
******** -29.6364 -25.5957 -25.5852 -25.5783 -18.8898 -18.8843 -18.8818
-18.8801 -18.8687 -10.0569 -10.0531 -10.0514 -10.0503 -10.0400  -3.3221
 -2.1584  -2.1373  -2.1213  -1.0607  -1.0543  -1.0495  -1.0455  -1.0325
 -0.5788  -0.5276  -0.5235  -0.5190  -0.5132  -0.4575  -0.4475  -0.4376
 -0.4349  -0.4314  -0.4283  -0.4243  -0.4194  -0.4138  -0.4093  -0.4056
 -0.4029  -0.3958  -0.3909  -0.3788  -0.2834  -0.2718  -0.2365  -0.2234
 -- Virtual --
 -0.0987  -0.0931  -0.0878  -0.0851  -0.0813  -0.0747  -0.0655  -0.0615
 -0.0484  -0.0403  -0.0207   0.0122   0.1900   0.2085   0.2210   0.2512
  0.2937   0.3285   0.3401   0.3995   0.4083   0.4148   0.4235   0.4418
  0.4450   0.4808   0.4986   0.5074   0.5185   0.5493   0.5628   0.5904
  0.5939   0.6178   0.6272   0.6413   0.7414   0.7560   0.7584   0.7725
  0.7828   0.8276   0.8341   0.8545   0.8771   0.9185   0.9386   0.9533
  0.9634   0.9706   0.9807   1.0004   1.0141   1.0263   1.0323   1.0580
  1.2107   1.2312   1.2505   1.3358   1.3996   1.4025   1.4113   1.4128
  1.4166   1.4202   1.4240   1.4305   1.4388   1.4645   1.4789   1.4814
  1.5071   1.5367   1.5488   1.5700   1.6242   1.6282   1.6610   1.6670
  1.7092   1.8158   1.8264   1.8323   1.8378   1.8402   1.8440   1.8501
  1.8553   1.8608   1.8772   1.8818   1.8931   1.9112   1.9313   1.9518
  2.3561   2.3835   2.4161   2.4328   2.4504   2.4573   2.4708   2.4750
  2.4956   2.5182   2.6244   2.6385   2.6444   2.6641   2.6793   2.8083
  2.8182   2.8678   2.8897   2.9580  13.2667  13.2867  13.3092  13.3533
 13.4594  24.9051  24.9305  24.9527  24.9544  25.0217
 --------------------------------------------------------------

          Ground-State Mulliken Net Atomic Charges

     Atom                 Charge (a.u.)
  ----------------------------------------
      1 Fe                   -0.444225
      2 C                     0.169140
      3 C                     0.209965
      4 C                     0.202768
      5 C                     0.244163
      6 C                     0.218191
      7 O                    -0.126433
      8 O                    -0.107149
      9 O                    -0.137884
     10 O                    -0.118307
     11 O                    -0.110230
  ----------------------------------------
  Sum of atomic charges =     0.000000

 -----------------------------------------------------------------
                    Cartesian Multipole Moments
 -----------------------------------------------------------------
    Charge (ESU x 10^10)
                -0.0000
    Dipole Moment (Debye)
         X      -0.2040556169      Y       0.4789460635      Z      -0.0964374463
       Tot       0.5294602983
    Quadrupole Moments (Debye-Ang)
        XX    -152.3655     XY      92.3435     YY     -49.5578
        XZ     -26.6220     YZ      14.0241     ZZ     -76.0609
    Octopole Moments (Debye-Ang^2)
       XXX  -67325.3779    XXY   16305.9080    XYY  -10095.1471
       YYY   -3743.3958    XXZ   -9088.9392    XYZ    2680.4177
       YYZ   -1622.0508    XZZ  -15600.0882    YZZ   -1059.4468
       ZZZ   -7071.0018
    Hexadecapole Moments (Debye-Ang^3)
      XXXX ************   XXXY 2525692.2675   XXYY ************
      XYYY -757584.2012   YYYY -166343.5096   XXXZ ************
      XXYZ  463345.3921   XYYZ -330586.3253   YYYZ -121284.6490
      XXZZ ************   XYZZ -219003.2154   YYZZ  -84092.3258
      XZZZ ************   YZZZ -130482.9045   ZZZZ -451138.8787
 -----------------------------------------------------------------
 Calculating MO derivatives via CPSCF
 Full subspace dimension requested for CIS/TDDFT
 MAX_CIS_SUBSPACE fits in available memory
    1     0    36    0.0413013  
    2     0    36    0.0064405  
    3     0    36    0.0007356  
    4     0    36    0.0000524  
    5    35     1    0.0000015  
    6    36     0    0.0000000  Converged
 Time for AOints: 6.6 s (CPU) 3.3 s (wall)
 ------------------------------------------------------------------------------
                     AOints        : Timing summary (seconds)
 ------------------------------------------------------------------------------
     job step          cpu (% of tot)      sys (% of tot)     wall (% of tot)
 ------------------------------------------------------------------------------
  AOints            0.6580E+01 ( 3.6)   0.1000E-04 ( 8.6)   0.3350E+01 ( 3.7)
 ------------------------------------------------------------------------------
   Grand Totals     0.1813E+03          0.1160E-03          0.9146E+02
 ------------------------------------------------------------------------------
 Polarizability Matrix (a.u.)
            1           2           3
    1 -89.4801772  -2.6746939  -4.0110983
    2  -2.6746939 -95.4981465  -3.9236754
    3  -4.0110983  -3.9236754 -90.3325938
 Derivative of Dipole Moment Matrix (a.u.)
            1           2           3
    1  -1.8520139   0.0715681  -0.0209292
    2  -0.0781400  -1.9390946  -0.0284209
    3  -0.0012661  -0.0384533  -1.8563682
    4   0.5713824   0.5579959   0.2390770
    5   0.4062649   1.8221720   0.5545296
    6   0.1424201   0.5414706   0.6468005
    7   0.4720710   0.2164451   0.1308768
    8   0.3286795   1.8139949   0.7354962
    9   0.1675195   0.7777365   0.8708461
   10   1.7948240  -0.5903590   0.4897317
   11  -0.8139476   0.7579044  -0.2726136
   12   0.6533337  -0.2648563   0.6247878
   13   0.4707238  -0.1191513   0.2025054
   14  -0.0710983   0.6709543  -0.6107760
   15   0.1716297  -0.7816665   2.0621630
   16   1.6719636   0.1855948  -0.9211046
   17   0.2942237   0.3869179  -0.2255113
   18  -0.8302303  -0.1469215   0.9776985
   19  -0.3125326  -0.5293080  -0.2216901
   20  -0.3193438  -1.2205009  -0.4333812
   21  -0.1302903  -0.4264765  -0.3375817
   22  -0.1844710  -0.1725090  -0.0968570
   23  -0.2432642  -1.2903963  -0.6185950
   24  -0.1291228  -0.6119345  -0.4953883
   25  -1.2378370   0.4517739  -0.3549296
   26   0.6920806  -0.4594999   0.2384508
   27  -0.5729273   0.2493673  -0.3744637
   28  -0.1991793   0.0672241  -0.1329510
   29   0.0593496  -0.3668172   0.4793195
   30  -0.1544435   0.5951575  -1.5031725
   31  -1.1949309  -0.1392746   0.6862706
   32  -0.2548044  -0.1756347   0.1815019
   33   0.6833774   0.1065767  -0.6153215
 -----------------------------------------
 Net:   0.00000  -0.00000  -0.00000
 -----------------------------------------

 Calculating analytic Hessian of the SCF energy
