                  Welcome to Q-Chem
     A Quantum Leap Into The Future Of Chemistry


 Q-Chem 5.4 (devel), Q-Chem, Inc., Pleasanton, CA (2021)

 E. Epifanovsky,  A. T. B. Gilbert,  Xintian Feng,  Joonho Lee,  Yuezhi Mao,  
 N. Mardirossian,  P. Pokhilko,  A. White,  M. Wormit,  M. P. Coons,  
 A. L. Dempwolff,  Zhengting Gan,  D. Hait,  P. R. Horn,  L. D. Jacobson,  
 I. Kaliman,  J. Kussmann,  A. W. Lange,  Ka Un Lao,  D. S. Levine,  Jie Liu,  
 S. C. McKenzie,  A. F. Morrison,  K. Nanda,  F. Plasser,  D. R. Rehn,  
 M. L. Vidal,  Zhi-Qiang You,  Ying Zhu,  B. Alam,  B. Albrecht,  
 A. Aldossary,  E. Alguire,  J. H. Andersen,  D. Barton,  K. Begam,  A. Behn,  
 Y. A. Bernard,  E. J. Berquist,  H. Burton,  A. Carreras,  K. Carter-Fenk,  
 R. Chakraborty,  A. D. Chien,  K. D. Closser,  V. Cofer-Shabica,  
 S. Dasgupta,  Jia Deng,  M. de Wergifosse,  M. Diedenhofen,  Hainam Do,  
 S. Ehlert,  Po-Tung Fang,  S. Fatehi,  Qingguo Feng,  T. Friedhoff,  
 J. Gayvert,  Qinghui Ge,  G. Gidofalvi,  M. Goldey,  J. Gomes,  
 C. Gonzalez-Espinoza,  S. Gulania,  A. Gunina,  M. W. D. Hanson-Heine,  
 P. H. P. Harbach,  A. W. Hauser,  M. F. Herbst,  M. Hernandez Vera,  
 M. Hodecker,  Z. C. Holden,  S. Houck,  Xunkun Huang,  Kerwin Hui,  
 B. C. Huynh,  M. Ivanov,  Hyunjun Ji,  Hanjie Jiang,  B. Kaduk,  S. Kaehler,  
 K. Khistyaev,  Jaehoon Kim,  P. Klunzinger,  Z. Koczor-Benda,  
 Joong Hoon Koh,  D. Kosenkov,  L. Koulias,  T. Kowalczyk,  C. M. Krauter,  
 K. Kue,  A. Kunitsa,  T. Kus,  A. Landau,  K. V. Lawler,  D. Lefrancois,  
 S. Lehtola,  Rain Li,  Yi-Pei Li,  Jiashu Liang,  M. Liebenthal,  
 Hung-Hsuan Lin,  You-Sheng Lin,  Fenglai Liu,  Kuan-Yu Liu,  
 M. Loipersberger,  A. Luenser,  A. Manjanath,  P. Manohar,  E. Mansoor,  
 S. F. Manzer,  Shan-Ping Mao,  A. V. Marenich,  T. Markovich,  S. Mason,  
 S. A. Maurer,  P. F. McLaughlin,  M. F. S. J. Menger,  J.-M. Mewes,  
 S. A. Mewes,  P. Morgante,  J. W. Mullinax,  K. J. Oosterbaan,  G. Paran,  
 Alexander C. Paul,  Suranjan K. Paul,  F. Pavosevic,  Zheng Pei,  S. Prager,  
 E. I. Proynov,  E. Ramos,  B. Rana,  A. E. Rask,  A. Rettig,  R. M. Richard,  
 F. Rob,  E. Rossomme,  T. Scheele,  M. Scheurer,  M. Schneider,  
 N. Sergueev,  S. M. Sharada,  W. Skomorowski,  D. W. Small,  C. J. Stein,  
 Yu-Chuan Su,  E. J. Sundstrom,  Zhen Tao,  J. Thirman,  T. Tsuchimochi,  
 N. M. Tubman,  S. P. Veccham,  O. Vydrov,  J. Wenzel,  J. Witte,  A. Yamada,  
 Kun Yao,  S. Yeganeh,  S. R. Yost,  A. Zech,  Igor Ying Zhang,  Xing Zhang,  
 Yu Zhang,  D. Zuev,  A. Aspuru-Guzik,  A. T. Bell,  N. A. Besley,  
 K. B. Bravaya,  B. R. Brooks,  D. Casanova,  Jeng-Da Chai,  S. Coriani,  
 C. J. Cramer,  A. E. DePrince, III,  R. A. DiStasio Jr.,  A. Dreuw,  
 B. D. Dunietz,  T. R. Furlani,  W. A. Goddard III,  S. Grimme,  
 S. Hammes-Schiffer,  T. Head-Gordon,  W. J. Hehre,  Chao-Ping Hsu,  
 T.-C. Jagau,  Yousung Jung,  A. Klamt,  Jing Kong,  D. S. Lambrecht,  
 WanZhen Liang,  N. J. Mayhall,  C. W. McCurdy,  J. B. Neaton,  
 C. Ochsenfeld,  J. A. Parkhill,  R. Peverati,  V. A. Rassolov,  Yihan Shao,  
 L. V. Slipchenko,  T. Stauch,  R. P. Steele,  J. E. Subotnik,  
 A. J. W. Thom,  A. Tkatchenko,  D. G. Truhlar,  T. Van Voorhis,  
 T. A. Wesolowski,  K. B. Whaley,  H. L. Woodcock III,  P. M. Zimmerman,  
 S. Faraji,  P. M. W. Gill,  M. Head-Gordon,  J. M. Herbert,  A. I. Krylov

 Additional authors for Version 5.4.1: 
 S. Kotaru,  Shaozhi Li,  Xiangyuan Li,  F. Matz,  A. Molle,  Haisheng Ren,  
 Yingli Su,  Hung-Yi Tsai,  C. Utku,  Fang Wang

 Contributors to earlier versions of Q-Chem not listed above: 
 R. D. Adamson,  B. Austin,  R. Baer,  J. Baker,  G. J. O. Beran,  
 K. Brandhorst,  S. T. Brown,  E. F. C. Byrd,  A. K. Chakraborty,  
 G. K. L. Chan,  Chun-Min Chang,  Yunqing Chen,  C.-L. Cheng,  
 Siu Hung Chien,  D. M. Chipman,  D. L. Crittenden,  H. Dachsel,  
 R. J. Doerksen,  A. D. Dutoi,  R. G. Edgar,  J. Fosso-Tande,  
 L. Fusti-Molnar,  D. Ghosh,  A. Ghysels,  A. Golubeva-Zadorozhnaya,  
 J. Gonthier,  M. S. Gordon,  S. R. Gwaltney,  G. Hawkins,  J. E. Herr,  
 A. Heyden,  S. Hirata,  E. G. Hohenstein,  G. Kedziora,  F. J. Keil,  
 C. Kelley,  Jihan Kim,  R. A. King,  R. Z. Khaliullin,  P. P. Korambath,  
 W. Kurlancheek,  A. Laurent,  A. M. Lee,  M. S. Lee,  S. V. Levchenko,  
 Ching Yeh Lin,  D. Liotard,  E. Livshits,  R. C. Lochan,  I. Lotan,  
 L. A. Martinez-Martinez,  P. E. Maslen,  N. Nair,  D. P. O'Neill,  
 D. Neuhauser,  E. Neuscamman,  C. M. Oana,  R. Olivares-Amaya,  R. Olson,  
 T. M. Perrine,  B. Peters,  P. A. Pieniazek,  A. Prociuk,  Y. M. Rhee,  
 J. Ritchie,  M. A. Rohrdanz,  E. Rosta,  N. J. Russ,  H. F. Schaefer III,  
 M. W. Schmidt,  N. E. Schultz,  S. Sharma,  N. Shenvi,  C. D. Sherrill,  
 A. C. Simmonett,  A. Sodt,  T. Stein,  D. Stuck,  K. S. Thanthiriwatte,  
 V. Vanovschi,  L. Vogt,  Tao Wang,  A. Warshel,  M. A. Watson,  
 C. F. Williams,  Q. Wu,  X. Xu,  Jun Yang,  W. Zhang,  Yan Zhao

 Please cite Q-Chem as follows:
 Y. Shao et al., Mol. Phys. 113, 184-215 (2015)
 DOI: 10.1080/00268976.2014.952696

 Q-Chem 5.4.1 for Intel X86 EM64T Linux

 Parts of Q-Chem use Armadillo 9.900.5 (Nocturnal Misbehaviour).
 http://arma.sourceforge.net/

 Q-Chem begins on Wed Jun 22 08:05:25 2022  

 Host: p09r16n04.grace.hpc.yale.internal
0

     Scratch files written to /home/tl686/scratch60/qchem_dev/scratch/qchem69903//
 Processing $rem in /home/tl686/qchem_dev/qchem/config/preferences:
 Processing $rem in /home/tl686/.qchemrc:
Applying user defined connections for MM calculations

 Checking the input file for inconsistencies... 	...done.

--------------------------------------------------------------
User input:
--------------------------------------------------------------
$molecule
0   1
 Fe 930.21271193 -56.07552304 68.53344040    -1  0   0   0   0
C 929.72798557 -55.29066342 71.84554442    -2  0   0   0   0 
C 930.85285221 -55.56794697 65.29226537    -2  0   0   0   0
C 933.45352506 -55.03741062 69.14258235    -2  0   0   0   0
C 929.93592669 -59.57903642 68.32259966    -2  0   0   0   0
C 927.14889526 -54.99519401 67.86399501    -2  0   0   0   0
O 929.69982712 -54.86921674 74.03058708    -3  0   0   0   0
O 931.36745455 -55.15703835 63.18893843    -3  0   0   0   0 
O 935.47184399 -54.54383029 69.79274174    -3  0   0   0   0
O 929.89450072 -61.83613452 68.26493726    -3  0   0   0   0 
O 924.98280205 -54.37052113 67.51718867    -3  0   0   0   0
H 940.42788636 -66.91334254 91.55098177      6     13    0    0    0 
C 942.28585003 -67.56088322 90.83325636     1     12    14    15    16
H 943.30962109 -65.86478505 90.26956157     6     13    0    0    0
H 943.31857755 -68.72841065 92.21293812     6     13    0    0    0
C 941.87204012 -69.25096886 88.55442335     2     13    17    18    19
H 942.27233035 -68.30060577 86.78111232     6     16    0    0    0
H 943.37647101 -70.64471913 88.79432868     6     16    0    0    0
C 939.48226049 -70.81708132 88.43397356     2     16    20   21   22
H 938.96903165 -71.65001810 90.15081399     6     19    0    0    0
H 937.92065988 -69.41387025 88.27086160     6     19    0    0    0
C 939.27882968 -72.73848664 86.28051487     2     19   23   24   25
H 939.61566473 -71.64799103 84.57426605     6    22    0    0    0
H 940.81131630 -74.13864697 86.46691425     6    22    0    0    0
C 936.67616545 -73.72646695 85.81031126     2    22   26   27   28
H 935.68928709 -74.63479527 87.46859735     6    25    0    0    0
H 935.49789418 -72.16375203 85.65976206     6    25    0    0    0
C 936.73783763 -75.35359824 83.35983883     2    25   29   30   31
H 938.10444075 -74.77309414 82.01475625     6    28    0    0    0
H 937.26806207 -77.25846352 83.87891108     6    28    0    0    0
C 934.27062875 -75.45718381 81.94394004     2    28   32   33   34
H 932.86872534 -75.83941013 83.29081880     6    31    0    0    0
H 933.68594830 -73.78534643 80.84439458     6    31    0    0    0
C 934.23846449 -77.73073946 80.10742430     2    31   35   36   37
H 935.96240350 -77.61670110 79.08294774     6    34    0    0    0
H 934.62340351 -79.48203209 81.18757276     6    34    0    0    0
C 932.01065827 -77.73042668 78.43247453     2    34   38   39   40
H 930.38566801 -78.41753426 79.44847012     6    37    0    0    0
H 931.62746529 -75.76816244 77.92398572     6    37    0    0    0
C 932.43406236 -79.41603127 76.10960576     2    37   41   42   43
H 934.19089064 -79.08620872 75.28307088     6    40    0    0    0
H 932.29342322 -81.27682913 76.68202785     6    40    0    0    0
C 930.13957647 -78.99421817 74.25694175     2    40   44   45   46
H 928.35888220 -79.37729510 75.35948814     6    43    0    0    0
H 929.79880520 -77.03748736 73.75911225     6    43    0    0    0
C 930.23724348 -80.78678911 71.95442370     1    43   47   48   49
H 932.08759248 -80.78746107 71.21126826     6    46    0    0    0
H 928.97258265 -80.00947699 70.37366302     6    46    0    0    0
H 930.09990674 -82.80096394 72.36426555     6    46    0    0    0
H 925.70735644 -68.81718179 69.03672930     6     51    0    0    0 
C 927.58880580 -68.24297703 68.60738235     1     50    52    53    54
H 927.58589446 -67.31478325 66.76261019     6     51    0    0    0
H 927.87561855 -66.80223541 69.94595768     6     51    0    0    0
C 929.50239896 -70.49073655 68.94167965     2     51    55    56    57
H 931.51871290 -69.86289173 68.49959325     6     54    0    0    0
H 929.49077525 -70.84965315 70.95108666     6     54    0    0    0
C 928.81586122 -73.10705217 67.64776794     2     54    58   59   60
H 928.29119490 -72.67100652 65.64456377     6     57    0    0    0
H 930.34585198 -74.36106519 67.39282795     6     57    0    0    0
C 926.48581322 -74.29768235 68.74290092     2     57   61   62   63
H 926.77421787 -74.67561924 70.81144046     6    60    0    0    0
H 924.90719011 -72.94237979 68.72996916     6    60    0    0    0
C 925.50926286 -76.53384264 67.20696872     2    60   64   65   66
H 925.21563552 -75.99036752 65.15737158     6    63    0    0    0
H 926.95339705 -77.96633591 67.15017223     6    63    0    0    0
C 923.12385589 -77.52646668 68.34298439     2    63   67   68   69
H 922.80784211 -79.39500165 67.61745392     6    66    0    0    0
H 923.44375101 -77.73130187 70.38325460     6    66    0    0    0
C 920.84803555 -75.88201485 67.45767326     2    66   70   71   72
H 921.20612102 -73.95826197 68.28177125     6    69    0    0    0
H 920.66465471 -75.98429671 65.43470733     6    69    0    0    0
C 918.29900713 -76.73301737 68.66805304     2    69   73   74   75
H 917.90992027 -78.65714699 68.12737657     6    72    0    0    0
H 918.53888835 -76.73121165 70.70028929     6    72    0    0    0
C 915.85613972 -75.22186365 67.78527552     2    72   76   77   78
H 916.03550938 -73.18183414 68.07023845     6    75    0    0    0
H 915.71353925 -75.49245429 65.76372328     6    75    0    0    0
C 913.39617653 -76.40805267 68.87770950     2    75   79   80   81
H 913.28042932 -78.27004392 68.18984194     6    78    0    0    0
H 913.38908644 -76.42968968 70.96726819     6    78    0    0    0
C 910.97855721 -74.81671074 68.16200880     2    78   82   83   84
H 910.39976612 -73.34812585 69.53438900     6    81    0    0    0
H 911.08549886 -73.96078974 66.32983691     6    81    0    0    0
C 908.75693626 -76.73721787 68.00642209     1    81   85   86   87
H 909.21156604 -78.08266110 66.66328223     6    84    0    0    0
H 906.94859928 -75.82730617 67.25402911     6    84    0    0    0
H 908.19235579 -77.73422930 69.76965536     6    84    0    0    0
H 953.79553674 -80.35775082 76.23033530     6     89    0    0    0 
C 952.75300329 -82.11057632 76.41464888     1     88    90    91    92
H 950.76848226 -81.58700690 76.61555267     6     89    0    0    0
H 952.70468193 -83.31106808 74.58565879     6     89    0    0    0
C 953.71944207 -83.89277567 78.47672977     2     89    93    94    95
H 955.79824263 -84.32474164 78.00721147     6     92    0    0    0
H 953.62801502 -83.04409547 80.27758766     6     92    0    0    0
C 952.03778905 -86.43093495 78.43414913     2     92    96   97   98
H 952.01234762 -87.39457123 76.54644105     6     95    0    0    0
H 953.03116141 -87.81290160 79.56700544     6     95    0    0    0
C 949.37370526 -86.29734023 79.37124837     2     95   99   100   101
H 949.65627381 -85.94563912 81.32912740     6    98    0    0    0
H 948.33589181 -84.93207767 78.40734449     6    98    0    0    0
C 948.14951198 -88.82918181 79.10259287     2    98   102   103   104
H 948.41419623 -89.36434368 77.02675437     6    101    0    0    0
H 948.88052049 -90.27401341 80.36630625     6    101    0    0    0
C 945.24769958 -88.46392059 79.61888635     2    101   105   106   107
H 944.99196733 -87.15826451 81.20441860     6    104    0    0    0
H 944.31929666 -87.78655158 78.02358577     6    104    0    0    0
C 943.93961635 -91.02928810 80.07463156     2    104   108   109   110
H 944.61903490 -92.52803031 78.88045121     6    107    0    0    0
H 944.24058259 -91.82428596 82.05492338     6    107    0    0    0
C 941.01491295 -90.65853150 79.72637802     2    107   111   112   113
H 940.49422348 -88.95017468 80.81084439     6    110    0    0    0
H 940.57443485 -89.95859662 77.73682167     6    110    0    0    0
C 939.53926597 -92.96297171 80.52668138     2    110   114   115   116
H 940.18999715 -94.54128120 79.33815472     6    113    0    0    0
H 939.74254703 -93.59353027 82.40326272     6    113    0    0    0
C 936.51536309 -92.29728206 80.40542702     2    113   117   118   119
H 936.24039727 -90.73452704 81.67416846     6    116    0    0    0
H 935.70648171 -91.87533241 78.56877101     6    116    0    0    0
C 934.92775665 -94.52399833 81.59465782     2    116   120   121   122
H 933.05638605 -94.10723547 80.80935767     6    119    0    0    0
H 935.65854389 -96.30523981 80.81984259     6    119    0    0    0
C 934.71543746 -94.45572575 84.56830018     1    119   123   124   125
H 933.38069522 -95.84436044 85.40071422     6    122    0    0    0
H 933.75946808 -92.54898086 84.90953389     6    122    0    0    0
H 936.59987316 -94.62400237 85.23156179     6    122    0    0    0
H 957.14709431 -69.40505999 68.80965092     6     127    0    0    0 
C 957.37456916 -67.36908929 69.33632563     1     126    128    129    130
H 958.34074482 -67.12658371 71.13433773     6     127    0    0    0
H 958.72962554 -66.78524539 67.99803377     6     127    0    0    0
C 954.85845221 -65.82851052 69.15946436     2     127    131    132    133
H 953.80876205 -66.25684010 67.49873480     6     130    0    0    0
H 953.67665212 -66.38369960 70.67205009     6     130    0    0    0
C 955.30701110 -63.04590482 68.82112359     2     130    134   135   136
H 956.37202730 -62.43444626 70.56682095     6     133    0    0    0
H 956.33129399 -62.70149098 67.15537491     6     133    0    0    0
C 952.98150184 -61.39001362 68.79595586     2     133   137   138   139
H 951.72034995 -62.03347286 67.33165630     6    136    0    0    0
H 951.73776576 -61.92060073 70.43224566     6    136    0    0    0
C 953.73513994 -58.56177230 68.54392916     2    136   140   141   142
H 955.50600873 -58.20178435 69.61280691     6    139    0    0    0
H 954.07898773 -58.05506523 66.58946636     6    139    0    0    0
C 951.41523115 -57.05812079 69.51612029     2    139   143   144   145
H 949.82727834 -57.44973155 68.15043341     6    142    0    0    0
H 950.80130984 -57.46782712 71.47831452     6    142    0    0    0
C 951.75629677 -54.15905597 69.48234564     2    142   146   147   148
H 953.55845537 -53.58234871 70.50814382     6    145    0    0    0
H 952.06649580 -53.44140118 67.60895890     6    145    0    0    0
C 949.61652422 -52.59387725 70.56098515     2    145   149   150   151
H 947.94378814 -52.95291651 69.39768049     6    148    0    0    0
H 949.22049107 -53.31751784 72.53588387     6    148    0    0    0
C 950.44339416 -49.83994711 70.61514839     2    148   152   153   154
H 951.84587324 -49.49396005 72.01847598     6    151    0    0    0
H 951.55531192 -49.33320309 68.90543224     6    151    0    0    0
C 948.03967087 -48.25878508 71.00415087     2    151   155   156   157
H 948.65873396 -46.45064024 70.45403560     6    154    0    0    0
H 946.52327876 -48.87836663 69.86794595     6    154    0    0    0
C 947.39193366 -48.00138680 73.83099453     2    154   158   159   160
H 945.83348075 -46.68582839 73.83037495     6    157    0    0    0
H 946.58885281 -49.56927740 74.83436245     6    157    0    0    0
C 949.55589812 -47.09349124 75.60375297     1    157   161   162   163
H 949.23217054 -46.33413137 77.46282409     6    160    0    0    0
H 950.17561163 -45.36507562 74.70636878     6    160    0    0    0
H 951.19655120 -48.13681251 75.59177785     6    160    0    0    0
H 951.29094677 -79.39645123 55.33710913     6     165    0    0    0 
C 951.99363276 -77.77547511 56.45797644     1     164    166    167    168
H 950.54711432 -77.03024604 57.67643418     6     165    0    0    0
H 953.50814369 -78.38658289 57.62512758     6     165    0    0    0
C 953.34618303 -76.10058032 54.60219509     2     165    169    170    171
H 954.36628423 -77.34653379 53.41094753     6     168    0    0    0
H 951.85241699 -75.34258774 53.34366916     6     168    0    0    0
C 954.99731142 -74.00307397 55.60044955     2     168    172   173   174
H 953.87884342 -72.57688118 56.77328425     6     171    0    0    0
H 956.60680395 -74.78036774 56.70979801     6     171    0    0    0
C 955.96674949 -72.45581995 53.29962442     2     171   175   176   177
H 957.00615845 -73.62036087 52.06965505     6    174    0    0    0
H 954.51888259 -71.73410354 52.09677556     6    174    0    0    0
C 957.47830334 -70.11882244 54.48727163     2    174   178   179   180
H 956.32553175 -69.35918623 55.98833501     6    177    0    0    0
H 959.23062772 -70.60078364 55.32909622     6    177    0    0    0
C 958.00242937 -68.19179384 52.46121945     2    177   181   182   183
H 958.81252428 -68.89303602 50.76158716     6    180    0    0    0
H 956.25950151 -67.13565528 51.93563326     6    180    0    0    0
C 959.55983330 -66.01340966 53.41843926     2    180   184   185   186
H 958.91555223 -65.64905596 55.33336775     6    183    0    0    0
H 961.49632110 -66.56366795 53.76337360     6    183    0    0    0
C 959.31530063 -63.59487065 51.84328582     2    183   187   188   189
H 960.42256610 -63.70443252 50.24784718     6    186    0    0    0
H 957.28197441 -63.29642041 51.20391797     6    186    0    0    0
C 959.88215981 -61.18320387 53.37419227     2    186   190   191   192
H 958.37975579 -61.02904407 54.76459619     6    189    0    0    0
H 961.69517819 -61.48762743 54.38990250     6    189    0    0    0
C 959.76851458 -58.77234723 51.86438025     2    189   193   194   195
H 960.84770851 -58.99143956 50.06630975     6    192    0    0    0
H 957.83757782 -58.33118246 51.61224791     6    192    0    0    0
C 960.60765432 -56.55741224 53.61621873     2    192   196   197   198
H 959.76898371 -56.69004844 55.48308634     6    195    0    0    0
H 962.66490182 -56.50561599 53.87461869     6    195    0    0    0
C 959.91188429 -53.96468880 52.54163320     1    195   199   200   201
H 957.78747760 -53.62489790 52.17782228     6    198    0    0    0
H 960.93129388 -53.44492902 50.87712267     6    198    0    0    0
H 960.69916574 -52.63153268 53.86352413     6    198    0    0    0
H 938.89550231 -71.99523457 56.81859904     6     203    0    0    0 
C 940.25114246 -73.52529939 56.04900906     1     202    204    205    206
H 941.40850776 -72.79023913 54.62783664     6     203    0    0    0
H 941.56928303 -74.32811075 57.38094340     6     203    0    0    0
C 939.02860297 -75.86327777 55.06391169     2     203    207    208    209
H 940.43413875 -77.27125540 54.92640688     6     206    0    0    0
H 937.75830820 -76.56589815 56.38018672     6     206    0    0    0
C 937.46555045 -75.77557500 52.60788737     2     206    210   211   212
H 937.09673156 -77.81376112 52.11746468     6     209    0    0    0
H 935.39684026 -75.31149202 53.10547390     6     209    0    0    0
C 938.51304661 -74.40249512 50.27756560     2     209   213   214   215
H 938.75758246 -72.42638563 50.77929398     6    212    0    0    0
H 940.40727735 -75.19324450 50.13361631     6    212    0    0    0
C 937.19946676 -75.00810480 47.76222023     2    212   216   217   218
H 936.73084767 -76.98133067 47.61974949     6    215    0    0    0
H 935.36038530 -74.21830524 47.67152507     6    215    0    0    0
C 938.77449562 -74.36279667 45.35626548     2    215   219   220   221
H 939.23440575 -72.31496071 45.47346975     6    218    0    0    0
H 940.53704033 -75.59530698 45.17969495     6    218    0    0    0
C 937.35333351 -74.48454569 42.74458489     2    218   222   223   224
H 938.75073484 -74.75506534 41.33901616     6    221    0    0    0
H 936.20234224 -76.11691682 42.69332617     6    221    0    0    0
C 935.62203692 -72.37500599 41.96978670     2    221   225   226   227
H 934.61481073 -71.66799671 43.74036152     6    224    0    0    0
H 936.57199483 -70.72956802 41.37974523     6    224    0    0    0
C 933.59173708 -72.93874110 39.89009558     2    224   228   229   230
H 934.35935770 -73.99780117 38.26852140     6    227    0    0    0
H 932.06442848 -73.89696209 40.80342315     6    227    0    0    0
C 932.71724184 -70.60528509 38.53624011     2    227   231   232   233
H 931.57705695 -69.56652758 39.94358103     6    230    0    0    0
H 934.32848651 -69.53693854 37.75288167     6    230    0    0    0
C 930.85531429 -71.21308622 36.43063721     2    230   234   235   236
H 930.72337713 -69.58986618 35.40608763     6    233    0    0    0
H 931.58408575 -72.67080706 35.12846734     6    233    0    0    0
C 928.28553425 -71.99089568 37.40174914     1    233   237   238   239
H 926.94276402 -72.38502484 35.79102272     6    236    0    0    0
H 927.54230351 -70.35636016 38.61594823     6    236    0    0    0
H 928.20071915 -73.59919683 38.63017010     6    236    0    0    0
H 918.96298610 -89.14479164 69.08827452     6     241    0    0    0 
C 919.44519501 -88.81069624 67.21329044     1     240    242    243    244
H 919.94839710 -90.68583568 66.49444466     6     241    0    0    0
H 917.83744241 -88.06230063 66.05165634     6     241    0    0    0
C 921.65932977 -86.99265927 66.98146166     2     241    245    246    247
H 923.31885243 -87.78071923 67.91855463     6     244    0    0    0
H 922.34711700 -86.49049461 65.06364362     6     244    0    0    0
C 921.13715516 -84.49956480 68.41299530     2     244    248   249   250
H 922.75479394 -83.45228758 67.84202955     6     247    0    0    0
H 919.56318760 -83.55948443 67.64105674     6     247    0    0    0
C 920.84058783 -84.59592624 71.24832413     2     247   251   252   253
H 919.83015206 -82.80663657 72.09280763     6    250    0    0    0
H 919.83831575 -86.37156464 71.81832056     6    250    0    0    0
C 923.34941238 -84.60152180 72.55914565     2    250   254   255   256
H 924.42458683 -86.11850521 71.75492844     6    253    0    0    0
H 924.41734000 -82.95737542 71.89932385     6    253    0    0    0
C 923.29464881 -84.81941023 75.45789559     2    253   257   258   259
H 924.95123957 -83.90332855 76.24009186     6    256    0    0    0
H 921.67676320 -83.85283754 76.27047957     6    256    0    0    0
C 923.34281952 -87.51581955 76.41474220     2    256   260   261   262
H 921.78771354 -88.58119199 75.54845915     6    259    0    0    0
H 925.09955857 -88.38615918 75.83822985     6    259    0    0    0
C 922.92761893 -87.66147893 79.26896076     2    259   263   264   265
H 924.41926358 -86.60050279 80.30070832     6    262    0    0    0
H 921.05431529 -86.98438524 79.61963194     6    262    0    0    0
C 922.84337667 -90.42698101 80.29818347     2    262   266   267   268
H 921.61054043 -90.48411717 81.98145142     6    265    0    0    0
H 922.11782390 -91.72172697 78.82324623     6    265    0    0    0
C 925.29342688 -91.15543202 81.49822300     2    265   269   270   271
H 926.58525106 -91.02081811 79.93424764     6    268    0    0    0
H 926.20725353 -89.77142378 82.71075767     6    268    0    0    0
C 925.39015229 -93.83097696 82.60699973     2    268   272   273   274
H 924.27887769 -93.63727854 84.40584726     6    271    0    0    0
H 924.42347999 -95.22451810 81.41356842     6    271    0    0    0
C 928.06700508 -94.71521179 82.94154765     1    271   275   276   277
H 929.14489921 -94.73127820 81.27602646     6    274    0    0    0
H 928.12160359 -96.43458087 84.12242807     6    274    0    0    0
H 929.21073753 -93.27385382 83.95933198     6    274    0    0    0
H 943.83181772 -82.85871119 58.42699652     6     279    0    0    0 
C 942.12471413 -84.03529019 58.30129195     1     278    280    281    282
H 942.45221375 -85.96136225 57.54517491     6     279    0    0    0
H 941.30497532 -84.36658723 60.23106001     6     279    0    0    0
C 939.80371585 -82.99353972 56.72600462     2     279    283    284    285
H 939.49590403 -80.92505157 57.44303729     6     282    0    0    0
H 940.13307278 -83.08252592 54.69147125     6     282    0    0    0
C 937.30111879 -84.41047369 57.20414635     2     282    286   287   288
H 937.40686904 -86.38327736 56.82111366     6     285    0    0    0
H 936.89589428 -84.14508635 59.21125939     6     285    0    0    0
C 935.08325331 -83.30588589 55.61961168     2     285   289   290   291
H 934.69032532 -81.35615292 56.30183962     6    288    0    0    0
H 935.66717261 -83.08472156 53.68946646     6    288    0    0    0
C 932.85421744 -84.99948659 55.66095012     2    288   292   293   294
H 933.56670049 -86.78855881 54.54770811     6    291    0    0    0
H 932.37148689 -85.50288792 57.53299057     6    291    0    0    0
C 930.72935595 -83.49263772 54.31231508     2    291   295   296   297
H 930.56659793 -81.73957335 55.36952329     6    294    0    0    0
H 931.42756781 -83.32307885 52.32852365     6    294    0    0    0
C 928.33057672 -85.10720406 54.51577767     2    294   298   299   300
H 928.60683654 -86.97930927 53.77873259     6    297    0    0    0
H 928.03366834 -85.75704835 56.44780277     6    297    0    0    0
C 925.91944806 -83.63214713 53.40490919     2    297   301   302   303
H 925.86024911 -81.70841937 54.08490806     6    300    0    0    0
H 925.95425643 -83.71149609 51.31344190     6    300    0    0    0
C 923.40187327 -84.82037250 54.14012697     2    300   304   305   306
H 923.51255484 -86.69636675 53.28346520     6    303    0    0    0
H 923.25524503 -85.01395767 56.24026393     6    303    0    0    0
C 921.29879546 -83.40086861 53.31862331     2    303   307   308   309
H 921.02081450 -81.64389831 54.52531138     6    306    0    0    0
H 921.91536543 -82.70460950 51.49710588     6    306    0    0    0
C 918.84502221 -84.94329566 53.30171467     2    306   310   311   312
H 919.06262528 -86.65928585 52.15568413     6    309    0    0    0
H 918.50099098 -85.55694641 55.14367530     6    309    0    0    0
C 916.33721872 -83.63642676 52.26957566     1    309   313   314   315
H 916.39332432 -82.88899691 50.39784022     6    312    0    0    0
H 915.79075327 -82.00919901 53.39261212     6    312    0    0    0
H 914.62518457 -84.95203687 52.81350355     6    312    0    0    0
H 957.90111392 -67.20594835 79.12325105     6     317    0    0    0 
C 958.19912098 -65.74643652 77.68643612     1     316    318    319    320
H 958.97390045 -64.19703890 78.79548485     6     317    0    0    0
H 959.47394237 -66.38205594 76.31650209     6     317    0    0    0
C 955.77758730 -64.80580508 76.32628861     2     317    321    322    323
H 956.36317832 -63.29769302 75.05002641     6     320    0    0    0
H 955.11970076 -66.51031877 75.22934656     6     320    0    0    0
C 953.73006804 -63.90755610 78.19838559     2     320    324   325   326
H 953.16023916 -65.42662419 79.58379195     6     323    0    0    0
H 954.35153637 -62.35386161 79.35005861     6     323    0    0    0
C 951.44670231 -62.85563518 76.80124948     2     323   327   328   329
H 951.92530456 -61.36053610 75.39215193     6    326    0    0    0
H 950.66891235 -64.22516762 75.64675099     6    326    0    0    0
C 949.58485998 -61.89888332 78.81883305     2    326   330   331   332
H 949.10196590 -63.49464640 80.00873785     6    329    0    0    0
H 950.44569254 -60.45855532 80.12008550     6    329    0    0    0
C 947.36384045 -60.59721950 77.54362845     2    329   333   334   335
H 948.09598236 -59.07027468 76.24860787     6    332    0    0    0
H 946.50914621 -61.87970362 76.14156182     6    332    0    0    0
C 945.24325886 -59.36385687 79.12448060     2    332   336   337   338
H 944.10964403 -60.97255672 79.87274299     6    335    0    0    0
H 946.02532442 -58.47569065 80.88041114     6    335    0    0    0
C 943.59239237 -57.43428150 77.59111837     2    335   339   340   341
H 942.45231754 -56.37682885 79.01753624     6    338    0    0    0
H 944.92600821 -56.03491990 76.94052143     6    338    0    0    0
C 942.10689735 -58.50350708 75.28910446     2    338   342   343   344
H 943.47682203 -59.37107456 74.01679483     6    341    0    0    0
H 940.92978862 -60.16470005 75.98905659     6    341    0    0    0
C 940.52981460 -56.59136622 73.85472925     2    341   345   346   347
H 939.75884426 -57.55230198 72.21091423     6    344    0    0    0
H 938.96155088 -55.78188165 74.97737649     6    344    0    0    0
C 942.15108002 -54.47780359 72.93121960     2    344   348   349   350
H 942.92983605 -53.30349246 74.27846403     6    347    0    0    0
H 943.84529456 -55.09264290 71.82042818     6    347    0    0    0
C 940.80184873 -52.62130784 71.15629111     1    347   351   352   353
H 942.17781940 -51.16765297 70.93405857     6    350    0    0    0
H 939.10727902 -52.00415501 72.10781418     6    350    0    0    0
H 940.21300801 -53.31051611 69.43605939     6    350    0    0    0
H 931.12349236 -87.64864955 66.90670430     6     355    0    0    0 
C 932.28795537 -86.52057191 68.13400248     1     354    356    357    358
H 931.20705198 -85.04434805 69.08144250     6     355    0    0    0
H 933.08624525 -87.74460044 69.61094632     6     355    0    0    0
C 934.41483537 -85.80362121 66.33241921     2     355    359    360    361
H 934.84239519 -87.53686673 65.17247312     6     358    0    0    0
H 933.80043814 -84.45862553 64.81471096     6     358    0    0    0
C 936.86346173 -84.83476201 67.71688606     2     358    362   363   364
H 936.37551976 -82.99106465 68.53988591     6     361    0    0    0
H 937.10083094 -86.03476165 69.26237559     6     361    0    0    0
C 939.05028007 -84.46389360 65.96778512     2     361   365   366   367
H 940.05010303 -86.13752562 65.20942914     6    364    0    0    0
H 938.56703002 -83.29018291 64.35843532     6    364    0    0    0
C 941.14841975 -83.04042669 67.16553043     2    364   368   369   370
H 940.27076485 -81.21755928 67.86260299     6    367    0    0    0
H 942.09090687 -83.92195846 68.80545131     6    367    0    0    0
C 943.38799672 -82.38511575 65.33685851     2    367   371   372   373
H 944.25453842 -84.02102036 64.69118856     6    370    0    0    0
H 942.48203428 -81.40496875 63.75758718     6    370    0    0    0
C 945.42603843 -80.56822594 66.37147475     2    370   374   375   376
H 944.33393503 -78.92643107 67.13139987     6    373    0    0    0
H 946.00191129 -81.55587958 68.01505205     6    373    0    0    0
C 947.69746119 -79.81424999 64.61485914     2    373   377   378   379
H 948.43236958 -81.58431706 63.71499610     6    376    0    0    0
H 947.14626888 -78.32474966 63.34586467     6    376    0    0    0
C 949.96647700 -78.70168136 66.03811802     2    376   380   381   382
H 949.44598290 -77.22355835 67.36883463     6    379    0    0    0
H 950.59893202 -80.10828105 67.47139188     6    379    0    0    0
C 952.01872595 -77.54910407 64.21757023     2    379   383   384   385
H 953.09989881 -79.00553327 63.23877439     6    382    0    0    0
H 951.02476401 -76.66140926 62.82926158     6    382    0    0    0
C 953.79155368 -75.57562139 65.37377388     2    382   386   387   388
H 954.90749815 -74.41799704 63.91613475     6    385    0    0    0
H 952.78491414 -74.11157164 66.42352695     6    385    0    0    0
C 955.84413093 -76.90472090 66.93487122     1    385   389   390   391
H 957.50133994 -77.28587605 65.69388774     6    388    0    0    0
H 955.14005588 -78.68370097 67.74672243     6    388    0    0    0
H 956.27852807 -75.89599034 68.72550979     6    388    0    0    0
H 927.34284531 -37.88630129 77.86111290     6     393    0    0    0 
C 925.30833788 -38.25316298 77.70798267     1     392    394    395    396
H 924.72237425 -37.41050007 79.46189583     6     393    0    0    0
H 924.53577008 -37.12951412 76.13864964     6     393    0    0    0
C 924.45902193 -41.00613850 77.98461965     2     393    397    398    399
H 925.05110803 -42.08507574 76.44439683     6     396    0    0    0
H 925.47905366 -41.68654221 79.62364944     6     396    0    0    0
C 921.62341180 -41.42489232 78.53279395     2     396    400   401   402
H 920.80075500 -40.02613980 79.76571755     6     399    0    0    0
H 920.60497672 -40.88149808 76.78757205     6     399    0    0    0
C 921.12946808 -44.02607490 79.50205578     2     399   403   404   405
H 922.22765402 -45.34586193 78.42670456     6    402    0    0    0
H 921.80670728 -44.21284744 81.48896787     6    402    0    0    0
C 918.44387463 -44.88142955 79.54171433     2    402   406   407   408
H 917.39036639 -43.44220497 80.59630914     6    405    0    0    0
H 917.56339833 -44.67953681 77.70644667     6    405    0    0    0
C 917.90293243 -47.59501305 80.86187188     2    405   409   410   411
H 919.11458849 -49.12882645 79.90489893     6    408    0    0    0
H 918.66363765 -47.44402520 82.82149051     6    408    0    0    0
C 915.05550137 -48.37678424 80.86162708     2    408   412   413   414
H 913.83336832 -46.66569593 81.17609009     6    411    0    0    0
H 914.61815592 -48.91670654 78.88007560     6    411    0    0    0
C 914.67605678 -50.42614101 82.72792772     2    411   415   416   417
H 915.89389514 -51.91923117 82.17484179     6    414    0    0    0
H 915.20967619 -49.79158079 84.62338207     6    414    0    0    0
C 912.11176503 -51.52664753 82.57860648     2    414   418   419   420
H 911.98706494 -52.72942364 84.21714257     6    417    0    0    0
H 910.68153486 -50.00324987 82.74506391     6    417    0    0    0
C 911.52845762 -53.02795750 80.19369262     2    417   421   422   423
H 911.30356922 -51.76678683 78.60501999     6    420    0    0    0
H 913.18617384 -53.94059166 79.50129253     6    420    0    0    0
C 909.42094780 -54.94447627 80.05519684     2    420   424   425   426
H 909.31250354 -56.05128254 81.77176094     6    423    0    0    0
H 907.61564519 -53.73365440 79.79881287     6    423    0    0    0
C 909.66604107 -56.50475277 77.54060097     1    423   427   428   429
H 908.23994185 -57.89605249 77.32070319     6    426    0    0    0
H 911.43309949 -57.60186389 77.59764274     6    426    0    0    0
H 909.60422721 -55.43371402 75.83372575     6    426    0    0    0
H 924.06488997 -70.49100960 86.61165960     6     431    0    0    0 
C 923.62389606 -69.47756575 88.38307304     1     430    432    433    434
H 921.51738075 -69.32153729 88.57011914     6     431    0    0    0
H 924.47164214 -70.37156068 89.95020952     6     431    0    0    0
C 925.03132648 -67.00922725 88.27465807     2     431    435    436    437
H 927.08250685 -67.42638961 88.37999806     6     434    0    0    0
H 924.86120937 -66.20910412 86.38786402     6     434    0    0    0
C 923.95975978 -65.29740694 90.39784527     2     434    438   439   440
H 921.99112130 -65.59863385 90.73537212     6     437    0    0    0
H 924.63909795 -66.14910778 92.22453615     6     437    0    0    0
C 924.34961180 -62.29192400 89.88674680     2     437   441   442   443
H 926.15124509 -61.92723759 89.16768403     6    440    0    0    0
H 922.89411125 -61.45736294 88.78673608     6    440    0    0    0
C 923.86461923 -61.00460598 92.47034598     2    440   444   445   446
H 921.98630362 -61.43393940 93.32976536     6    443    0    0    0
H 925.13473343 -61.80148854 93.94315386     6    443    0    0    0
C 924.20279189 -58.17416264 92.33497913     2    443   447   448   449
H 924.89736438 -57.39265963 94.12381395     6    446    0    0    0
H 925.68007355 -57.73689936 90.96880207     6    446    0    0    0
C 921.65170368 -56.63270322 91.87956055     2    446   450   451   452
H 921.00976492 -57.24454069 90.01404406     6    449    0    0    0
H 920.17796158 -57.26081202 93.19741425     6    449    0    0    0
C 922.18992091 -53.69638052 92.03942490     2    449   453   454   455
H 923.25393195 -53.67005483 93.77701782     6    452    0    0    0
H 923.26085597 -53.14197659 90.64201820     6    452    0    0    0
C 919.53602763 -52.36416757 92.13308901     2    452   456   457   458
H 918.50446496 -53.23316296 90.50324744     6    455    0    0    0
H 918.37748791 -52.84607216 93.80958229     6    455    0    0    0
C 919.70834501 -49.39481675 91.80293924     2    455   459   460   461
H 917.79629791 -48.76745827 91.38242456     6    458    0    0    0
H 920.37577780 -48.61296923 93.45593634     6    458    0    0    0
C 921.18733349 -48.43688057 89.53483804     2    458   462   463   464
H 923.22855135 -48.97347662 89.61514142     6    461    0    0    0
H 920.55322300 -49.41157665 87.78586075     6    461    0    0    0
C 920.85749826 -45.66755034 88.89310248     1    461   465   466   467
H 922.02742890 -44.67351414 90.33200968     6    464    0    0    0
H 918.82693069 -44.88384393 89.03509771     6    464    0    0    0
H 921.53536390 -45.03186867 87.05140315     6    464    0    0    0
H 952.20118817 -86.78949010 65.14800582     6     469    0    0    0 
C 952.58735149 -86.05930249 66.98165568     1     468    470    471    472
H 954.17350758 -87.11128115 67.93700212     6     469    0    0    0
H 953.56022062 -84.28019394 66.62929163     6     469    0    0    0
C 950.25486857 -85.89120784 68.60889446     2     469    473    474    475
H 950.71771240 -85.14989151 70.54933463     6     472    0    0    0
H 948.84519160 -84.72814012 67.68519082     6     472    0    0    0
C 949.03649825 -88.47204469 68.90874765     2     472    476   477   478
H 948.33416717 -89.02705625 67.03917031     6     475    0    0    0
H 950.27524232 -89.95350051 69.55388554     6     475    0    0    0
C 946.63911129 -88.59899370 70.65018407     2     475   479   480   481
H 946.93235249 -88.22436418 72.50684649     6    478    0    0    0
H 945.65519234 -86.84818342 70.07442712     6    478    0    0    0
C 945.05143215 -90.91356538 70.30065931     2    478   482   483   484
H 945.00174342 -91.25236910 68.19384124     6    481    0    0    0
H 945.98641036 -92.61048998 70.94046295     6    481    0    0    0
C 942.45911333 -90.58889867 71.50917265     2    481   485   486   487
H 942.46587558 -90.08419311 73.51081174     6    484    0    0    0
H 941.50117598 -89.01814949 70.54822139     6    484    0    0    0
C 941.22418559 -93.16244688 71.56831693     2    484   488   489   490
H 941.05942929 -94.17683843 69.75881252     6    487    0    0    0
H 942.50306084 -94.37419243 72.61980221     6    487    0    0    0
C 938.61543474 -92.91465959 72.65288699     2    487   491   492   493
H 938.58236855 -91.67169054 74.29156296     6    490    0    0    0
H 937.47640461 -92.05885244 71.04110209     6    490    0    0    0
C 937.54515638 -95.51256124 73.35068769     2    490   494   495   496
H 937.84028941 -97.09026666 72.03621082     6    493    0    0    0
H 938.38012376 -95.93751569 75.18557352     6    493    0    0    0
C 934.78425838 -95.56603510 73.76934815     2    493   497   498   499
H 934.38974638 -93.88048450 74.86822431     6    496    0    0    0
H 933.41757451 -95.46619082 72.09870772     6    496    0    0    0
C 934.10228048 -97.88294181 75.44324227     2    496   500   501   502
H 934.44167712 -99.59302623 74.41307049     6    499    0    0    0
H 935.43818392 -98.10021643 77.00175688     6    499    0    0    0
C 931.47992280 -97.95706965 76.58115270     1    499   503   504   505
H 930.90730798 -96.12436387 77.38495071     6    502    0    0    0
H 931.47701310 -99.17549719 78.24722443     6    502    0    0    0
H 930.02782515 -98.71776155 75.21867491     6    502    0    0    0
H 918.55019202 -85.76268037 89.97431082     6     507    0    0    0 
C 917.45991534 -84.63566042 88.62629371     1     506    508    509    510
H 917.85811087 -85.33056599 86.68584094     6     507    0    0    0
H 915.42974829 -84.66563896 88.92313206     6     507    0    0    0
C 918.42233307 -82.03822996 88.61803781     2     507    511    512    513
H 918.07483478 -81.06034687 90.36176922     6     510    0    0    0
H 920.40922006 -82.11694541 88.75188819     6     510    0    0    0
C 917.54169242 -80.42673231 86.37781662     2     510    514   515   516
H 918.35764421 -80.92322671 84.50982232     6     513    0    0    0
H 915.42705789 -80.49622283 86.06142896     6     513    0    0    0
C 917.88547780 -77.50115203 86.87122132     2     513   517   518   519
H 917.06476820 -77.03490163 88.69134006     6    516    0    0    0
H 919.89588964 -76.95354026 87.07560557     6    516    0    0    0
C 916.98813163 -76.01009789 84.59161796     2    516   520   521   522
H 917.83579940 -76.54929606 82.87002047     6    519    0    0    0
H 914.99283012 -76.57936227 84.17000010     6    519    0    0    0
C 916.61823970 -73.13011474 85.06630614     2    519   523   524   525
H 914.62255448 -72.61818224 85.14611984     6    522    0    0    0
H 917.50540368 -72.60061005 86.87853534     6    522    0    0    0
C 917.83602878 -71.49621516 82.99324066     2    522   526   527   528
H 919.87415024 -71.14378311 83.20926576     6    525    0    0    0
H 917.75199626 -72.48998371 81.18049077     6    525    0    0    0
C 916.92790653 -68.75830457 82.73576003     2    525   529   530   531
H 914.79709091 -68.50141428 82.79895784     6    528    0    0    0
H 917.60551939 -67.76256964 84.40102797     6    528    0    0    0
C 918.04429543 -67.49208101 80.31316622     2    528   532   533   534
H 919.99397974 -67.70542842 80.37012539     6    531    0    0    0
H 917.29011802 -68.69824668 78.72129710     6    531    0    0    0
C 917.42284671 -64.67118682 80.19848521     2    531   535   536   537
H 915.50983119 -64.29110423 80.97126276     6    534    0    0    0
H 918.63436986 -63.51886504 81.39684069     6    534    0    0    0
C 917.48874371 -63.78334495 77.52748841     2    534   538   539   540
H 919.30303099 -64.36902239 76.76961802     6    537    0    0    0
H 916.25241991 -65.13654289 76.57951318     6    537    0    0    0
C 916.47207245 -61.09600936 77.00089671     1    537   541   542   543
H 916.66794675 -60.45709817 75.05576376     6    540    0    0    0
H 917.59983466 -59.82298528 78.20342393     6    540    0    0    0
H 914.48691529 -60.92536453 77.69881775     6    540    0    0    0
H 929.71659612 -50.02588528 72.98591918     6     545    0    0    0 
C 929.18668629 -48.16531726 72.21442660     1     544    546    547    548
H 927.42673090 -48.61108960 71.38193797     6     545    0    0    0
H 928.96609600 -46.73503811 73.73638528     6     545    0    0    0
C 931.01805636 -47.48191696 70.04468908     2     545    549    550    551
H 931.00992928 -49.15018753 68.78032393     6     548    0    0    0
H 930.15441409 -46.02842331 68.90129771     6     548    0    0    0
C 933.64468732 -46.64389818 71.03498274     2     548    552   553   554
H 933.40681033 -44.91277828 72.06544583     6     551    0    0    0
H 934.49642582 -47.96617094 72.34170410     6     551    0    0    0
C 935.53763742 -46.37113876 68.77397117     2     551   555   556   557
H 936.00201025 -48.17691372 67.92102697     6    554    0    0    0
H 934.51353974 -45.19044896 67.44400374     6    554    0    0    0
C 938.10553048 -45.32495253 69.52627485     2    554   558   559   560
H 937.92341110 -43.26148163 70.21878598     6    557    0    0    0
H 938.81190584 -46.46488572 71.19043779     6    557    0    0    0
C 940.17211343 -45.21701344 67.53571841     2    557   561   562   563
H 941.44225614 -43.74327606 68.26349520     6    560    0    0    0
H 941.27117183 -46.89282487 67.49302439     6    560    0    0    0
C 939.33307371 -45.04631019 64.74247052     2    560   564   565   566
H 938.02148446 -46.60399640 64.38670078     6    563    0    0    0
H 938.33349725 -43.33893019 64.58042514     6    563    0    0    0
C 941.70183825 -45.29605104 62.98035398     2    563   567   568   569
H 943.21096917 -44.05396331 63.51382247     6    566    0    0    0
H 942.45426528 -47.20156865 63.32143571     6    566    0    0    0
C 941.08956974 -45.04041685 60.20334998     2    566   570   571   572
H 939.22549776 -45.77935095 59.77936211     6    569    0    0    0
H 940.87960038 -43.07506738 59.61720767     6    569    0    0    0
C 943.40894660 -45.93095816 58.69093343     2    569   573   574   575
H 945.15123508 -44.99131851 59.30938011     6    572    0    0    0
H 943.67176144 -47.92753817 58.81095402     6    572    0    0    0
C 943.14702529 -45.57813799 55.84628580     2    572   576   577   578
H 942.73426797 -43.51578146 55.68753474     6    575    0    0    0
H 945.09765654 -45.96676790 54.91781439     6    575    0    0    0
C 941.05401242 -47.10299208 54.42659418     1    575   579   580   581
H 939.61457574 -47.54479794 55.75696085     6    578    0    0    0
H 941.83658353 -48.97091039 53.74311359     6    578    0    0    0
H 940.29294031 -45.95137027 52.95461177     6    578    0    0    0
H 948.42105206 -68.50311409 60.98082458     6     583    0    0    0 
C 950.34940049 -69.42232604 60.72647091     1     582    584    585    586
H 950.47891409 -71.27705517 61.47527916     6     583    0    0    0
H 950.59056007 -69.65391036 58.63663968     6     583    0    0    0
C 952.41933455 -67.60439581 61.73065774     2     583    587    588    589
H 952.24684538 -66.88428264 63.56596181     6     586    0    0    0
H 954.22047255 -68.79885199 62.00609557     6     586    0    0    0
C 952.67842921 -65.36292340 60.09171441     2     586    590   591   592
H 953.15934347 -66.02907657 58.21017314     6     589    0    0    0
H 950.67662435 -64.61706730 59.84708238     6     589    0    0    0
C 954.44430274 -63.32603111 61.17917596     2     589   593   594   595
H 953.84188286 -62.91030927 62.99482914     6    592    0    0    0
H 956.13228675 -64.31130557 61.31768644     6    592    0    0    0
C 954.71003933 -60.89603705 59.52640335     2    592   596   597   598
H 955.11528695 -61.43444261 57.54151432     6    595    0    0    0
H 952.69679422 -60.18995871 59.32986514     6    595    0    0    0
C 956.50659823 -58.74437969 60.21184223     2    595   599   600   601
H 956.50293896 -58.30212019 62.32470223     6    598    0    0    0
H 958.44788149 -59.25016057 59.82466768     6    598    0    0    0
C 955.87026519 -56.12041627 58.75925139     2    598   602   603   604
H 955.79605726 -56.38867946 56.65678324     6    601    0    0    0
H 953.99457933 -55.60297464 59.31351591     6    601    0    0    0
C 957.50197518 -53.91108952 59.50919165     2    601   605   606   607
H 957.26850245 -53.54419027 61.48846443     6    604    0    0    0
H 959.52642816 -54.47180594 59.26032015     6    604    0    0    0
C 956.67000065 -51.52654928 58.00425166     2    604   608   609   610
H 956.15127187 -51.92852953 56.11215555     6    607    0    0    0
H 955.00148158 -50.82593017 58.93772099     6    607    0    0    0
C 958.99313235 -49.70198716 58.16797461     2    607   611   612   613
H 959.37634855 -49.15134778 60.19620062     6    610    0    0    0
H 960.67229487 -50.48473605 57.37524475     6    610    0    0    0
C 958.29307570 -47.15915862 57.03359648     2    610   614   615   616
H 957.76514800 -47.15180754 55.03112092     6    613    0    0    0
H 956.73640711 -46.18131400 57.90723759     6    613    0    0    0
C 960.49284052 -45.46239827 57.10385052     1    613   617   618   619
H 961.59878235 -45.48073826 58.83764605     6    616    0    0    0
H 960.04485783 -43.51931840 56.86275359     6    616    0    0    0
H 961.73492316 -46.11896120 55.59258405     6    616    0    0    0
H 918.40802654 -58.47087051 62.19115013     6     621    0    0    0 
C 917.09910852 -57.79470855 60.66591647     1     620    622    623    624
H 915.14482399 -58.12742744 61.10290436     6     621    0    0    0
H 917.18646577 -55.74188946 60.38846883     6     621    0    0    0
C 917.77835663 -59.42505874 58.38278081     2     621    625    626    627
H 919.80570149 -58.78697768 57.88272734     6     624    0    0    0
H 917.74291052 -61.42727772 58.89103357     6     624    0    0    0
C 916.12138817 -59.02735747 56.00869502     2     624    628   629   630
H 914.17938691 -59.69887297 56.64268781     6     627    0    0    0
H 915.83102548 -57.00152071 55.61862655     6     627    0    0    0
C 916.66177720 -60.61225698 53.74256646     2     627   631   632   633
H 918.64266339 -60.31467274 53.02437552     6    630    0    0    0
H 916.45630492 -62.72141887 54.14908442     6    630    0    0    0
C 914.85995504 -60.10361463 51.45608326     2    630   634   635   636
H 912.88352704 -60.32410678 52.05239498     6    633    0    0    0
H 915.03148040 -58.12496077 50.80528047     6    633    0    0    0
C 915.56442431 -61.85002142 49.24059737     2    633   637   638   639
H 917.56742618 -61.60968186 48.85005324     6    636    0    0    0
H 915.20315683 -63.87167622 49.56977207     6    636    0    0    0
C 914.19168618 -61.09850491 46.72697321     2    636   640   641   642
H 912.12066686 -61.09372863 46.91260977     6    639    0    0    0
H 914.85811765 -59.00654941 46.53485176     6    639    0    0    0
C 915.32515052 -62.61823718 44.43641525     2    639   643   644   645
H 917.45467925 -62.67789308 44.50792740     6    642    0    0    0
H 914.84148280 -64.55095054 44.64087253     6    642    0    0    0
C 914.50541109 -61.54551459 41.77140465     2    642   646   647   648
H 912.68637408 -62.23769576 40.99718441     6    645    0    0    0
H 913.80390823 -59.67450916 41.83406635     6    645    0    0    0
C 916.62587826 -61.83569343 39.69745210     2    645   649   650   651
H 918.41378593 -60.79154131 39.80551797     6    648    0    0    0
H 916.96390751 -63.83693878 40.02362850     6    648    0    0    0
C 915.62641432 -61.41188761 37.02289448     2    648   652   653   654
H 913.93235768 -62.35443344 36.63065846     6    651    0    0    0
H 915.02422810 -59.43731404 37.04885317     6    651    0    0    0
C 917.38431165 -62.24150847 34.79442055     1    651   655   656   657
H 919.24561988 -61.58634828 34.88811646     6    654    0    0    0
H 916.66228747 -61.77536169 32.90819594     6    654    0    0    0
H 917.54842415 -64.32778327 34.89172311     6    654    0    0    0
H 944.96727213 -67.41644606 50.76812686     6     659    0    0    0 
C 944.20215695 -68.25626871 52.51317891     1     658    660    661    662
H 943.65322592 -70.12778000 52.05177849     6     659    0    0    0
H 945.50790428 -68.76137631 54.12838086     6     659    0    0    0
C 942.05480352 -66.47757789 53.40574972     2     659    663    664    665
H 942.53461476 -64.51133566 52.87201992     6     662    0    0    0
H 940.21351292 -66.75742781 52.59298506     6     662    0    0    0
C 941.85159236 -66.45213642 56.28665713     2     662    666   667   668
H 940.42264957 -65.16206136 56.84561032     6     665    0    0    0
H 941.27097150 -68.35174274 57.07080685     6     665    0    0    0
C 944.18186955 -65.32358301 57.68663261     2     665   669   670   671
H 945.58653041 -66.72647606 58.40716299     6    668    0    0    0
H 945.30067819 -64.07278119 56.44102954     6    668    0    0    0
C 943.32803017 -63.79243715 60.03561916     2    668   672   673   674
H 941.92403804 -62.31813010 59.49860580     6    671    0    0    0
H 942.29791307 -65.03963267 61.38731919     6    671    0    0    0
C 945.67243220 -62.66622152 61.32099128     2    671   675   676   677
H 945.10464831 -62.14888838 63.32333732     6    674    0    0    0
H 946.98423938 -64.09090950 61.56250818     6    674    0    0    0
C 947.02897911 -60.39086851 59.96571861     2    674   678   679   680
H 948.68788340 -59.75495460 61.07553640     6    677    0    0    0
H 947.79254647 -60.84619934 58.10548516     6    677    0    0    0
C 945.09199233 -58.24739664 59.75586203     2    677   681   682   683
H 943.72331352 -58.89394875 58.34249878     6    680    0    0    0
H 944.24022665 -58.01886600 61.58512335     6    680    0    0    0
C 946.28926216 -55.81121972 58.86141069     2    680   684   685   686
H 947.73740126 -56.26232660 57.49208200     6    683    0    0    0
H 944.97855865 -54.57730730 57.75004855     6    683    0    0    0
C 947.04037554 -54.08707894 61.12285117     2    683   687   688   689
H 945.43119792 -53.72236181 62.29945792     6    686    0    0    0
H 948.52287291 -55.13346388 62.24508054     6    686    0    0    0
C 948.44342712 -51.71302909 60.13030635     2    686   690   691   692
H 950.23942957 -52.12486394 59.12737396     6    689    0    0    0
H 947.08638714 -50.70585296 58.96120496     6    689    0    0    0
C 949.24008397 -49.83022143 62.18688146     1    689   693   694   695
H 949.91887407 -48.05263850 61.20459966     6    692    0    0    0
H 950.65881342 -50.76198318 63.37924904     6    692    0    0    0
H 947.55954227 -49.16671933 63.22630743     6    692    0    0    0
H 932.02318261 -35.19241986 61.83703121     6     697    0    0    0 
C 931.03252486 -35.94216336 63.34012308     1     696    698    699    700
H 929.40130634 -34.65547535 63.38915987     6     697    0    0    0
H 930.35856860 -37.76439678 62.70180245     6     697    0    0    0
C 932.30155360 -35.67269512 65.89530790     2     697    701    702    703
H 934.20083091 -36.53687014 65.78726598     6     700    0    0    0
H 932.67944705 -33.80577323 66.48400092     6     700    0    0    0
C 930.98500256 -37.15920866 67.90170309     2     700    704   705   706
H 929.49470055 -35.95968336 68.73741256     6     703    0    0    0
H 929.98461570 -38.78674962 67.11926194     6     703    0    0    0
C 932.57216289 -37.84949507 70.25662953     2     703   707   708   709
H 934.09103878 -38.89240842 69.66894986     6    706    0    0    0
H 932.94272735 -36.06817155 71.03741901     6    706    0    0    0
C 931.18904433 -39.57146571 72.14693832     2    706   710   711   712
H 929.31837609 -38.64702031 72.60972849     6    709    0    0    0
H 930.62559455 -41.34253999 71.16021818     6    709    0    0    0
C 932.85166326 -39.75522862 74.55996023     2    709   713   714   715
H 934.53242332 -40.55848718 73.94197560     6    712    0    0    0
H 933.29907931 -37.91268895 75.40024782     6    712    0    0    0
C 931.83422365 -41.55316080 76.47582623     2    712   716   717   718
H 930.18536889 -40.64796125 77.28357128     6    715    0    0    0
H 931.34703371 -43.43561974 75.67799710     6    715    0    0    0
C 933.60705403 -41.98853411 78.57440097     2    715   719   720   721
H 935.03480501 -43.36696727 78.12898901     6    718    0    0    0
H 934.38095075 -40.15856962 79.07112060     6    718    0    0    0
C 932.24119084 -43.15809035 80.96615973     2    718   722   723   724
H 930.67109960 -41.83925925 81.59743750     6    721    0    0    0
H 931.38667700 -44.93888919 80.26223169     6    721    0    0    0
C 934.11513584 -43.85765926 83.13043902     2    721   725   726   727
H 935.69642064 -44.90642961 82.30587663     6    724    0    0    0
H 934.92182747 -42.13166765 83.90765046     6    724    0    0    0
C 933.01105073 -45.52776550 85.19331340     2    724   728   729   730
H 932.25761278 -47.14841340 84.46033793     6    727    0    0    0
H 934.45025944 -46.55732136 86.25599824     6    727    0    0    0
C 931.34282337 -43.94123071 86.97704367     1    727   731   732   733
H 930.69461434 -45.09802458 88.56692722     6    730    0    0    0
H 929.72912928 -43.39386799 85.98235929     6    730    0    0    0
H 932.16936895 -42.15034582 87.57827002     6    730    0    0    0
H 947.50851254 -73.20543653 77.92416505     6     735    0    0    0 
C 948.98090751 -74.09631045 76.75416705     1     734    736    737    738
H 950.61780246 -72.88601074 76.74603085     6     735    0    0    0
H 949.71418772 -75.90956971 77.46857326     6     735    0    0    0
C 947.92285670 -74.31945977 73.98972364     2     735    739    740    741
H 947.68641559 -72.48041388 73.28685273     6     738    0    0    0
H 949.20902665 -75.30977708 72.88949419     6     738    0    0    0
C 945.63335872 -76.03538920 73.78554098     2     738    742   743   744
H 944.63200390 -75.57860688 75.43978529     6     741    0    0    0
H 944.46672889 -75.81447477 72.04170310     6     741    0    0    0
C 946.28186509 -78.85235643 73.85056258     2     741   745   746   747
H 947.64037266 -78.96071180 72.23446225     6    744    0    0    0
H 947.27684159 -79.49292218 75.53934032     6    744    0    0    0
C 943.93356814 -80.49267380 73.53465394     2    744   748   749   750
H 942.82502439 -79.95977142 71.93827495     6    747    0    0    0
H 944.52029297 -82.33892995 72.90349065     6    747    0    0    0
C 942.10939629 -80.66204753 75.89354887     2    747   751   752   753
H 943.07467384 -81.53109491 77.42636686     6    750    0    0    0
H 941.55056411 -78.82426417 76.41531702     6    750    0    0    0
C 939.50508104 -81.94599023 75.35464323     2    750   754   755   756
H 938.32658408 -81.50405537 76.93231368     6    753    0    0    0
H 938.51987892 -80.99666378 73.76134517     6    753    0    0    0
C 939.26291226 -84.86326776 74.77225112     2    753   757   758   759
H 940.12321680 -85.69728983 73.16699981     6    756    0    0    0
H 940.30188196 -85.87680304 76.25284926     6    756    0    0    0
C 936.55056829 -85.98421074 74.54180321     2    756   760   761   762
H 935.52415426 -84.97826336 73.05171758     6    759    0    0    0
H 937.07393306 -87.96328268 73.83856124     6    759    0    0    0
C 935.08965343 -86.07002584 77.04943980     2    759   763   764   765
H 936.12428045 -87.15250563 78.61073670     6    762    0    0    0
H 935.02928968 -84.21707984 77.78107408     6    762    0    0    0
C 932.37449854 -87.14968275 76.75109394     2    762   766   767   768
H 931.48033189 -86.24421000 75.14170313     6    765    0    0    0
H 932.45671920 -89.09636751 76.27542392     6    765    0    0    0
C 930.38274154 -87.04015518 78.82484807     1    765   769   770   771
H 930.76910383 -88.16934274 80.49746132     6    768    0    0    0
H 928.80266227 -88.00181934 77.88202444     6    768    0    0    0
H 930.05093707 -85.18275849 79.42882358     6    768    0    0    0
H 908.56163247 -55.85642753 47.02377821     6     773    0    0    0 
C 906.76560530 -54.93246987 47.34755251     1     772    774    775    776
H 907.09733218 -53.00114241 47.14599154     6     773    0    0    0
H 905.36491969 -55.34735731 45.85438172     6     773    0    0    0
C 905.65186213 -55.34589158 49.76273009     2     773    777    778    779
H 903.93734185 -54.07896070 49.76612522     6     776    0    0    0
H 904.92576212 -57.40210018 50.02326858     6     776    0    0    0
C 907.46346300 -54.66079982 52.02830836     2     776    780   781   782
H 908.94657780 -56.05720785 52.38170392     6     779    0    0    0
H 908.24831456 -52.76998752 51.67486081     6     779    0    0    0
C 906.04288680 -54.74580679 54.56256209     2     779   783   784   785
H 904.20536317 -53.73949985 54.49222000     6    782    0    0    0
H 905.78958904 -56.74924010 54.95620475     6    782    0    0    0
C 907.48041987 -53.45142585 56.71703438     2    782   786   787   788
H 909.42499894 -53.98102737 56.82315004     6    785    0    0    0
H 907.58123759 -51.53775067 56.28444638     6    785    0    0    0
C 906.38171189 -53.69548577 59.35079668     2    785   789   790   791
H 904.37847206 -53.16544229 59.42318389     6    788    0    0    0
H 906.39456765 -55.69732201 60.03709464     6    788    0    0    0
C 907.48509179 -51.97993633 61.27553385     2    788   792   793   794
H 909.50380088 -52.29431842 61.17783464     6    791    0    0    0
H 907.44571274 -50.04255951 60.66804493     6    791    0    0    0
C 906.58871067 -52.02641873 64.01084016     2    791   795   796   797
H 904.54889706 -52.02176098 64.16605368     6    794    0    0    0
H 907.24160827 -53.82071685 64.62763817     6    794    0    0    0
C 907.74221454 -49.97650678 65.43496098     2    794   798   799   800
H 909.80008984 -50.00528318 65.11217450     6    797    0    0    0
H 907.01438957 -48.27626552 64.60587036     6    797    0    0    0
C 907.17839426 -50.21143773 68.42971009     2    797   801   802   803
H 905.16864570 -50.04702698 68.53121382     6    800    0    0    0
H 907.73813289 -51.96696459 69.13108368     6    800    0    0    0
C 908.67473377 -48.17294246 70.13768419     2    800   804   805   806
H 910.67598725 -48.25602994 69.67235510     6    803    0    0    0
H 908.21518101 -46.17877976 69.60708214     6    803    0    0    0
C 907.86849581 -48.28095529 72.89104645     1    803   807   808   809
H 906.86388581 -46.47138681 73.23746779     6    806    0    0    0
H 909.56846101 -48.27226081 74.11945918     6    806    0    0    0
H 906.73329667 -49.78895899 73.57341690     6    806    0    0    0
H 945.23351816 -71.72466688 63.82652898     6     811    0    0    0 
C 944.18625633 -73.43363413 63.92134967     1     810    812    813    814
H 944.96045551 -74.89193004 62.56843230     6     811    0    0    0
H 944.52782124 -74.18861592 65.83187881     6     811    0    0    0
C 941.38387391 -73.17662995 63.57396018     2     811    815    816    817
H 940.64241364 -71.98034228 65.08632946     6     814    0    0    0
H 940.89358521 -72.08547445 61.97138617     6     814    0    0    0
C 940.12117882 -75.69985503 63.42833919     2     814    818   819   820
H 941.23760430 -76.88429614 62.04350626     6     817    0    0    0
H 940.32130231 -76.76055209 65.21867941     6     817    0    0    0
C 937.39437800 -75.33882965 62.63762416     2     817   821   822   823
H 936.24905421 -74.13292757 64.00476693     6    820    0    0    0
H 937.49118548 -74.15254681 61.06754995     6    820    0    0    0
C 935.84099938 -77.69025778 62.14373536     2    820   824   825   826
H 936.63143920 -78.88192042 60.66878656     6    823    0    0    0
H 935.96397755 -78.88397799 63.79027677     6    823    0    0    0
C 933.04182024 -77.11656994 61.56540224     2    823   827   828   829
H 932.42246583 -75.78755384 62.97951002     6    826    0    0    0
H 932.83606622 -76.27540528 59.73657494     6    826    0    0    0
C 931.10989894 -79.31301002 61.95518382     2    826   830   831   832
H 932.06257891 -80.97383701 61.10349254     6    829    0    0    0
H 930.95274569 -79.96601881 63.94354874     6    829    0    0    0
C 928.56570481 -78.80688431 60.78209232     2    829   833   834   835
H 927.44665350 -77.16336284 61.32030364     6    832    0    0    0
H 928.75190233 -78.94759883 58.78406603     6    832    0    0    0
C 926.65071026 -80.88052024 61.24993139     2    832   836   837   838
H 927.27873735 -82.62090933 60.48434413     6    835    0    0    0
H 926.29713566 -81.11090955 63.32105204     6    835    0    0    0
C 924.06737317 -80.32288434 60.14745276     2    835   839   840   841
H 923.52812378 -78.39747737 60.63595966     6    838    0    0    0
H 924.16984635 -80.76010613 58.12573297     6    838    0    0    0
C 921.69898373 -81.75345365 61.16068368     2    838   842   843   844
H 921.85438296 -83.69052187 60.64037060     6    841    0    0    0
H 921.68753099 -81.81490980 63.24435396     6    841    0    0    0
C 919.27925257 -80.67500611 60.20123283     1    841   845   846   847
H 919.32316556 -78.61467851 59.88446343     6    844    0    0    0
H 917.93435206 -80.94723480 61.67386167     6    844    0    0    0
H 918.43857683 -81.52857698 58.54138154     6    844    0    0    0
H 949.49544037 -36.94758579 51.52867473     6     849    0    0    0 
C 950.97677767 -37.61025769 52.66908903     1     848    850    851    852
H 952.43357076 -36.06582166 52.85925559     6     849    0    0    0
H 950.08188376 -37.94676323 54.47470706     6     849    0    0    0
C 952.28097051 -40.01805373 51.39261942     2     849    853    854    855
H 952.38180870 -39.77213137 49.44710223     6     852    0    0    0
H 954.17720419 -40.21184131 52.21036128     6     852    0    0    0
C 950.72855791 -42.43076978 51.96483960     2     852    856   857   858
H 950.48567003 -42.57436963 53.97577324     6     855    0    0    0
H 948.63772995 -42.19185895 51.41082500     6     855    0    0    0
C 951.96097855 -44.91402668 51.02277458     2     855   859   860   861
H 951.67712252 -45.17920022 49.03859344     6    858    0    0    0
H 953.96587470 -44.89077337 51.11136008     6    858    0    0    0
C 951.07621903 -47.36660071 52.36083147     2    858   862   863   864
H 951.81113910 -47.52544628 54.29737628     6    861    0    0    0
H 948.93129305 -47.36190487 52.06854134     6    861    0    0    0
C 952.16806811 -49.80889650 51.09226131     2    861   865   866   867
H 951.54666045 -49.48534131 49.14485644     6    864    0    0    0
H 954.23423228 -49.83705781 51.45835154     6    864    0    0    0
C 951.06433746 -52.23115471 52.34930151     2    864   868   869   870
H 951.82025637 -52.26171178 54.32729597     6    867    0    0    0
H 948.91030899 -52.11204207 52.41063308     6    867    0    0    0
C 951.66364039 -54.93213933 51.23704533     2    867   871   872   873
H 950.63170121 -55.12532240 49.49343664     6    870    0    0    0
H 953.68301077 -55.24800924 51.01655003     6    870    0    0    0
C 950.84980284 -57.21889624 52.99210893     2    870   874   875   876
H 951.74586658 -57.00556755 54.85132842     6    873    0    0    0
H 948.75537004 -57.06584195 53.16634846     6    873    0    0    0
C 951.51185221 -59.76257495 51.75123071     2    873   877   878   879
H 950.79653755 -59.70999030 49.88000495     6    876    0    0    0
H 953.48443852 -59.77241295 51.46571886     6    876    0    0    0
C 950.45389961 -62.16928114 53.00268430     2    876   880   881   882
H 951.25877215 -62.35191432 54.95056195     6    879    0    0    0
H 948.36650267 -61.98883848 53.35943698     6    879    0    0    0
C 951.21365291 -64.62269729 51.63849222     1    879   883   884   885
H 953.02215695 -64.84805726 50.66766763     6    882    0    0    0
H 949.93755020 -65.07475024 50.13446725     6    882    0    0    0
H 951.01271601 -66.19185626 52.96654804     6    882    0    0    0
H 924.00664123 -74.87203168 55.54095001     6     887    0    0    0 
C 924.74522285 -74.07758937 57.26999253     1     886    888    889    890
H 922.92043347 -72.99845150 57.85840401     6     887    0    0    0
H 925.17849906 -75.51294970 58.63918512     6     887    0    0    0
C 927.20608922 -72.51905762 56.93829253     2     887    891    892    893
H 928.60217614 -73.72151022 56.13031436     6     890    0    0    0
H 926.81497367 -70.85881797 55.60836065     6     890    0    0    0
C 928.05759746 -71.49557467 59.49863545     2     890    894   895   896
H 926.46447424 -70.41318324 60.41044427     6     893    0    0    0
H 928.12239588 -73.21442949 60.56603745     6     893    0    0    0
C 930.76366667 -70.41016604 59.38551556     2     893   897   898   899
H 931.79005677 -71.93939198 58.63714370     6    896    0    0    0
H 930.68432149 -68.78965024 58.16477446     6    896    0    0    0
C 931.85670497 -69.66450956 62.00135605     2    896   900   901   902
H 930.13394066 -69.07892935 63.02397630     6    899    0    0    0
H 932.37609646 -71.45290680 62.75697989     6    899    0    0    0
C 934.19740478 -67.97297494 62.11684047     2    899   903   904   905
H 935.47003403 -68.81845620 60.62569382     6    902    0    0    0
H 933.89579034 -65.99430065 61.48301293     6    902    0    0    0
C 935.59108362 -68.08411776 64.76167817     2    902   906   907   908
H 934.62303371 -66.97145382 66.25649752     6    905    0    0    0
H 935.96166665 -69.84777830 65.55752533     6    905    0    0    0
C 938.33060851 -67.07422600 64.67856146     2    905   909   910   911
H 939.42164144 -67.98247067 63.13891479     6    908    0    0    0
H 938.23339676 -65.06711988 64.08109314     6    908    0    0    0
C 939.63483621 -67.11421545 67.17043682     2    908   912   913   914
H 938.55674674 -66.11032108 68.58279151     6    911    0    0    0
H 939.58161916 -69.04658857 67.89799926     6    911    0    0    0
C 942.34685614 -65.90368558 66.99176404     2    911   915   916   917
H 943.36495373 -66.02528129 65.24923883     6    914    0    0    0
H 942.22078242 -63.84504271 66.80812947     6    914    0    0    0
C 944.07646094 -66.84022356 69.13986228     2    914   918   919   920
H 943.04377503 -66.83087640 70.90592934     6    917    0    0    0
H 944.44091396 -68.83647673 68.98313304     6    917    0    0    0
C 946.35236902 -64.97090872 69.53972363     1    917   921   922   923
H 945.89134738 -63.37176671 70.63766761     6    920    0    0    0
H 947.26118912 -64.41796977 67.68386961     6    920    0    0    0
H 947.87060142 -65.89293461 70.61631737     6    920    0    0    0
H 933.14783243 -56.71318397 40.58103256     6     925    0    0    0 
C 933.89028410 -58.32624645 41.56106095     1     924    926    927    928
H 934.95969693 -57.93911745 43.36381048     6     925    0    0    0
H 932.33763541 -59.47070874 42.27828795     6     925    0    0    0
C 935.49502139 -59.68022586 39.58329313     2     925    929    930    931
H 934.33209860 -59.61859517 37.94388375     6     928    0    0    0
H 937.14791286 -58.53416314 39.11057034     6     928    0    0    0
C 936.23970241 -62.36811116 40.15093241     2     928    932   933   934
H 934.42355289 -63.32164880 40.72182597     6     931    0    0    0
H 936.41809865 -63.30613936 38.45353733     6     931    0    0    0
C 938.32424491 -62.87350292 42.21374391     2     931   935   936   937
H 940.25559773 -62.46485656 41.52164350     6    934    0    0    0
H 937.86938108 -61.35981302 43.60505394     6    934    0    0    0
C 938.27453594 -65.51470007 43.47573808     2    934   938   939   940
H 936.43427320 -66.14479438 43.78976206     6    937    0    0    0
H 938.94332743 -66.99571749 42.34291516     6    937    0    0    0
C 939.52360991 -65.35004730 46.10095675     2    937   941   942   943
H 939.19817859 -63.59952092 46.93714414     6    940    0    0    0
H 938.88860024 -66.93228198 47.42746056     6    940    0    0    0
C 942.49418153 -65.51804893 45.77233026     2    940   944   945   946
H 943.09186077 -63.88791126 44.80617985     6    943    0    0    0
H 943.12788965 -65.40148854 47.77480190     6    943    0    0    0
C 943.68576338 -68.06544804 44.66115202     2    943   947   948   949
H 943.25784960 -69.66107160 45.88738318     6    946    0    0    0
H 942.98710478 -68.69235573 42.79761378     6    946    0    0    0
C 946.63795188 -67.78911590 44.60020500     2    946   950   951   952
H 947.21461905 -66.93313544 42.74468055     6    949    0    0    0
H 947.62361336 -66.81151497 46.16219025     6    949    0    0    0
C 947.61461482 -70.53813469 44.37152391     2    949   953   954   955
H 946.73024138 -71.78081084 45.82008845     6    952    0    0    0
H 946.93430648 -71.46747382 42.60493730     6    952    0    0    0
C 950.43797787 -70.59158776 44.26067737     2    952   956   957   958
H 951.33864087 -72.37581972 43.62516017     6    955    0    0    0
H 951.17019049 -69.26930117 42.98824857     6    955    0    0    0
C 951.68299888 -70.05246942 46.76200880     1    955   959   960   961
H 951.85074082 -68.13309204 47.22050595     6    958    0    0    0
H 953.80514247 -70.29480831 46.56776587     6    958    0    0    0
H 950.80880675 -71.24392820 48.22264384     6    958    0    0    0
H 928.85736377 -72.15735408 81.62454013     6     963    0    0    0 
C 928.44887456 -71.19160393 79.95589676     1     962    964    965    966
H 929.91438631 -69.90976285 79.28600109     6     963    0    0    0
H 928.04772014 -72.66516991 78.55683697     6     963    0    0    0
C 926.21131044 -69.42138161 80.16890069     2     963    967    968    969
H 925.05704468 -69.53102771 78.50673851     6     966    0    0    0
H 925.15455452 -70.07271928 81.73593659     6     966    0    0    0
C 927.07814337 -66.75218618 80.70997920     2     966    970   971   972
H 928.21974641 -66.50391071 82.54623503     6     969    0    0    0
H 928.31354408 -66.01506662 79.28493482     6     969    0    0    0
C 924.90797331 -65.05055496 81.26618562     2     969   973   974   975
H 923.81961701 -64.73089213 79.62104701     6    972    0    0    0
H 923.74318051 -66.00641886 82.64637061     6    972    0    0    0
C 925.85596006 -62.50394188 82.12227646     2    972   976   977   978
H 926.75655860 -62.78220557 83.97065111     6    975    0    0    0
H 927.36667732 -61.67816958 80.95014985     6    975    0    0    0
C 923.61044883 -60.78518620 82.60328321     2    975   979   980   981
H 922.35526525 -60.80538972 80.85028648     6    978    0    0    0
H 922.67524580 -61.24219217 84.37625534     6    978    0    0    0
C 924.52740220 -58.04210487 83.20567981     2    978   982   983   984
H 925.56290042 -57.79899420 84.84377497     6    981    0    0    0
H 925.69788117 -57.41937255 81.71837670     6    981    0    0    0
C 922.05459259 -56.47017550 83.17009551     2    981   985   986   987
H 921.21518590 -56.67084711 81.33325565     6    984    0    0    0
H 920.68409982 -57.19200696 84.50366696     6    984    0    0    0
C 922.45545016 -53.72789535 83.95335351     2    984   988   989   990
H 920.74478443 -52.48351429 84.11683878     6    987    0    0    0
H 923.09875385 -53.79438109 85.87861889     6    987    0    0    0
C 924.29880153 -52.21074693 82.15124469     2    987   991   992   993
H 926.07960015 -53.22050799 81.84645476     6    990    0    0    0
H 923.43767337 -51.86751638 80.36627398     6    990    0    0    0
C 924.81549017 -49.57277794 83.41010224     2    990   994   995   996
H 923.18561036 -48.29381034 83.45206887     6    993    0    0    0
H 925.16186212 -49.88278438 85.50639479     6    993    0    0    0
C 927.25877518 -48.20504474 82.43912267     1    993   997   998   999
H 928.72616896 -49.65134209 82.56887158     6    996    0    0    0
H 927.58176488 -46.69613021 83.96798053     6    996    0    0    0
H 927.07079241 -47.27926276 80.50096207     6    996    0    0    0
H 923.67045933 -81.49448623 83.09133255     6     1001    0    0    0 
C 925.55401303 -81.16311744 84.04651973     1     1000    1002    1003    1004
H 925.92446585 -82.56788807 85.53490264     6     1001    0    0    0
H 927.11509224 -81.09177385 82.76321010     6     1001    0    0    0
C 925.68616417 -78.60913725 85.35364758     2     1001    1005    1006    1007
H 925.24896454 -77.02026383 84.07973639     6     1004    0    0    0
H 924.17427781 -78.57984932 86.78590093     6     1004    0    0    0
C 928.06626877 -78.10590191 87.21812310     2     1004    1008   1009   1010
H 927.66613745 -79.07164349 89.08481180     6     1007    0    0    0
H 929.99821671 -78.90186359 86.49495227     6     1007    0    0    0
C 928.38093813 -75.18847994 87.58190030     2     1007   1011   1012   1013
H 928.88645070 -74.21078750 85.84840425     6    1010    0    0    0
H 926.87649077 -74.29700239 88.70969718     6    1010    0    0    0
C 930.37965737 -74.99359089 89.69958173     2    1010   1014   1015   1016
H 929.51210453 -75.84637795 91.38306863     6    1013    0    0    0
H 932.17369309 -75.91592682 89.25604029     6    1013    0    0    0
C 931.12515893 -72.30549160 90.33482195     2    1013   1017   1018   1019
H 932.48036959 -71.72388938 88.92975538     6    1016    0    0    0
H 929.44353196 -71.04682757 90.28283032     6    1016    0    0    0
C 932.52360009 -71.96807570 92.79519844     2    1016   1020   1021   1022
H 932.13579119 -73.62142942 94.21578589     6    1019    0    0    0
H 934.53823477 -72.45316133 92.36842854     6    1019    0    0    0
C 932.33840870 -69.30136284 93.73693221     2    1019   1023   1024   1025
H 930.39071978 -68.79604281 94.07018423     6    1022    0    0    0
H 933.31492177 -69.05840117 95.49098921     6    1022    0    0    0
C 933.34016326 -67.23887128 92.09843907     2    1022   1026   1027   1028
H 935.37930739 -66.95978147 92.26323617     6    1025    0    0    0
H 933.26880184 -67.86716380 90.14944296     6    1025    0    0    0
C 932.39825424 -64.61292858 92.73986930     2    1025   1029   1030   1031
H 930.36209067 -64.41678797 92.60799933     6    1028    0    0    0
H 932.94795748 -64.10878084 94.73543458     6    1028    0    0    0
C 933.51878800 -62.49140212 91.03140668     2    1028   1032   1033   1034
H 935.57551736 -62.74185627 90.99357967     6    1031    0    0    0
H 932.55769148 -63.03029842 89.23969469     6    1031    0    0    0
C 932.87205488 -59.72883628 91.99432654     1    1031   1035   1036   1037
H 934.07888181 -58.55011253 91.10171419     6    1034    0    0    0
H 933.29815949 -59.65015741 94.03000455     6    1034    0    0    0
H 930.92329153 -59.05909289 91.53710392     6    1034    0    0    0
H 908.70415118 -61.30493456 61.79085076     6     1039    0    0    0 
C 909.51139550 -61.42017898 59.92375422     1     1038    1040    1041    1042
H 908.22937923 -60.38983770 58.62958439     6     1039    0    0    0
H 911.30274625 -60.31119326 60.02395577     6     1039    0    0    0
C 909.67245682 -64.18523603 59.10628831     2     1039    1043    1044    1045
H 911.11782921 -65.08551046 60.32857895     6     1042    0    0    0
H 907.84900177 -65.19774600 59.61868103     6     1042    0    0    0
C 910.52987795 -64.39811695 56.34277331     2     1042    1046   1047   1048
H 909.10495174 -63.29816270 55.27222487     6     1045    0    0    0
H 912.36133303 -63.54156726 56.16979436     6     1045    0    0    0
C 910.39592165 -67.05173055 55.41654129     2     1045   1049   1050   1051
H 911.35412193 -68.16394089 56.74328041     6    1048    0    0    0
H 908.50388850 -67.84749624 55.49711521     6    1048    0    0    0
C 911.46930086 -67.36980943 52.63846652     2    1048   1052   1053   1054
H 910.78505673 -65.76777294 51.51765669     6    1051    0    0    0
H 913.43527236 -67.39225960 52.79102317     6    1051    0    0    0
C 910.42189930 -69.76492594 51.43109012     2    1051   1055   1056   1057
H 911.12663372 -71.48839904 52.36567666     6    1054    0    0    0
H 908.45405907 -69.71720734 51.39106467     6    1054    0    0    0
C 911.39313633 -69.87670834 48.65724648     2    1054   1058   1059   1060
H 911.07218593 -68.02527757 47.79054573     6    1057    0    0    0
H 913.44948337 -70.27831430 48.54980649     6    1057    0    0    0
C 910.07096217 -72.02673131 47.19253733     2    1057   1061   1062   1063
H 910.23361922 -73.84420681 48.28371199     6    1060    0    0    0
H 907.95989463 -71.61631643 47.12712685     6    1060    0    0    0
C 911.13903308 -72.29294437 44.57723339     2    1060   1064   1065   1066
H 911.34642607 -70.39685437 43.71681753     6    1063    0    0    0
H 912.94623856 -73.03597224 44.65720638     6    1063    0    0    0
C 909.29960954 -73.70297829 42.83629409     2    1063   1067   1068   1069
H 909.01117803 -75.63485135 43.58886029     6    1066    0    0    0
H 907.40931605 -72.93007727 42.92593781     6    1066    0    0    0
C 910.20024187 -73.71285351 40.11090129     2    1066   1070   1071   1072
H 909.78529161 -71.97896610 39.08560931     6    1069    0    0    0
[...]
 1619      H     897.4251716600   -57.8126156400    62.5159484400
 1620      H     899.9341695900   -59.4983707200    64.2457644500
 1621      C     899.5716818800   -55.8016625600    65.1518842300
 1622      H     901.5112368200   -55.6760492600    65.7239371000
 1623      H     899.2489343600   -54.0622897000    64.3029211500
 1624      C     897.8611431300   -56.1423467300    67.4333376400
 1625      H     895.7921455800   -55.7421009400    67.0799478300
 1626      H     897.7760393700   -58.1708159000    67.8796735000
 1627      C     898.4911539100   -54.3557952200    69.6617653400
 1628      H     897.6717062000   -55.2814813000    71.4236103500
 1629      H     900.6220350500   -53.9216243300    69.9749247600
 1630      C     897.3015377900   -51.7135643600    69.1420323700
 1631      H     898.0455933900   -51.0005659700    67.4064821900
 1632      H     895.3010199700   -51.8063716200    69.0734608300
 1633      C     897.7441300100   -49.8890130300    71.3623692500
 1634      H     896.8663579700   -50.6976825500    73.0098088400
 1635      H     899.7342860100   -49.8030870100    71.5655153100
 1636      C     896.6346074600   -47.2916277900    70.5864558700
 1637      H     897.7065235700   -46.8488353200    68.7643936200
 1638      H     894.7249541500   -47.7665898600    70.3499345900
 1639      C     896.7240087500   -45.2377174700    72.6623191400
 1640      H     895.7714842500   -45.9133077200    74.4045702300
 1641      H     898.6066527500   -44.9882373900    73.0261975900
 1642      C     895.5955380400   -42.7560170800    71.6789602900
 1643      H     896.4369917600   -42.3404757800    69.9617388800
 1644      H     895.9875380800   -41.3988751300    73.1508961000
 1645      H     893.5600082400   -42.9743906100    71.4009342700
 1646      H     907.6188010700   -78.7239008300    78.6974234800
 1647      C     906.0182257400   -78.9030276800    79.8292449300
 1648      H     904.3271605500   -78.8499736200    78.6715610100
 1649      H     906.2366311700   -80.9114672000    80.6557019000
 1650      C     905.7269971900   -76.8797494900    81.9768920600
 1651      H     904.0476711000   -77.2529141100    83.0988518800
 1652      H     907.2306489600   -76.8927735000    83.3736740500
 1653      C     905.5891275700   -74.4299765900    80.6543034400
 1654      H     907.4204757400   -74.0937758300    79.5778775600
 1655      H     904.0813756700   -74.3386876300    79.3551009400
 1656      C     905.4331031300   -72.2787391300    82.4914458000
 1657      H     903.6712064800   -71.9518367900    83.5954069500
 1658      H     906.9227695000   -72.5012994100    83.9625765000
 1659      C     906.1099081500   -69.6860124200    81.4617294200
 1660      H     907.7541025300   -70.0157498000    80.2463591300
 1661      H     904.6089973300   -68.8451278200    80.1796519800
 1662      C     906.9585250400   -67.5133234400    83.2624654100
 1663      H     905.2613018600   -67.0297586100    84.2816986200
 1664      H     908.1405888800   -68.2189755400    84.6861271000
 1665      C     908.0158860800   -65.0846273300    82.0523646300
 1666      H     909.0312307400   -65.7252318800    80.3636962500
 1667      H     906.5697738400   -63.7956777900    81.5804394500
 1668      C     909.7629981200   -63.8204434400    83.9409793500
 1669      H     908.6088325300   -63.8639239500    85.8098134400
 1670      H     911.3268173600   -65.1632307800    84.2575483800
 1671      C     910.6415891000   -61.2122040200    83.2770713000
 1672      H     911.6413655200   -61.4210495100    81.3880212100
 1673      H     909.1078008300   -59.8110318800    83.1587695800
 1674      C     912.7125176700   -60.5753037300    85.1763864800
 1675      H     911.9290308500   -60.4886006100    87.1551965400
 1676      H     914.3333300100   -61.7957540800    85.0670467700
 1677      C     914.1598145300   -58.0532675500    84.7489394800
 1678      H     915.4299879700   -58.1593533800    83.1485160700
 1679      H     912.8596177000   -56.5055014800    84.1202491700
 1680      C     915.5826596100   -56.9974407400    86.8745617200
 1681      H     916.6909123500   -55.3853009800    86.2643589300
 1682      H     916.8166058700   -58.5386107600    87.7108716000
 1683      H     914.0370216400   -56.2930341100    88.1311449700
 1684      H     925.6571340500   -78.6468744900    78.7063208600
 1685      C     924.1410655700   -77.2598769700    78.6568564300
 1686      H     922.6616135200   -78.5001525700    79.1581724700
 1687      H     924.9059873300   -75.8200227100    79.8986869400
 1688      C     923.4340702600   -76.0346771800    76.1386061700
 1689      H     925.0151315100   -74.9768775700    75.4018550200
 1690      H     923.0643938700   -77.6107527300    74.9026406700
 1691      C     921.2181076800   -74.2540892300    76.2048754600
 1692      H     919.4245065900   -75.4017592800    76.4679895100
 1693      H     921.4782248200   -73.0203787700    77.7440924700
 1694      C     920.9566080000   -72.7293298100    73.7405151900
 1695      H     922.2411758800   -73.5433376800    72.2749017300
 1696      H     919.0933555100   -73.0063718400    72.9628430100
 1697      C     921.8316275100   -69.9803916900    74.0188427600
 1698      H     920.9130596500   -68.9388330800    75.4473836000
 1699      H     923.7200751100   -70.0638737100    74.4814859100
 1700      C     921.4759456000   -68.3322843500    71.4845153000
 1701      H     922.7325975500   -66.6769295600    71.5161233500
 1702      H     921.9917700300   -69.4337675400    69.7909469900
 1703      C     918.7086848400   -67.4740225400    71.1064375300
 1704      H     917.6013108500   -69.2675930700    70.6174132800
 1705      H     917.7284088500   -67.0609289100    73.0129918700
 1706      C     918.2693832400   -65.1123981200    69.5730749300
 1707      H     919.3142058800   -63.5918496700    70.1788987700
 1708      H     918.8871007000   -65.5157602400    67.7267637300
 1709      C     915.5237340400   -64.3498466100    69.1937232500
 1710      H     914.5016170200   -65.8338666200    68.1264051200
 1711      H     914.4659952100   -64.2499315000    70.8950130000
 1712      C     915.2616360600   -61.6960035700    67.9573688100
 1713      H     915.9955295000   -60.2281380100    69.2308056500
 1714      H     916.4764054400   -61.8586027900    66.3919016700
 1715      C     912.5141746400   -60.9702003200    67.1642568800
 1716      H     912.6877248100   -59.4287014200    65.7090255400
 1717      H     911.5459602800   -62.5883620500    66.4225483200
 1718      C     910.9616278700   -59.8393438400    69.3657078800
 1719      H     910.6930010500   -61.0832327200    70.9214578800
 1720      H     909.0787981300   -59.5501815100    68.5791239300
 1721      H     911.7100932800   -58.0898634900    70.0715234900
 1722      H     926.7331534900   -48.8023012400    93.5307808900
 1723      C     928.4997431200   -48.2764789000    92.5140295900
 1724      H     928.0070112400   -47.1026260000    90.9790729300
 1725      H     929.5599567500   -46.9496864000    93.8057029200
 1726      C     930.0984691600   -50.6429384000    91.7081465600
 1727      H     931.9539795700   -49.9575931600    91.1357799300
 1728      H     930.4583023700   -51.9149277700    93.2695453700
 1729      C     928.9422473400   -52.2849309400    89.6120008000
 1730      H     927.6346659100   -53.6934475000    90.5449447300
 1731      H     927.9299342900   -51.0857930800    88.4172252500
 1732      C     931.0533141000   -53.7036176000    88.3484089500
 1733      H     932.3972170900   -52.2732148300    87.6035257100
 1734      H     932.1234671500   -54.9294813000    89.6525309000
 1735      C     930.2119654700   -55.4341090900    86.1215463700
 1736      H     929.3715897000   -57.1479609700    86.8639752600
 1737      H     928.8958374000   -54.2580688700    85.1273980100
 1738      C     932.3157533700   -56.2165068800    84.2538684800
 1739      H     933.1127565500   -54.5684073600    83.3186353900
 1740      H     933.6195452000   -57.1736796700    85.4539025000
 1741      C     931.2894605700   -57.9123189400    82.1613071600
 1742      H     930.2349226300   -59.4523457500    82.9235791800
 1743      H     929.8242783400   -56.8543574600    81.1320871200
 1744      C     933.4552983600   -58.7339122800    80.3603881700
 1745      H     934.0454714200   -57.0992210600    79.3153883600
 1746      H     935.0755098700   -59.4420075700    81.3679396900
 1747      C     932.5164477000   -60.4615900400    78.2961346100
 1748      H     932.1862029700   -62.2273280100    79.3288864200
 1749      H     930.6382895800   -59.8937675900    77.6963419600
 1750      C     934.4639060500   -60.9921820600    76.3433134100
 1751      H     934.6224039700   -59.1968681100    75.3969015700
 1752      H     936.1748501400   -61.3392648700    77.3523062400
 1753      C     933.6510355700   -63.2326968300    74.5373956700
 1754      H     933.5017186800   -64.8059526200    75.9379305200
 1755      H     931.6417192700   -63.1022907300    73.7426030000
 1756      C     935.8188616000   -63.5230886400    72.4558122300
 1757      H     935.4184941700   -65.2288248000    71.4345223900
 1758      H     937.7147551800   -63.5967440500    73.0944068400
 1759      H     935.7660960800   -61.8895330500    71.1702691900
 1760      H     949.8298014200   -56.8012050400    82.1441952600
 1761      C     950.8644718300   -56.6722913200    83.9010421100
 1762      H     951.7879878200   -58.4810042100    84.0339170800
 1763      H     952.4491729100   -55.3591790500    83.5146092300
 1764      C     949.2158765800   -55.8453686200    86.1035533800
 1765      H     948.1430371600   -57.4616877400    86.8174868100
 1766      H     950.2578253700   -55.0750031800    87.5338022500
 1767      C     947.4379144300   -53.7981711700    85.1027394900
 1768      H     948.3707791800   -52.6269391500    83.7366994900
 1769      H     945.7151420300   -54.5114615600    84.0230272900
 1770      C     946.4978032200   -51.7569324500    86.9822741100
 1771      H     945.6646694200   -52.5572157900    88.6947136200
 1772      H     948.1058074000   -50.5367700100    87.2340338400
 1773      C     944.3322336300   -50.0534893500    85.8958354100
 1774      H     944.8449672000   -49.3827208300    83.9972069800
 1775      H     942.7832722900   -51.2901902400    85.5038946600
 1776      C     943.4393169600   -47.9276727100    87.9126549600
 1777      H     942.7268750200   -48.7547233600    89.5498797000
 1778      H     945.1238248500   -46.7508448000    88.3866796600
 1779      C     941.3999217400   -46.3157887700    86.7043602700
 1780      H     942.4022546500   -45.4402761400    85.0331791100
 1781      H     939.8718934500   -47.3582605500    86.0029105300
 1782      C     940.4911966000   -44.0452513600    88.4511890800
 1783      H     942.1085007500   -43.0594959100    89.1051035300
 1784      H     939.7205682600   -42.7139609200    87.1357469000
 1785      C     938.7021576900   -45.0193885300    90.4889272800
 1786      H     937.2460122100   -46.3399756000    89.6862030600
 1787      H     939.7734011900   -46.3300848100    91.4791927000
 1788      C     937.6266287200   -43.0567101900    92.2542335600
 1789      H     939.2354853900   -41.9466905100    93.2341989400
 1790      H     936.5301924000   -41.8457827300    91.1409533100
 1791      C     935.6672082800   -44.2421885300    94.1555498500
 1792      H     934.1594365800   -44.9217154600    92.9812604100
 1793      H     936.4691171400   -45.7595685900    95.1821313000
 1794      C     934.5897635700   -42.3452357600    96.0467861000
 1795      H     933.4871834700   -40.8288799700    95.0557006700
 1796      H     936.0325775800   -41.5378389200    97.2794001400
 1797      H     933.2676927900   -43.1889452500    97.2531273600
 1798      H     913.4416767200   -50.6288591500    45.1193449900
 1799      C     914.1806172400   -52.5019900500    45.8613203600
 1800      H     913.4402529900   -53.0121983100    47.7998239000
 1801      H     913.7568125100   -53.9720618500    44.5471109900
 1802      C     917.0554149400   -52.2849829500    46.4107555700
 1803      H     917.9813159100   -52.5558686300    44.5549807200
 1804      H     917.5269724000   -50.3784346500    47.0582778500
 1805      C     918.1016187300   -54.0257935700    48.2685065200
 1806      H     917.6137003100   -53.2796864600    50.2160593700
 1807      H     917.2391925900   -55.9193244000    48.1970684900
 1808      C     920.8918210900   -54.7102443900    48.0434665900
 1809      H     921.5104496300   -54.5772917600    46.0876525800
 1810      H     921.8766855300   -53.2253041000    48.9930624200
 1811      C     921.6179393500   -57.2385343500    49.3276550600
 1812      H     920.5909591500   -57.2957110900    51.1755736900
 1813      H     920.8165261400   -58.8571952600    48.1549848100
 1814      C     924.4431707400   -57.7632200500    49.4747187800
 1815      H     925.3228540500   -57.4041746700    47.6624222800
 1816      H     925.6061236300   -56.4441010400    50.7475960400
 1817      C     925.1121031700   -60.2781094100    50.7341192600
 1818      H     924.4782037100   -59.8919198300    52.6664493500
 1819      H     924.0395761800   -61.7080310600    49.7980985700
 1820      C     927.9111580400   -60.8652697700    50.2427989800
 1821      H     928.5314130600   -60.4521212300    48.3099592100
 1822      H     929.1700099800   -59.7857893800    51.5022512900
 1823      C     928.0792213300   -63.7305463100    50.9426501700
 1824      H     927.1443407700   -64.0656001400    52.7585754200
 1825      H     926.8174620300   -64.9560932400    49.7281060300
 1826      C     930.8147626600   -64.5798031300    51.0153837800
 1827      H     931.6684527400   -64.2891211100    49.2668612500
 1828      H     931.7058024600   -63.3710198500    52.3474758900
 1829      C     931.1130703200   -67.2024130100    52.2033728800
 1830      H     930.9333089400   -67.2317553900    54.2292678500
 1831      H     929.8275970100   -68.6247765600    51.4543247900
 1832      C     933.8556176700   -68.0176032200    51.5847046100
 1833      H     935.3418900300   -66.9226208600    52.4621593900
 1834      H     934.3120778700   -68.1484415100    49.4576548700
 1835      H     934.2328118600   -69.9719545500    52.1028855700
 1836      H     930.4436067500   -60.7921659000    59.1362820900
 1837      C     932.2991118400   -61.2837543700    59.8799423300
 1838      H     932.8458138700   -59.3782252200    60.5501130900
 1839      H     931.6575295400   -62.4771484500    61.5288325700
 1840      C     934.3560561700   -62.4340222500    58.1587934800
 1841      H     935.9208401400   -63.0279775300    59.3604331700
 1842      H     933.5933460000   -64.0959279700    57.3479121300
 1843      C     935.0141526900   -60.5059004700    56.2522054200
 1844      H     933.5504061600   -60.6940460600    54.7345502300
 1845      H     934.8687911600   -58.5550816400    57.1211886600
 1846      C     937.5518240300   -60.9659048800    54.9811550400
 1847      H     939.0254433400   -61.4239651900    56.2862066600
 1848      H     937.2218869200   -62.6272026400    53.9604818700
 1849      C     938.5599574900   -58.7907856900    53.3531399500
 1850      H     937.3794812100   -58.4088107800    51.6210448800
 1851      H     938.4669645700   -57.0267644500    54.5316588400
 1852      C     941.4276784100   -59.0224669900    52.4432038200
 1853      H     942.4803082700   -59.0408205100    54.2328402000
 1854      H     941.8987600800   -60.5075828700    51.1550381100
 1855      C     942.3393796600   -56.6965650700    50.9375771500
 1856      H     942.0994610000   -54.8841286700    52.0762780600
 1857      H     944.3558403200   -56.7724603800    50.6143760500
 1858      C     940.9012677400   -56.2090445300    48.3798363300
 1859      H     942.1496571600   -55.4855261200    46.8988951700
 1860      H     939.8370819700   -57.8231272500    47.7251446800
 1861      C     938.9865221900   -53.9148441300    48.5541404800
 1862      H     937.3945052700   -54.5701972600    49.7570065600
 1863      H     940.0004104500   -52.4016728100    49.4612983600
 1864      C     938.0907246400   -53.0370806700    45.9952063900
 1865      H     939.6131174500   -52.9799145500    44.6939376000
 1866      H     936.6649041700   -54.4733956400    45.4095899200
 1867      C     936.9264971100   -50.4141719300    46.1296636300
 1868      H     935.6062400200   -50.1897686600    47.6784662600
 1869      H     938.3990838800   -48.9165638000    46.3900874400
 1870      C     935.8207835600   -49.6600525600    43.6715558700
 1871      H     935.0935264300   -47.7527428100    43.8145980100
 1872      H     934.1667125900   -50.6717239900    43.1460800900
 1873      H     937.1479516400   -49.8137972700    42.1356327000
 1874      H     924.7619424400   -38.0030380100    67.3808493300
 1875      C     923.2442910000   -39.5182934400    67.7437985200
 1876      H     921.3159231500   -38.7196631600    68.1152566100
 1877      H     923.1394212100   -40.5114301200    65.8827273900
 1878      C     923.9222131600   -41.2938750800    69.9702623300
 1879      H     925.5775501800   -42.2517692900    69.3485391300
 1880      H     924.4202896900   -40.1632617400    71.5569463100
 1881      C     921.9526068600   -43.2544537400    70.6304054000
 1882      H     920.5017237000   -42.4648854000    71.8939740000
 1883      H     921.1554477400   -44.0735592900    68.9652053200
 1884      C     923.0241340100   -45.5200203200    71.9716570300
 1885      H     924.2304769900   -46.2871575400    70.5334392600
 1886      H     924.1788691100   -45.0675816300    73.6372770700
 1887      C     920.8315819700   -47.2429201800    72.7764225100
 1888      H     919.7663012200   -46.3272550400    74.3380940000
 1889      H     919.5348550300   -47.4868418600    71.1453577600
 1890      C     921.7578149800   -49.8786449500    73.6278736700
 1891      H     923.0879360000   -50.4832987200    72.2300936300
 1892      H     922.7610885000   -49.7799077600    75.5017684600
 1893      C     919.5326239000   -51.8389398000    73.7968575000
 1894      H     917.7463163600   -50.9634877300    74.4550901800
 1895      H     919.0625640700   -52.6330432100    72.0047578000
 1896      C     920.2826244400   -54.1770429200    75.4187333600
 1897      H     921.1167795300   -53.9129189900    77.1975734900
 1898      H     918.4924707800   -55.0985540400    75.8054109100
 1899      C     921.7936862700   -55.9344516600    73.7807047400
 1900      H     920.5100140500   -56.7267295800    72.2214376900
 1901      H     923.4928830500   -55.1570984500    72.9344078000
 1902      C     922.7207932500   -58.2905251000    75.0974106100
 1903      H     923.7609532900   -57.7373991200    76.8049913700
 1904      H     921.1777414100   -59.5910135400    75.6443258400
 1905      C     924.6013994100   -59.8703022200    73.4863976600
 1906      H     923.7078677700   -60.1527771900    71.7294230000
 1907      H     926.3531316200   -58.7812804300    73.1788097300
 1908      C     925.3126657000   -62.3796405900    74.8739160300
 1909      H     924.0652509800   -63.8057072400    75.5826423900
 1910      H     926.3309616100   -61.8099534200    76.6191005700
 1911      H     926.6099641000   -63.2798716600    73.5787811800
 ----------------------------------------------------------------
 Nuclear Repulsion Energy =           0.00000000 hartrees
 There are       48 alpha and       48 beta electrons
 Total job time:  122.33s(wall), 241.23s(cpu) 
 Wed Jun 22 08:07:43 2022

        *************************************************************
        *                                                           *
        *  Thank you very much for using Q-Chem.  Have a nice day.  *
        *                                                           *
        *************************************************************


