                  Welcome to Q-Chem
     A Quantum Leap Into The Future Of Chemistry


 Q-Chem 5.4 (devel), Q-Chem, Inc., Pleasanton, CA (2021)

 E. Epifanovsky,  A. T. B. Gilbert,  Xintian Feng,  Joonho Lee,  Yuezhi Mao,  
 N. Mardirossian,  P. Pokhilko,  A. White,  M. Wormit,  M. P. Coons,  
 A. L. Dempwolff,  Zhengting Gan,  D. Hait,  P. R. Horn,  L. D. Jacobson,  
 I. Kaliman,  J. Kussmann,  A. W. Lange,  Ka Un Lao,  D. S. Levine,  Jie Liu,  
 S. C. McKenzie,  A. F. Morrison,  K. Nanda,  F. Plasser,  D. R. Rehn,  
 M. L. Vidal,  Zhi-Qiang You,  Ying Zhu,  B. Alam,  B. Albrecht,  
 A. Aldossary,  E. Alguire,  J. H. Andersen,  D. Barton,  K. Begam,  A. Behn,  
 Y. A. Bernard,  E. J. Berquist,  H. Burton,  A. Carreras,  K. Carter-Fenk,  
 R. Chakraborty,  A. D. Chien,  K. D. Closser,  V. Cofer-Shabica,  
 S. Dasgupta,  Jia Deng,  M. de Wergifosse,  M. Diedenhofen,  Hainam Do,  
 S. Ehlert,  Po-Tung Fang,  S. Fatehi,  Qingguo Feng,  T. Friedhoff,  
 J. Gayvert,  Qinghui Ge,  G. Gidofalvi,  M. Goldey,  J. Gomes,  
 C. Gonzalez-Espinoza,  S. Gulania,  A. Gunina,  M. W. D. Hanson-Heine,  
 P. H. P. Harbach,  A. W. Hauser,  M. F. Herbst,  M. Hernandez Vera,  
 M. Hodecker,  Z. C. Holden,  S. Houck,  Xunkun Huang,  Kerwin Hui,  
 B. C. Huynh,  M. Ivanov,  Hyunjun Ji,  Hanjie Jiang,  B. Kaduk,  S. Kaehler,  
 K. Khistyaev,  Jaehoon Kim,  P. Klunzinger,  Z. Koczor-Benda,  
 Joong Hoon Koh,  D. Kosenkov,  L. Koulias,  T. Kowalczyk,  C. M. Krauter,  
 K. Kue,  A. Kunitsa,  T. Kus,  A. Landau,  K. V. Lawler,  D. Lefrancois,  
 S. Lehtola,  Rain Li,  Yi-Pei Li,  Jiashu Liang,  M. Liebenthal,  
 Hung-Hsuan Lin,  You-Sheng Lin,  Fenglai Liu,  Kuan-Yu Liu,  
 M. Loipersberger,  A. Luenser,  A. Manjanath,  P. Manohar,  E. Mansoor,  
 S. F. Manzer,  Shan-Ping Mao,  A. V. Marenich,  T. Markovich,  S. Mason,  
 S. A. Maurer,  P. F. McLaughlin,  M. F. S. J. Menger,  J.-M. Mewes,  
 S. A. Mewes,  P. Morgante,  J. W. Mullinax,  K. J. Oosterbaan,  G. Paran,  
 Alexander C. Paul,  Suranjan K. Paul,  F. Pavosevic,  Zheng Pei,  S. Prager,  
 E. I. Proynov,  E. Ramos,  B. Rana,  A. E. Rask,  A. Rettig,  R. M. Richard,  
 F. Rob,  E. Rossomme,  T. Scheele,  M. Scheurer,  M. Schneider,  
 N. Sergueev,  S. M. Sharada,  W. Skomorowski,  D. W. Small,  C. J. Stein,  
 Yu-Chuan Su,  E. J. Sundstrom,  Zhen Tao,  J. Thirman,  T. Tsuchimochi,  
 N. M. Tubman,  S. P. Veccham,  O. Vydrov,  J. Wenzel,  J. Witte,  A. Yamada,  
 Kun Yao,  S. Yeganeh,  S. R. Yost,  A. Zech,  Igor Ying Zhang,  Xing Zhang,  
 Yu Zhang,  D. Zuev,  A. Aspuru-Guzik,  A. T. Bell,  N. A. Besley,  
 K. B. Bravaya,  B. R. Brooks,  D. Casanova,  Jeng-Da Chai,  S. Coriani,  
 C. J. Cramer,  A. E. DePrince, III,  R. A. DiStasio Jr.,  A. Dreuw,  
 B. D. Dunietz,  T. R. Furlani,  W. A. Goddard III,  S. Grimme,  
 S. Hammes-Schiffer,  T. Head-Gordon,  W. J. Hehre,  Chao-Ping Hsu,  
 T.-C. Jagau,  Yousung Jung,  A. Klamt,  Jing Kong,  D. S. Lambrecht,  
 WanZhen Liang,  N. J. Mayhall,  C. W. McCurdy,  J. B. Neaton,  
 C. Ochsenfeld,  J. A. Parkhill,  R. Peverati,  V. A. Rassolov,  Yihan Shao,  
 L. V. Slipchenko,  T. Stauch,  R. P. Steele,  J. E. Subotnik,  
 A. J. W. Thom,  A. Tkatchenko,  D. G. Truhlar,  T. Van Voorhis,  
 T. A. Wesolowski,  K. B. Whaley,  H. L. Woodcock III,  P. M. Zimmerman,  
 S. Faraji,  P. M. W. Gill,  M. Head-Gordon,  J. M. Herbert,  A. I. Krylov

 Additional authors for Version 5.4.1: 
 S. Kotaru,  Shaozhi Li,  Xiangyuan Li,  F. Matz,  A. Molle,  Haisheng Ren,  
 Yingli Su,  Hung-Yi Tsai,  C. Utku,  Fang Wang

 Contributors to earlier versions of Q-Chem not listed above: 
 R. D. Adamson,  B. Austin,  R. Baer,  J. Baker,  G. J. O. Beran,  
 K. Brandhorst,  S. T. Brown,  E. F. C. Byrd,  A. K. Chakraborty,  
 G. K. L. Chan,  Chun-Min Chang,  Yunqing Chen,  C.-L. Cheng,  
 Siu Hung Chien,  D. M. Chipman,  D. L. Crittenden,  H. Dachsel,  
 R. J. Doerksen,  A. D. Dutoi,  R. G. Edgar,  J. Fosso-Tande,  
 L. Fusti-Molnar,  D. Ghosh,  A. Ghysels,  A. Golubeva-Zadorozhnaya,  
 J. Gonthier,  M. S. Gordon,  S. R. Gwaltney,  G. Hawkins,  J. E. Herr,  
 A. Heyden,  S. Hirata,  E. G. Hohenstein,  G. Kedziora,  F. J. Keil,  
 C. Kelley,  Jihan Kim,  R. A. King,  R. Z. Khaliullin,  P. P. Korambath,  
 W. Kurlancheek,  A. Laurent,  A. M. Lee,  M. S. Lee,  S. V. Levchenko,  
 Ching Yeh Lin,  D. Liotard,  E. Livshits,  R. C. Lochan,  I. Lotan,  
 L. A. Martinez-Martinez,  P. E. Maslen,  N. Nair,  D. P. O'Neill,  
 D. Neuhauser,  E. Neuscamman,  C. M. Oana,  R. Olivares-Amaya,  R. Olson,  
 T. M. Perrine,  B. Peters,  P. A. Pieniazek,  A. Prociuk,  Y. M. Rhee,  
 J. Ritchie,  M. A. Rohrdanz,  E. Rosta,  N. J. Russ,  H. F. Schaefer III,  
 M. W. Schmidt,  N. E. Schultz,  S. Sharma,  N. Shenvi,  C. D. Sherrill,  
 A. C. Simmonett,  A. Sodt,  T. Stein,  D. Stuck,  K. S. Thanthiriwatte,  
 V. Vanovschi,  L. Vogt,  Tao Wang,  A. Warshel,  M. A. Watson,  
 C. F. Williams,  Q. Wu,  X. Xu,  Jun Yang,  W. Zhang,  Yan Zhao

 Please cite Q-Chem as follows:
 Y. Shao et al., Mol. Phys. 113, 184-215 (2015)
 DOI: 10.1080/00268976.2014.952696

 Q-Chem 5.4.1 for Intel X86 EM64T Linux

 Parts of Q-Chem use Armadillo 9.900.5 (Nocturnal Misbehaviour).
 http://arma.sourceforge.net/

 Q-Chem begins on Sun Jul  3 09:42:04 2022  

 Host: p09r14n10.grace.hpc.yale.internal
0

     Scratch files written to /home/tl686/scratch60/qchem_dev/scratch/qchem36639//
 Processing $rem in /home/tl686/qchem_dev/qchem/config/preferences:
 Processing $rem in /home/tl686/.qchemrc:
Applying user defined connections for MM calculations

 Checking the input file for inconsistencies... 	...done.

--------------------------------------------------------------
User input:
--------------------------------------------------------------
$molecule
0   1
Fe -634.58890141 -49.20990107 -27.49928860    -1  0   0   0   0
C -634.32640047 -52.46113976 -28.34430416    -2  0   0   0   0 
C -634.89308194 -45.77884585 -27.12835521    -2  0   0   0   0
C -633.20310223 -48.93285445 -30.62094505    -2  0   0   0   0
C -637.72808830 -49.17032829 -26.38388206    -2  0   0   0   0
C -632.34669065 -49.57456431 -24.93081719    -2  0   0   0   0
O -633.75489510 -54.47370801 -29.02798889    -3  0   0   0   0
O -634.94280526 -43.60352916 -26.96021568    -3  0   0   0   0 
O -632.60117936 -48.67851015 -32.75922180    -3  0   0   0   0
O -639.88436486 -49.39970079 -25.67224065    -3  0   0   0   0 
O -631.10611951 -50.05443398 -23.21044847    -3  0   0   0   0
H -644.27160169 -68.18958987 -48.41760201      6     13    0    0    0 
C -643.30840349 -69.67940015 -47.25862514     1     12    14    15    16
H -643.45936698 -71.26004061 -48.52689056     6     13    0    0    0
H -641.43317033 -68.95345189 -46.95718655     6     13    0    0    0
C -644.73823128 -70.08612297 -44.74063876     2     13    17    18    19
H -646.70106177 -70.58843462 -45.02648646     6     16    0    0    0
H -643.75126257 -71.49397046 -43.67659074     6     16    0    0    0
C -644.84555969 -67.59804976 -43.22498152     2     16    20   21   22
H -642.89054062 -67.09186769 -42.61351841     6     19    0    0    0
H -645.89604406 -66.17879019 -44.31188752     6     19    0    0    0
C -646.62671607 -68.18293398 -40.93608227     2     19   23   24   25
H -648.41152613 -68.67252233 -41.80179019     6    22    0    0    0
H -646.00923351 -69.80226019 -39.90613663     6    22    0    0    0
C -647.05623430 -65.88122250 -39.24235945     2    22   26   27   28
H -645.33410066 -65.43858919 -38.21961883     6    25    0    0    0
H -647.50434106 -64.12576585 -40.28230859     6    25    0    0    0
C -648.85853547 -66.57569153 -37.12429898     2    25   29   30   31
H -650.90151047 -66.96826455 -37.79475085     6    28    0    0    0
H -648.46650844 -68.39011952 -36.32777725     6    28    0    0    0
C -649.09007987 -64.47186099 -35.14902403     2    28   32   33   34
H -647.27123393 -63.91596127 -34.40220953     6    31    0    0    0
H -649.94005191 -62.88235943 -36.14277043     6    31    0    0    0
C -650.55907454 -65.38471492 -32.88909859     2    31   35   36   37
H -652.47603368 -65.89568875 -33.40443026     6    34    0    0    0
H -649.83937551 -67.03497314 -31.93684581     6    34    0    0    0
C -650.83760253 -63.29105696 -30.76170150     2    34   38   39   40
H -649.08665742 -62.91471460 -29.71755611     6    37    0    0    0
H -651.21276730 -61.41468012 -31.62583815     6    37    0    0    0
C -652.76843865 -64.03459734 -28.80578954     2    37   41   42   43
H -654.51108742 -64.53606273 -29.72233702     6    40    0    0    0
H -651.90822881 -65.77622320 -28.08565060     6    40    0    0    0
C -652.81199153 -61.99341331 -26.61717677     2    40   44   45   46
H -650.87438148 -61.47774681 -26.13885477     6    43    0    0    0
H -653.54727039 -60.31322835 -27.35962020     6    43    0    0    0
C -654.08045784 -63.08305833 -24.26709393     1    43   47   48   49
H -656.13018592 -63.50537823 -24.26845172     6    46    0    0    0
H -653.86919894 -61.87200189 -22.64248642     6    46    0    0    0
H -653.07668323 -64.85851610 -23.77005472     6    46    0    0    0
H -638.26915644 -57.75862986 -27.69649208     6     51    0    0    0 
C -639.21884261 -56.44091449 -26.32006843     1     50    52    53    54
H -637.71782853 -55.79092350 -25.06455824     6     51    0    0    0
H -639.89309882 -54.87760251 -27.49117385     6     51    0    0    0
C -641.27227678 -57.83647450 -24.87294037     2     51    55    56    57
H -642.19541559 -58.95106262 -26.22441282     6     54    0    0    0
H -640.51214285 -59.03092040 -23.38378161     6     54    0    0    0
C -643.18351960 -56.16266105 -23.39024379     2     54    58   59   60
H -642.11963364 -55.49429112 -21.75635413     6     57    0    0    0
H -643.70746072 -54.47761833 -24.59984411     6     57    0    0    0
C -645.58090316 -57.42182698 -22.49376859     2     57   61   62   63
H -646.84741946 -58.06254962 -23.95620810     6    60    0    0    0
H -645.00804971 -59.10947560 -21.63881568     6    60    0    0    0
C -647.34859113 -55.70232398 -20.88748233     2    60   64   65   66
H -646.27014438 -54.78462122 -19.31250800     6    63    0    0    0
H -647.94668451 -54.21559302 -22.17392796     6    63    0    0    0
C -649.68374550 -56.98151940 -19.91713812     2    63   67   68   69
H -650.88756538 -55.55367473 -19.17508604     6    66    0    0    0
H -650.42290571 -57.92239174 -21.48330198     6    66    0    0    0
C -649.18244254 -58.86553003 -17.66999949     2    66   70   71   72
H -647.30542623 -59.80745865 -17.91214485     6    69    0    0    0
H -649.06344796 -57.58108899 -16.01373867     6    69    0    0    0
C -651.28856961 -60.88123589 -17.21134234     2    69   73   74   75
H -653.03717920 -59.88419906 -17.46851505     6    72    0    0    0
H -651.03049869 -62.22984220 -18.78964824     6    72    0    0    0
C -651.10004743 -62.16869102 -14.74300429     2    72   76   77   78
H -649.22688224 -63.10813440 -14.54354483     6    75    0    0    0
H -651.34386304 -60.84211800 -13.16018559     6    75    0    0    0
C -653.02023819 -64.46518681 -14.29875540     2    75   79   80   81
H -654.95056650 -63.69655074 -14.23435918     6    78    0    0    0
H -653.01134851 -65.64269100 -16.02098700     6    78    0    0    0
C -652.39788081 -66.10345790 -12.00886907     2    78   82   83   84
H -650.56111119 -66.79197153 -12.33368404     6    81    0    0    0
H -652.16420636 -64.85131295 -10.37130665     6    81    0    0    0
C -654.47911643 -67.97679571 -11.33105900     1    81   85   86   87
H -654.42819127 -69.18303201 -9.65801128     6    84    0    0    0
H -654.56245566 -69.18373158 -12.97606181     6    84    0    0    0
H -656.23558104 -66.84306794 -11.26369712     6    84    0    0    0
H -658.80379540 -44.72305816 -49.57267375     6     89    0    0    0 
C -660.26760061 -46.24896224 -49.55941375     1     88    90    91    92
H -660.80008544 -45.91598820 -47.60247676     6     89    0    0    0
H -661.77575694 -45.88720771 -50.92943068     6     89    0    0    0
C -659.19020655 -48.88809027 -49.54446645     2     89    93    94    95
H -658.33265747 -49.13749850 -51.42534594     6     92    0    0    0
H -657.63757137 -49.04824897 -48.17884446     6     92    0    0    0
C -661.41548382 -50.90134675 -49.08717050     2     92    96   97   98
H -662.30578378 -50.81590830 -47.18172792     6     95    0    0    0
H -663.05674106 -50.41107474 -50.30968017     6     95    0    0    0
C -660.73306767 -53.66867469 -49.81753351     2     95   99   100   101
H -660.83983984 -53.99380538 -51.89217575     6    98    0    0    0
H -658.81539307 -54.37987263 -49.32354871     6    98    0    0    0
C -662.68188856 -55.57131070 -48.73560017     2    98   102   103   104
H -664.62394572 -54.67207554 -48.84544687     6    101    0    0    0
H -662.42933973 -57.20157356 -49.99652936     6    101    0    0    0
C -662.16270350 -56.50419996 -46.00087820     2    101   105   106   107
H -660.33682594 -57.13951244 -45.95933920     6    104    0    0    0
H -662.19761031 -54.89839254 -44.82778372     6    104    0    0    0
C -663.79755709 -58.91429820 -45.24199218     2    104   108   109   110
H -665.39390413 -58.15095997 -44.15929557     6    107    0    0    0
H -664.64676616 -59.96216877 -46.82396967     6    107    0    0    0
C -662.60068288 -60.77207548 -43.37708695     2    107   111   112   113
H -660.86157120 -61.45451554 -44.04322185     6    110    0    0    0
H -661.83113545 -59.98387279 -41.71794231     6    110    0    0    0
C -664.16899000 -63.08558639 -42.74977157     2    110   114   115   116
H -665.78053338 -62.53696706 -41.60667841     6    113    0    0    0
H -665.15055177 -63.76201611 -44.49969255     6    113    0    0    0
C -662.82441172 -65.31225153 -41.39830369     2    113   117   118   119
H -661.53219017 -66.32508216 -42.64935006     6    116    0    0    0
H -661.59713847 -64.49828084 -39.92592819     6    116    0    0    0
C -664.44769193 -67.38159390 -40.19612716     2    116   120   121   122
H -665.75662087 -66.48685516 -38.89850663     6    119    0    0    0
H -665.48728626 -68.22865502 -41.74677603     6    119    0    0    0
C -663.13579880 -69.56546898 -38.85147778     1    119   123   124   125
H -664.24815627 -71.23430430 -38.90077786     6    122    0    0    0
H -662.74260360 -69.02829219 -36.84863500     6    122    0    0    0
H -661.23351372 -70.21424920 -39.66388120     6    122    0    0    0
H -653.57303705 -34.42265316 -51.39804457     6     127    0    0    0 
C -652.27276931 -34.19731974 -49.89345162     1     126    128    129    130
H -651.32021465 -32.37764987 -49.92239726     6     127    0    0    0
H -653.45308462 -34.29787473 -48.03124290     6     127    0    0    0
C -650.17925574 -36.10048261 -49.95722337     2     127    131    132    133
H -650.59965035 -37.95879977 -49.06925310     6     130    0    0    0
H -649.36890130 -36.16156709 -51.87132624     6     130    0    0    0
C -648.00675738 -35.41955896 -48.22656457     2     130    134   135   136
H -647.23941241 -33.54249853 -48.78148702     6     133    0    0    0
H -648.62596475 -35.09081014 -46.31946198     6     133    0    0    0
C -645.86714802 -37.44708762 -48.12250245     2     133   137   138   139
H -646.77545995 -39.15360061 -47.42395535     6    136    0    0    0
H -645.06288178 -38.04538225 -50.04093758     6    136    0    0    0
C -643.94271301 -36.45767726 -46.28559080     2    136   140   141   142
H -642.99799862 -34.86838853 -47.23389756     6    139    0    0    0
H -644.67532731 -35.94804363 -44.35617539     6    139    0    0    0
C -641.79481278 -38.23030411 -45.74029231     2    139   143   144   145
H -642.76268991 -39.87281478 -44.98090434     6    142    0    0    0
H -640.87974321 -38.92882042 -47.54903123     6    142    0    0    0
C -639.95795231 -37.16717480 -43.92523451     2    142   146   147   148
H -639.45677137 -35.26363890 -44.64133805     6    145    0    0    0
H -641.23155442 -36.74323279 -42.22526128     6    145    0    0    0
C -637.73416711 -38.98205420 -43.27641009     2    145   149   150   151
H -638.55890199 -40.62312121 -42.41551781     6    148    0    0    0
H -636.59551271 -39.49880489 -44.98848870     6    148    0    0    0
C -635.78191140 -38.06908136 -41.21248686     2    148   152   153   154
H -634.89032751 -36.33857024 -41.75632645     6    151    0    0    0
H -636.85651361 -37.88068401 -39.32448602     6    151    0    0    0
C -633.72440047 -40.25025305 -40.65685020     2    151   155   156   157
H -632.67489169 -39.79712511 -38.87417353     6    154    0    0    0
H -634.71776015 -41.97032380 -40.09857567     6    154    0    0    0
C -631.90254481 -40.56885758 -42.86440509     2    154   158   159   160
H -633.11662655 -41.31841349 -44.40389823     6    157    0    0    0
H -631.16606599 -38.90522463 -43.82081267     6    157    0    0    0
C -629.70392337 -42.44803538 -42.21266224     1    157   161   162   163
H -628.40179665 -41.96207593 -40.73924813     6    160    0    0    0
H -628.52997734 -42.83621549 -43.88525702     6    160    0    0    0
H -630.45247775 -44.39324339 -41.93257329     6    160    0    0    0
H -661.55974859 -41.86168000 -47.24087643     6     165    0    0    0 
C -662.23569387 -40.63209398 -45.63180028     1     164    166    167    168
H -664.35261147 -40.33870202 -45.75698076     6     165    0    0    0
H -661.84616589 -41.95031733 -44.04422074     6     165    0    0    0
C -660.92387301 -38.11501932 -45.62535237     2     165    169    170    171
H -658.91712808 -38.33710049 -45.81171221     6     168    0    0    0
H -661.43242853 -37.30329720 -47.38007253     6     168    0    0    0
C -661.80818288 -36.29312191 -43.71459713     2     168    172   173   174
H -663.67276111 -35.64649772 -44.10765512     6     171    0    0    0
H -661.86239208 -37.15210447 -41.90883966     6     171    0    0    0
C -660.22341041 -33.82739269 -43.72524430     2     171   175   176   177
H -658.14148599 -34.17625712 -43.91739593     6    174    0    0    0
H -660.67111017 -32.82981706 -45.57068212     6    174    0    0    0
C -660.49848820 -32.18356008 -41.26916558     2    174   178   179   180
H -662.43797078 -31.47809649 -40.88117295     6    177    0    0    0
H -659.82614344 -33.36366443 -39.75737480     6    177    0    0    0
C -659.01392693 -29.73093278 -41.56620282     2    177   181   182   183
H -657.17410320 -30.48633798 -41.95601285     6    180    0    0    0
H -659.49597896 -28.58689115 -43.25052814     6    180    0    0    0
C -658.89976899 -28.17878698 -39.22245954     2    180   184   185   186
H -660.48002232 -26.85775979 -39.45372943     6    183    0    0    0
H -659.11250349 -29.31559850 -37.44852161     6    183    0    0    0
C -656.49582968 -26.59544527 -39.01306074     2    183   187   188   189
H -654.72459827 -27.62449604 -38.58342282     6    186    0    0    0
H -656.09443121 -25.62624529 -40.77700134     6    186    0    0    0
C -656.88992331 -24.46146159 -37.09114311     2    186   190   191   192
H -658.71628284 -23.55343287 -37.24572315     6    189    0    0    0
H -656.75962490 -25.22695455 -35.16493457     6    189    0    0    0
C -654.88783088 -22.47481090 -37.47704997     2    189   193   194   195
H -652.98914015 -23.28330130 -37.28375924     6    192    0    0    0
H -654.76992333 -21.90191262 -39.52318238     6    192    0    0    0
C -655.21194311 -20.13604657 -35.76994088     2    192   196   197   198
H -656.52596273 -18.99189616 -36.71748746     6    195    0    0    0
H -655.92817195 -20.55453098 -33.86378582     6    195    0    0    0
C -652.77226448 -18.59394055 -35.61287327     1    195   199   200   201
H -652.76459582 -17.04715441 -34.33804020     6    198    0    0    0
H -651.79565642 -17.90601905 -37.12332767     6    198    0    0    0
H -651.42038246 -20.00701722 -34.70927325     6    198    0    0    0
H -662.85595256 -42.28570976 -18.52816172     6     203    0    0    0 
C -662.26612878 -41.84415100 -20.52199807     1     202    204    205    206
H -661.30475413 -43.35056436 -21.41703060     6     203    0    0    0
H -664.09183570 -41.63241902 -21.48073314     6     203    0    0    0
C -660.84646029 -39.33458785 -20.50912727     2     203    207    208    209
H -659.03221613 -39.68758029 -19.51716138     6     206    0    0    0
H -660.37418984 -38.92597671 -22.56569542     6     206    0    0    0
C -662.36869779 -37.10649636 -19.17256839     2     206    210   211   212
H -661.65548294 -35.22873098 -19.74073828     6     209    0    0    0
H -664.30285095 -37.01995303 -19.66814996     6     209    0    0    0
C -661.86884319 -37.33541266 -16.37768364     2     209   213   214   215
H -662.52009215 -39.17246514 -15.66743840     6    212    0    0    0
H -659.76729019 -37.41917317 -16.12453636     6    212    0    0    0
C -662.90410889 -35.09116758 -14.80352601     2    212   216   217   218
H -662.02565720 -33.11605119 -15.19513920     6    215    0    0    0
H -665.04426671 -34.77954421 -15.05383899     6    215    0    0    0
C -662.42889185 -35.42452441 -12.08208120     2    215   219   220   221
H -663.56615715 -36.98043078 -11.38537412     6    218    0    0    0
H -660.44604819 -35.85246239 -11.78040536     6    218    0    0    0
C -663.06503780 -33.22445438 -10.35839265     2    218   222   223   224
H -661.75513913 -31.64804809 -10.48549573     6    221    0    0    0
H -664.94005161 -32.42374017 -11.02402641     6    221    0    0    0
C -663.25337560 -33.87717783 -7.58736037     2    221   225   226   227
H -664.79208011 -35.29252326 -7.47190047     6    224    0    0    0
H -661.49153793 -34.81427030 -6.93705919     6    224    0    0    0
C -664.12949263 -31.70073410 -5.72705041     2    224   228   229   230
H -662.69553629 -30.17987082 -6.03718494     6    227    0    0    0
H -665.96125475 -30.97288022 -6.28480760     6    227    0    0    0
C -664.33023222 -32.45066874 -2.86790941     2    227   231   232   233
H -665.61604997 -33.96084354 -2.95673481     6    230    0    0    0
H -662.74601263 -33.33882001 -2.14410254     6    230    0    0    0
C -665.92910299 -30.46897803 -1.31506182     2    230   234   235   236
H -664.98440760 -28.54397837 -1.01983591     6    233    0    0    0
H -667.74103390 -29.95204426 -2.23757894     6    233    0    0    0
C -666.81263026 -31.49341331 1.17622256     1    233   237   238   239
H -667.77574324 -29.89354089 2.20812390     6    236    0    0    0
H -665.07692656 -32.00724196 2.13387423     6    236    0    0    0
H -668.19344740 -33.05751387 0.91479018     6    236    0    0    0
H -666.26279473 -63.76122737 -16.86373896     6     241    0    0    0 
C -666.05321603 -65.74626324 -17.47520978     1     240    242    243    244
H -667.99087265 -66.74022620 -17.29223320     6     241    0    0    0
H -665.59437588 -65.86719387 -19.57465522     6     241    0    0    0
C -664.06071113 -67.30967384 -15.95642410     2     241    245    246    247
H -664.53236473 -67.55652441 -13.98645846     6     244    0    0    0
H -663.94457858 -69.13049712 -16.69112217     6     244    0    0    0
C -661.40126370 -66.12680627 -16.25625418     2     244    248   249   250
H -661.22191580 -65.15080543 -18.00644168     6     247    0    0    0
H -661.03683914 -64.78077205 -14.68184806     6     247    0    0    0
C -659.27012290 -67.96980504 -15.83429152     2     247   251   252   253
H -657.45237782 -67.01203976 -15.99653500     6    250    0    0    0
H -659.56509177 -69.11066020 -14.06078718     6    250    0    0    0
C -658.97994589 -69.78310796 -18.08758430     2    250   254   255   256
H -660.64586451 -70.80752007 -18.29436838     6    253    0    0    0
H -658.72884763 -68.78314046 -19.84312654     6    253    0    0    0
C -656.52097230 -71.48071926 -18.01879590     2    253   257   258   259
H -656.35616953 -72.64690735 -19.66654560     6    256    0    0    0
H -654.82464776 -70.28360241 -18.01287631     6    256    0    0    0
C -656.29404336 -73.45704924 -15.80396003     2    256   260   261   262
H -656.64712495 -72.52405531 -14.01027783     6    259    0    0    0
H -657.94982773 -74.64019984 -15.90081381     6    259    0    0    0
C -653.90211630 -75.14931259 -15.66499067     2    259   263   264   265
H -653.87840487 -76.52834097 -17.11477396     6    262    0    0    0
H -652.15833822 -74.22598661 -16.31024166     6    262    0    0    0
C -653.61727664 -76.29838703 -13.06122604     2    262   266   267   268
H -653.79507142 -75.07544663 -11.41660754     6    265    0    0    0
H -654.85480177 -77.90459281 -12.86957117     6    265    0    0    0
C -650.87990986 -77.36309699 -12.94957217     2    265   269   270   271
H -650.65719824 -78.42927401 -14.74029269     6    268    0    0    0
H -649.44288261 -75.81385263 -13.09250812     6    268    0    0    0
C -650.25171600 -78.98246235 -10.65826479     2    268   272   273   274
H -650.41049233 -77.61848360 -9.17320124     6    271    0    0    0
H -651.81835160 -80.31690956 -10.62170395     6    271    0    0    0
C -647.65835933 -80.15592946 -10.79726005     1    271   275   276   277
H -647.51471612 -81.63336833 -12.26316907     6    274    0    0    0
H -647.27509866 -80.85652719 -9.04622691     6    274    0    0    0
H -646.20844553 -78.67905867 -11.18399903     6    274    0    0    0
H -665.51143257 -46.38453679 -26.51748908     6     279    0    0    0 
C -665.92349416 -47.91080925 -25.21184581     1     278    280    281    282
H -667.89194458 -48.24300476 -24.92638001     6     279    0    0    0
H -665.12645040 -49.62521173 -25.88476502     6     279    0    0    0
C -664.96041087 -47.35127647 -22.51839432     2     279    283    284    285
H -663.01179538 -47.48039969 -22.65851950     6     282    0    0    0
H -665.71951125 -45.59683918 -21.72658146     6     282    0    0    0
C -665.59317408 -49.79176955 -21.02766216     2     282    286   287   288
H -667.60655906 -49.62575237 -20.66641328     6     285    0    0    0
H -665.00797346 -51.49693704 -21.91964112     6     285    0    0    0
C -664.02825845 -49.55161527 -18.68999810     2     285   289   290   291
H -662.00952850 -49.80825514 -19.14088636     6    288    0    0    0
H -664.05557638 -47.77689425 -17.78310530     6    288    0    0    0
C -664.97538794 -51.52475669 -16.59245345     2    288   292   293   294
H -667.14199294 -51.43574876 -16.29065082     6    291    0    0    0
H -664.61872004 -53.46185153 -17.32660614     6    291    0    0    0
C -663.43500877 -51.21278657 -14.15991894     2    291   295   296   297
H -661.52320367 -51.62880424 -14.66135400     6    294    0    0    0
H -663.35341427 -49.28387990 -13.55465695     6    294    0    0    0
C -664.29243745 -52.78316843 -11.84238406     2    294   298   299   300
H -666.21080596 -52.29830781 -11.37617472     6    297    0    0    0
H -664.34660490 -54.73780869 -12.19295885     6    297    0    0    0
C -662.30268842 -52.35594862 -9.88581805     2    297   301   302   303
H -660.38940074 -52.48726336 -10.88595736     6    300    0    0    0
H -662.32966462 -50.43515956 -9.28608841     6    300    0    0    0
C -662.37674105 -54.11216835 -7.63116903     2    300   304   305   306
H -664.17933294 -53.94328169 -6.57339933     6    303    0    0    0
H -662.07286261 -56.21214540 -8.22806817     6    303    0    0    0
C -660.32964338 -53.16927673 -5.68324046     2    303   307   308   309
H -658.44296886 -53.51247025 -6.59663352     6    306    0    0    0
H -660.30954803 -51.12066203 -5.41861866     6    306    0    0    0
C -660.39930983 -54.71060049 -3.23760163     2    306   310   311   312
H -662.28878714 -54.51589109 -2.48064561     6    309    0    0    0
H -660.12392306 -56.70191733 -3.24371689     6    309    0    0    0
C -658.43787540 -53.71727229 -1.43770709     1    309   313   314   315
H -658.53496733 -54.72256921 0.32531568     6    312    0    0    0
H -658.69550101 -51.66584460 -0.87940325     6    312    0    0    0
H -656.52184817 -53.67758175 -2.10566155     6    312    0    0    0
H -655.24615906 -51.69693913 -42.41885070     6     317    0    0    0 
C -653.92058846 -51.78384899 -43.93213283     1     316    318    319    320
H -652.45518796 -53.04665226 -43.39640667     6     317    0    0    0
H -654.99127450 -52.27341227 -45.54225729     6     317    0    0    0
C -652.85554944 -49.24794781 -44.39429252     2     317    321    322    323
H -652.21857575 -49.25442502 -46.28837409     6     320    0    0    0
H -654.55126083 -47.90516162 -44.38185556     6     320    0    0    0
C -650.91313218 -48.44573933 -42.41836472     2     320    324   325   326
H -650.66427509 -46.36227508 -42.58593505     6     323    0    0    0
H -651.54060760 -49.00672385 -40.56183838     6     323    0    0    0
C -648.27608701 -49.58317073 -43.05195500     2     323   327   328   329
H -647.30388626 -49.89117260 -41.20090904     6    326    0    0    0
H -648.43139018 -51.50664371 -43.76502506     6    326    0    0    0
C -646.76722510 -47.79439739 -44.76783355     2    326   330   331   332
H -647.80272910 -47.74216342 -46.39273523     6    329    0    0    0
H -646.34112528 -45.84836668 -44.19015139     6    329    0    0    0
C -644.14073791 -48.93781647 -45.65506980     2    329   333   334   335
H -644.79711077 -50.80479505 -46.15296341     6    332    0    0    0
H -643.39463205 -47.91691785 -47.32785897     6    332    0    0    0
C -642.23190018 -49.07910717 -43.61042569     2    332   336   337   338
H -641.57342952 -47.25993309 -43.08808967     6    335    0    0    0
H -643.00546625 -50.02568903 -41.98411912     6    335    0    0    0
C -639.94314893 -50.50060781 -44.44386474     2    335   339   340   341
H -640.31081723 -52.01853812 -45.76047931     6    338    0    0    0
H -638.82514343 -49.18401052 -45.49034521     6    338    0    0    0
C -638.41641327 -51.53091899 -42.30674037     2    338   342   343   344
H -639.43068482 -51.47530495 -40.48177606     6    341    0    0    0
H -638.31762549 -53.52712547 -42.69617462     6    341    0    0    0
C -635.75379825 -50.48910438 -42.00378781     2    341   345   346   347
H -634.60536787 -51.93639383 -41.06325130     6    344    0    0    0
H -634.76421031 -49.98547219 -43.67032462     6    344    0    0    0
C -635.79506786 -48.29972208 -40.17572812     2    344   348   349   350
H -636.66221340 -46.67481705 -40.96926445     6    347    0    0    0
H -637.36099087 -48.82348679 -38.81540974     6    347    0    0    0
C -633.23628653 -48.00666289 -38.68195402     1    347   351   352   353
H -631.50705858 -47.94415798 -39.68680947     6    350    0    0    0
H -632.95231397 -49.80540496 -37.48433175     6    350    0    0    0
H -633.44859119 -46.58331636 -37.11000549     6    350    0    0    0
H -662.19719541 -58.43206172 -26.87386316     6     355    0    0    0 
C -660.40544507 -57.69038936 -27.57083020     1     354    356    357    358
H -659.32235169 -56.98788824 -25.93078088     6     355    0    0    0
H -659.20823274 -59.14235000 -28.53813839     6     355    0    0    0
C -660.92107712 -55.32660365 -29.17374677     2     355    359    360    361
H -662.46742155 -55.75760368 -30.54563347     6     358    0    0    0
H -661.72978550 -54.11585630 -27.66199411     6     358    0    0    0
C -658.51700592 -54.00313841 -30.24597467     2     358    362   363   364
H -657.28532143 -53.55526213 -28.60455313     6     361    0    0    0
H -657.48093411 -55.40930140 -31.49079836     6     361    0    0    0
C -659.30157731 -51.54147666 -31.44018050     2     361   365   366   367
H -661.10029503 -51.82861367 -32.39055845     6    364    0    0    0
H -659.81760085 -50.03665745 -30.00547399     6    364    0    0    0
C -657.48757240 -50.44485052 -33.64028608     2    364   368   369   370
H -655.67026572 -50.76178799 -32.86535200     6    367    0    0    0
H -657.55698341 -51.59064772 -35.25588069     6    367    0    0    0
C -657.89177229 -47.62830977 -34.41225304     2    367   371   372   373
H -659.79285303 -47.60236229 -35.01795660     6    370    0    0    0
H -657.99908128 -46.40946237 -32.67967795     6    370    0    0    0
C -655.96527557 -46.54874941 -36.25573936     2    370   374   375   376
H -654.15613522 -46.56392180 -35.35858250     6    373    0    0    0
H -655.71859133 -47.71271629 -37.98072559     6    373    0    0    0
C -656.46773727 -43.92518579 -37.06328846     2    373   377   378   379
H -658.51161482 -43.67371549 -37.21607012     6    376    0    0    0
H -655.81326521 -42.55816090 -35.48823960     6    376    0    0    0
C -654.88460803 -43.15320765 -39.48376481     2    376   380   381   382
H -652.82207832 -43.49418303 -39.07618485     6    379    0    0    0
H -655.04625255 -44.61151472 -41.05329633     6    379    0    0    0
C -655.49595077 -40.48521081 -40.45642733     2    379   383   384   385
H -656.82108926 -40.87161316 -42.02480358     6    382    0    0    0
H -656.46317142 -39.41101922 -38.96806908     6    382    0    0    0
C -653.21523588 -39.07005306 -41.53614599     2    382   386   387   388
H -653.72935089 -37.08582883 -42.07242805     6    385    0    0    0
H -651.85774122 -39.14492860 -39.95564507     6    385    0    0    0
C -652.43756825 -40.39292424 -44.04023379     1    385   389   390   391
H -653.68555999 -39.97422754 -45.46606189     6    388    0    0    0
H -652.15299348 -42.50330292 -43.89132514     6    388    0    0    0
H -650.54748430 -39.56570883 -44.47343564     6    388    0    0    0
H -614.24448843 -57.06019723 -31.74266892     6     393    0    0    0 
C -614.55813810 -57.57548424 -29.71639432     1     392    394    395    396
H -613.82761937 -59.56693329 -29.47279508     6     393    0    0    0
H -613.35801785 -56.53360884 -28.51700443     6     393    0    0    0
C -617.39081832 -56.89587983 -28.82053457     2     393    397    398    399
H -617.85510967 -55.00437881 -29.03098558     6     396    0    0    0
H -618.44321196 -58.00824129 -30.18093025     6     396    0    0    0
C -618.14065967 -57.51671563 -25.98126417     2     396    400   401   402
H -616.65614556 -58.51785667 -24.92424610     6     399    0    0    0
H -618.26148681 -55.70889714 -25.08030112     6     399    0    0    0
C -620.45219149 -59.43978589 -25.82484959     2     399   403   404   405
H -622.11288568 -58.63167016 -26.87760318     6    402    0    0    0
H -620.10168739 -61.39635960 -26.43295776     6    402    0    0    0
C -621.16427643 -59.50249203 -22.99605343     2    402   406   407   408
H -619.48226813 -59.91618464 -21.95083140     6    405    0    0    0
H -621.87672068 -57.67017715 -22.24716596     6    405    0    0    0
C -623.31402871 -61.44622104 -22.46179321     2    405   409   410   411
H -624.86662843 -60.63863900 -23.44725416     6    408    0    0    0
H -622.93647347 -63.29416556 -23.32667283     6    408    0    0    0
C -624.02882098 -61.61118286 -19.70348176     2    408   412   413   414
H -622.50451044 -62.31869822 -18.49641775     6    411    0    0    0
H -624.42605683 -59.62900298 -19.07898608     6    411    0    0    0
C -626.22236331 -63.47517098 -19.17384729     2    411   415   416   417
H -628.06921887 -62.89685360 -20.12088796     6    414    0    0    0
H -625.72000939 -65.37602621 -19.64886377     6    414    0    0    0
C -626.97326383 -63.49449675 -16.37680141     2    414   418   419   420
H -625.62792569 -64.41449481 -15.17017866     6    417    0    0    0
H -626.98176662 -61.54848718 -15.52669532     6    417    0    0    0
C -629.44511422 -65.06472385 -16.01491686     2    417   421   422   423
H -630.98444153 -64.10375382 -17.07936416     6    420    0    0    0
H -629.01365143 -66.97808145 -16.81708925     6    420    0    0    0
C -630.37808528 -65.66037444 -13.35756402     2    420   424   425   426
H -631.69529665 -67.30483591 -13.56272491     6    423    0    0    0
H -628.67998801 -66.09562168 -12.34815981     6    423    0    0    0
C -631.56301249 -63.35008520 -11.83142216     1    423   427   428   429
H -632.04137574 -63.61012114 -9.90131610     6    426    0    0    0
H -632.99073580 -62.28469443 -12.69526371     6    426    0    0    0
H -630.07120856 -62.10661709 -11.59444050     6    426    0    0    0
H -639.54523819 -73.66820120 -28.90861534     6     431    0    0    0 
C -640.47425338 -74.09401908 -27.10139785     1     430    432    433    434
H -641.30018502 -72.31161255 -26.49315133     6     431    0    0    0
H -642.02642312 -75.51467650 -27.20897529     6     431    0    0    0
C -638.46872878 -74.80668752 -25.28831605     2     431    435    436    437
H -637.43424162 -73.14462302 -24.81380561     6     434    0    0    0
H -639.41299002 -75.03638254 -23.34882025     6     434    0    0    0
C -637.05558601 -77.22803171 -25.77896054     2     434    438   439   440
H -635.78475118 -77.79808401 -24.14619546     6     437    0    0    0
H -638.40675940 -78.82571149 -25.97935304     6     437    0    0    0
C -635.48980819 -77.23544205 -28.29500090     2     437   441   442   443
H -636.19261180 -78.80178368 -29.36443165     6    440    0    0    0
H -635.78490376 -75.44282155 -29.38163436     6    440    0    0    0
C -632.69955966 -77.65914408 -27.85830559     2    440   444   445   446
H -632.05016223 -76.18901976 -26.57477390     6    443    0    0    0
H -632.14232329 -79.41967796 -26.86992560     6    443    0    0    0
C -631.27448067 -77.73364795 -30.36445653     2    443   447   448   449
H -631.85321148 -79.48789665 -31.40076870     6    446    0    0    0
H -632.13964810 -76.13731336 -31.44236937     6    446    0    0    0
C -628.38520108 -77.31316011 -30.24309074     2    446   450   451   452
H -627.92048691 -75.71094578 -29.12112768     6    449    0    0    0
H -627.55013243 -78.92424635 -29.13692122     6    449    0    0    0
C -627.05297739 -77.13484528 -32.74122738     2    449   453   454   455
H -627.50875143 -78.87674356 -33.89667777     6    452    0    0    0
H -627.90310622 -75.51223932 -33.72289818     6    452    0    0    0
C -624.13278522 -77.45262690 -32.54607223     2    452   456   457   458
H -623.36556797 -76.06652392 -31.32984790     6    455    0    0    0
H -623.73305077 -79.20330548 -31.80535361     6    455    0    0    0
C -622.43110542 -77.22996407 -35.03026377     2    455   459   460   461
H -620.59976486 -77.71539869 -34.32851282     6    458    0    0    0
H -622.85674511 -78.71892522 -36.45852638     6    458    0    0    0
C -622.46254889 -74.59391825 -35.96485416     2    458   462   463   464
H -624.41782506 -74.17990020 -36.64081977     6    461    0    0    0
H -622.09429633 -73.29404149 -34.27095290     6    461    0    0    0
C -620.27239152 -74.09308488 -37.73689110     1    461   465   466   467
H -620.60298238 -75.11219604 -39.46566420     6    464    0    0    0
H -618.60788279 -74.69195337 -36.80047926     6    464    0    0    0
H -620.09487900 -72.08684431 -37.92346203     6    464    0    0    0
H -661.26555244 -46.15879822 -40.32153168     6     469    0    0    0 
C -660.66255170 -47.44180665 -41.77312267     1     468    470    471    472
H -661.96360466 -47.32897058 -43.33809402     6     469    0    0    0
H -658.93009712 -46.69955258 -42.63212112     6     469    0    0    0
C -660.33831786 -50.22389328 -40.81093946     2     469    473    474    475
H -660.32037891 -51.22702367 -42.60816238     6     472    0    0    0
H -658.47562583 -50.57581049 -40.05019203     6     472    0    0    0
C -662.25126487 -51.34506740 -38.91483140     2     472    476   477   478
H -662.32801614 -49.88758484 -37.44593664     6     475    0    0    0
H -664.00490780 -51.27337656 -39.96359913     6     475    0    0    0
C -661.63580925 -54.07186801 -38.03670428     2     475   479   480   481
H -661.34386341 -55.13730676 -39.78755949     6    478    0    0    0
H -659.85189199 -54.18151372 -37.08499613     6    478    0    0    0
C -663.77478795 -55.03331146 -36.34811901     2    478   482   483   484
H -663.69445578 -54.09618637 -34.61230605     6    481    0    0    0
H -665.48775970 -54.68261658 -37.22559249     6    481    0    0    0
C -663.85088766 -57.85724751 -35.71140036     2    481   485   486   487
H -662.92944240 -59.03502489 -37.21232461     6    484    0    0    0
H -662.62713070 -58.06002481 -34.06876233     6    484    0    0    0
C -666.40871616 -58.85492067 -34.82560854     2    484   488   489   490
H -667.07980619 -57.74071285 -33.31566432     6    487    0    0    0
H -667.82594897 -58.63545136 -36.29380858     6    487    0    0    0
C -666.17630797 -61.53775697 -33.75641871     2    487   491   492   493
H -665.76268667 -62.67588938 -35.48577635     6    490    0    0    0
H -664.62384428 -61.77747358 -32.36622762     6    490    0    0    0
C -668.66720056 -62.46205052 -32.55461107     2    490   494   495   496
H -669.25467004 -61.09160286 -31.24417700     6    493    0    0    0
H -669.97874781 -62.26147840 -34.21577359     6    493    0    0    0
C -668.66440197 -65.06761720 -31.50436147     2    493   497   498   499
H -668.31512212 -66.33552941 -33.08755065     6    496    0    0    0
H -667.33742553 -65.41955151 -30.15046630     6    496    0    0    0
C -671.14160637 -65.64934839 -30.13331940     2    496   500   501   502
H -671.14578428 -64.54839750 -28.36720947     6    499    0    0    0
H -672.72014557 -64.82684081 -31.12409209     6    499    0    0    0
C -671.37692440 -68.37418883 -29.67804950     1    499   503   504   505
H -669.78520261 -68.96066354 -28.43301560     6    502    0    0    0
H -671.34818234 -69.25022636 -31.54867253     6    502    0    0    0
H -673.05744695 -68.85491866 -28.52670712     6    502    0    0    0
H -643.13062546 -84.30593942 -2.47676740     6     507    0    0    0 
C -641.57437449 -84.12764868 -3.84904148     1     506    508    509    510
H -639.83841133 -84.64087182 -2.96903186     6     507    0    0    0
H -642.12542242 -85.39247073 -5.33038861     6     507    0    0    0
C -641.35705469 -81.43884409 -4.84679868     2     507    511    512    513
H -643.12073393 -80.88979549 -5.52298041     6     510    0    0    0
H -641.00258601 -79.97211928 -3.50213127     6     510    0    0    0
C -639.44752147 -81.50683884 -7.01711027     2     510    514   515   516
H -637.62796080 -81.60215815 -6.24392063     6     513    0    0    0
H -639.72507068 -83.04356461 -8.30117629     6     513    0    0    0
C -639.61640847 -79.08426675 -8.50059512     2     513   517   518   519
H -641.49482330 -78.99899117 -9.22710592     6    516    0    0    0
H -639.31800387 -77.51371621 -7.21485479     6    516    0    0    0
C -637.63001215 -78.96269691 -10.63141514     2    516   520   521   522
H -635.65471694 -79.35825906 -9.92305622     6    519    0    0    0
H -637.87648297 -80.53037269 -11.88796241     6    519    0    0    0
C -637.73717988 -76.78497769 -12.27630817     2    519   523   524   525
H -639.75020615 -76.58674310 -12.93005825     6    522    0    0    0
H -637.59146148 -74.91365446 -11.33378212     6    522    0    0    0
C -636.14113966 -76.76439645 -14.67878662     2    522   526   527   528
H -634.28086926 -77.45914463 -14.31405849     6    525    0    0    0
H -636.98907942 -78.18809620 -15.93336128     6    525    0    0    0
C -635.84973465 -74.12558150 -15.81970244     2    525   529   530   531
H -637.81413988 -73.20936113 -15.86667631     6    528    0    0    0
H -634.88798524 -72.72636346 -14.60672511     6    528    0    0    0
C -635.11189678 -74.24298391 -18.70420954     2    528   532   533   534
H -633.84477552 -75.85651439 -19.17059015     6    531    0    0    0
H -636.74879503 -74.46463972 -20.01669383     6    531    0    0    0
C -633.68826172 -71.73143400 -19.45172091     2    531   535   536   537
H -635.13328629 -70.19775353 -19.13642506     6    534    0    0    0
H -632.24214937 -71.43498748 -18.12339709     6    534    0    0    0
C -632.46267216 -71.68564403 -22.24342295     2    534   538   539   540
H -631.35842724 -73.38809705 -22.70721419     6    537    0    0    0
H -634.00798574 -71.46260948 -23.60770068     6    537    0    0    0
C -630.82793062 -69.24032264 -22.52202968     1    537   541   542   543
H -629.98668099 -68.93148495 -24.33483131     6    540    0    0    0
H -629.17246782 -69.46621733 -21.28979354     6    540    0    0    0
H -631.78767932 -67.51738327 -21.90250056     6    540    0    0    0
H -626.66677709 -59.27997000 -34.25137133     6     545    0    0    0 
C -625.49809381 -57.59534459 -34.68090866     1     544    546    547    548
H -623.61466875 -58.16020224 -34.22637627     6     545    0    0    0
H -625.48164891 -57.02048626 -36.65521174     6     545    0    0    0
C -626.73963313 -55.36422009 -33.28103152     2     545    549    550    551
H -628.63483537 -54.98818884 -34.19415913     6     548    0    0    0
H -627.01996787 -55.88047601 -31.24705207     6     548    0    0    0
C -625.14211313 -52.91199403 -33.68192839     2     548    552   553   554
H -623.53566703 -52.67841489 -32.33152272     6     551    0    0    0
H -624.31034812 -52.86924211 -35.55467521     6     551    0    0    0
C -626.68531454 -50.52195233 -33.38458232     2     551   555   556   557
H -628.11154268 -50.37315438 -35.05181049     6    554    0    0    0
H -627.99264840 -50.68267569 -31.87083311     6    554    0    0    0
C -625.00377389 -48.10379904 -33.13423332     2    554   558   559   560
H -624.37565249 -48.00602469 -31.20934076     6    557    0    0    0
H -623.49784838 -48.11151873 -34.55247596     6    557    0    0    0
C -626.73086488 -45.66684719 -33.60735369     2    557   561   562   563
H -627.71650931 -45.78419816 -35.33169831     6    560    0    0    0
H -628.03756988 -45.50475542 -32.04875254     6    560    0    0    0
C -625.25458815 -43.22048201 -33.63604153     2    560   564   565   566
H -624.66732864 -42.76448636 -31.68462719     6    563    0    0    0
H -623.40979163 -43.86214513 -34.40434146     6    563    0    0    0
C -626.40094350 -40.97981520 -35.06141184     2    563   567   568   569
H -626.41080336 -41.70763967 -36.97819649     6    566    0    0    0
H -628.36635872 -40.70143538 -34.33212437     6    566    0    0    0
C -624.78716974 -38.55622989 -34.75275150     2    566   570   571   572
H -624.84491184 -38.02572672 -32.71695641     6    569    0    0    0
H -622.87044097 -39.08959052 -35.21197955     6    569    0    0    0
C -625.78738255 -36.53146290 -36.51918392     2    569   573   574   575
H -625.58896491 -37.27172585 -38.45786177     6    572    0    0    0
H -627.87707587 -36.62342936 -36.23595689     6    572    0    0    0
C -624.78894349 -33.84832881 -36.06592991     2    572   576   577   578
H -622.75492192 -33.87148470 -35.85170577     6    575    0    0    0
H -625.30613140 -32.58434399 -37.65302073     6    575    0    0    0
C -626.19880864 -32.87349120 -33.70025697     1    575   579   580   581
H -628.11276093 -32.24744583 -34.04356502     6    578    0    0    0
H -625.44109227 -31.15889765 -32.83250648     6    578    0    0    0
H -626.09410892 -34.15935095 -32.04424508     6    578    0    0    0
H -661.83619019 -42.86493628 -28.42382400     6     583    0    0    0 
C -661.49045587 -40.95481419 -28.99907294     1     582    584    585    586
H -663.08142833 -40.21411672 -30.11987747     6     583    0    0    0
H -661.37321386 -39.62255305 -27.52024572     6     583    0    0    0
C -659.14764587 -40.84168812 -30.83116325     2     583    587    588    589
H -657.74632182 -42.10890240 -30.14349712     6     586    0    0    0
H -659.80011437 -41.58224646 -32.63423251     6     586    0    0    0
C -658.38850579 -38.01271164 -31.11022882     2     586    590   591   592
H -659.95207455 -36.70142649 -31.59184815     6     589    0    0    0
H -657.92064909 -37.18354467 -29.26830339     6     589    0    0    0
C -656.41283845 -37.83379986 -33.09674998     2     589   593   594   595
H -654.78130287 -39.00621040 -32.81183355     6    592    0    0    0
H -657.59076912 -38.25377237 -34.85770881     6    592    0    0    0
C -655.39739548 -34.98779381 -33.56777517     2    592   596   597   598
H -656.99641321 -33.82496484 -33.63095585     6    595    0    0    0
H -654.35651241 -34.74884139 -31.74226244     6    595    0    0    0
C -653.60916135 -34.89068161 -35.87039140     2    595   599   600   601
H -651.95641276 -35.93220617 -35.28605417     6    598    0    0    0
H -654.32447433 -35.99615641 -37.49315181     6    598    0    0    0
C -652.87727143 -32.11513314 -36.52145884     2    598   602   603   604
H -654.60528943 -31.04123433 -36.57876534     6    601    0    0    0
H -651.84474703 -31.38097268 -34.97878416     6    601    0    0    0
C -651.54412954 -31.96442056 -39.05799605     2    601   605   606   607
H -650.52697987 -33.68296634 -39.31980554     6    604    0    0    0
H -653.03526910 -32.01397328 -40.45648131     6    604    0    0    0
C -649.41922864 -30.06584778 -39.27317469     2    604   608   609   610
H -649.86355783 -28.12197892 -39.49769106     6    607    0    0    0
H -648.20156151 -29.98253714 -37.63282785     6    607    0    0    0
C -647.77234253 -30.34129606 -41.66156128     2    607   611   612   613
H -646.99812959 -32.26647447 -42.06207810     6    610    0    0    0
H -649.14488623 -30.03003257 -43.19359527     6    610    0    0    0
C -645.49385710 -28.47454282 -41.77497774     2    610   614   615   616
H -646.16535424 -26.49077816 -41.94714934     6    613    0    0    0
H -644.44734999 -28.53389893 -39.95894981     6    613    0    0    0
C -643.79736069 -29.30274582 -43.97834057     1    613   617   618   619
H -642.43697065 -27.87942397 -44.50143070     6    616    0    0    0
H -644.97633234 -29.81262920 -45.63566574     6    616    0    0    0
H -642.92338061 -31.05601551 -43.20359345     6    616    0    0    0
H -636.43146013 -47.83951410 -10.52211981     6     621    0    0    0 
C -634.78653702 -46.82827710 -11.34636041     1     620    622    623    624
H -633.30397400 -46.95077697 -10.04116641     6     621    0    0    0
H -634.00104962 -47.64304112 -13.19751797     6     621    0    0    0
C -635.38893203 -44.15090685 -11.87862153     2     621    625    626    627
H -633.72554878 -43.27713475 -12.75727957     6     624    0    0    0
H -636.98233135 -44.06390055 -13.17154800     6     624    0    0    0
C -636.22883360 -42.78051055 -9.42222481     2     624    628   629   630
H -637.81256147 -44.04273612 -8.74309429     6     627    0    0    0
H -634.80553144 -42.80269232 -7.95101505     6     627    0    0    0
C -637.48190925 -40.23321165 -9.42988079     2     627   631   632   633
H -636.15583878 -39.08862160 -10.32567062     6    630    0    0    0
H -639.18572395 -40.38391599 -10.62465067     6    630    0    0    0
C -638.08775834 -39.33063837 -6.71202570     2    630   634   635   636
H -639.71650182 -40.42801610 -6.10508107     6    633    0    0    0
H -636.28512486 -39.16687289 -5.58855338     6    633    0    0    0
C -639.09461013 -36.53848579 -6.65059154     2    633   637   638   639
H -638.00694608 -35.25595439 -7.80500986     6    636    0    0    0
H -640.94100801 -36.68838378 -7.68574996     6    636    0    0    0
C -639.36608911 -35.60021564 -3.92520054     2    636   640   641   642
H -641.09175090 -36.58630775 -3.06595203     6    639    0    0    0
H -637.70412198 -36.03514234 -2.85509721     6    639    0    0    0
C -640.46983231 -32.78120146 -3.62688683     2    639   643   644   645
H -639.06063749 -31.38366043 -4.20802995     6    642    0    0    0
H -642.29465919 -32.61366671 -4.53409663     6    642    0    0    0
C -640.79249813 -32.24491623 -0.73957926     2    642   646   647   648
H -642.03468769 -33.64224551 0.05932834     6    645    0    0    0
H -638.97343224 -32.09224523 0.35002229     6    645    0    0    0
C -642.12606415 -29.76538795 -0.26777794     2    645   649   650   651
H -640.81293179 -28.44379258 -1.16801326     6    648    0    0    0
H -643.89816695 -29.36173257 -1.07284385     6    648    0    0    0
C -642.45102341 -29.03290230 2.65705108     2    648   652   653   654
H -644.05900777 -29.97266829 3.58783731     6    651    0    0    0
H -641.07962858 -29.88635741 3.86174886     6    651    0    0    0
C -642.44711642 -26.25688258 3.11837368     1    651   655   656   657
H -643.82971417 -25.47417588 1.87644930     6    654    0    0    0
H -640.44412046 -25.76571230 2.77101069     6    654    0    0    0
H -642.76591578 -25.92149047 5.14859217     6    654    0    0    0
H -654.46079935 -43.96158527 -25.85563421     6     659    0    0    0 
C -655.41351023 -42.49788403 -24.62808246     1     658    660    661    662
H -656.15136389 -41.08973209 -25.93003515     6     659    0    0    0
H -657.14189509 -43.33492788 -23.80956023     6     659    0    0    0
C -653.57201946 -41.25869456 -22.82716203     2     659    663    664    665
H -654.62216280 -39.79665453 -21.84808265     6     662    0    0    0
H -652.97784967 -42.79096018 -21.47099711     6     662    0    0    0
C -651.07369001 -40.35407046 -24.15037949     2     662    666   667   668
H -650.26053215 -39.07627132 -22.96601704     6     665    0    0    0
H -649.66307401 -41.86456278 -24.31863860     6     665    0    0    0
C -651.48648697 -39.01364187 -26.67448588     2     665   669   670   671
H -652.49661832 -40.25936373 -28.22739317     6    668    0    0    0
H -652.57477773 -37.43879844 -26.43860116     6    668    0    0    0
C -648.96585137 -38.01638941 -27.59040101     2    668   672   673   674
H -648.11756896 -36.79651722 -26.01524838     6    671    0    0    0
H -647.77679909 -39.66330252 -28.14073949     6    671    0    0    0
C -649.38266118 -36.33467988 -30.07221278     2    671   675   676   677
H -650.62071612 -37.20946939 -31.57148202     6    674    0    0    0
H -650.57886648 -34.76709586 -29.62850370     6    674    0    0    0
C -647.05255596 -35.31667856 -31.47675462     2    674   678   679   680
H -647.79373081 -33.85854533 -32.74330392     6    677    0    0    0
H -645.87854649 -34.29612197 -30.16291916     6    677    0    0    0
C -645.41395546 -36.98213616 -33.01532309     2    677   681   682   683
H -645.20419640 -38.86543822 -32.07565190     6    680    0    0    0
H -646.37200193 -37.19956701 -34.77095109     6    680    0    0    0
C -642.72500311 -35.84664487 -33.51516035     2    680   684   685   686
H -642.00676031 -34.81499554 -31.88382460     6    683    0    0    0
H -641.29251676 -37.18113699 -33.58513275     6    683    0    0    0
C -642.66083703 -34.28885420 -35.85896380     2    683   687   688   689
H -643.05017918 -35.48875448 -37.42857725     6    686    0    0    0
H -644.07179557 -32.96487593 -35.64851182     6    686    0    0    0
C -640.06641494 -33.13234553 -36.26024582     2    686   690   691   692
H -639.76918273 -31.74366658 -34.91473167     6    689    0    0    0
H -638.68061545 -34.65388689 -36.12498316     6    689    0    0    0
C -639.91669667 -31.92535647 -38.79154446     1    689   693   694   695
H -638.14555146 -31.38096263 -39.60749357     6    692    0    0    0
H -640.93259063 -30.16146650 -38.89371810     6    692    0    0    0
H -640.72737927 -33.15329518 -40.31536072     6    692    0    0    0
H -620.53876073 -37.17743134 -30.97118374     6     697    0    0    0 
C -619.24631076 -35.62846217 -31.09774868     1     696    698    699    700
H -619.49898934 -34.93324441 -33.11335995     6     697    0    0    0
H -619.96127630 -34.22580437 -29.68710558     6     697    0    0    0
C -616.54237329 -36.66434926 -30.44316698     2     697    701    702    703
H -615.23992448 -35.00129905 -29.87824096     6     700    0    0    0
H -616.62488985 -37.68324233 -28.64969767     6     700    0    0    0
C -615.48314420 -38.39571281 -32.50513914     2     700    704   705   706
H -615.42646178 -37.37038806 -34.36780582     6     703    0    0    0
H -613.82922051 -39.19789387 -31.53660394     6     703    0    0    0
C -617.36061429 -40.70177657 -32.81480203     2     703   707   708   709
H -618.67314799 -40.90018161 -31.22082736     6    706    0    0    0
H -618.71492949 -40.06839817 -34.02088999     6    706    0    0    0
C -616.35565364 -43.24605137 -33.76786556     2    706   710   711   712
H -615.21475499 -43.01806532 -35.43863969     6    709    0    0    0
H -614.89366247 -43.76767410 -32.36072947     6    709    0    0    0
C -618.16897077 -45.46358893 -34.02396288     2    709   713   714   715
H -619.59099118 -45.58121245 -32.45300027     6    712    0    0    0
H -619.44023399 -45.05258678 -35.74936370     6    712    0    0    0
C -616.74341798 -48.05363872 -34.65845579     2    712   716   717   718
H -615.49562603 -47.74733365 -36.44556109     6    715    0    0    0
H -615.44752334 -48.65539045 -33.06934424     6    715    0    0    0
C -618.58137454 -50.48171761 -34.72149744     2    715   719   720   721
H -619.54462974 -50.67166483 -33.01011527     6    718    0    0    0
H -619.98489208 -50.27637378 -36.19467637     6    718    0    0    0
C -617.24707336 -53.02382646 -35.40781182     2    718   722   723   724
H -616.65127672 -52.93164547 -37.24177621     6    721    0    0    0
H -615.57755648 -53.57795300 -34.27338174     6    721    0    0    0
C -618.90819288 -55.38153573 -35.28791890     2    721   725   726   727
H -619.75339092 -55.59203297 -33.45796307     6    724    0    0    0
H -620.55050962 -54.99483344 -36.47510463     6    724    0    0    0
C -617.37331096 -57.80199221 -36.07179635     2    724   728   729   730
H -615.51520863 -57.97691572 -35.42426840     6    727    0    0    0
H -618.23163193 -59.38987932 -35.11304769     6    727    0    0    0
C -617.58580604 -58.07709290 -38.97741510     1    727   731   732   733
H -616.80418493 -59.99007216 -39.45670073     6    730    0    0    0
H -616.55675362 -56.54239290 -39.90972448     6    730    0    0    0
H -619.48603151 -57.73726158 -39.57766765     6    730    0    0    0
H -651.36247469 -61.54362213 -45.50861584     6     735    0    0    0 
C -653.36371210 -61.12985165 -46.03156754     1     734    736    737    738
H -653.14018626 -60.35167578 -47.82199103     6     735    0    0    0
H -654.40954597 -62.82059390 -46.11561001     6     735    0    0    0
C -654.61354928 -59.15103374 -44.22200920     2     735    739    740    741
H -653.39688286 -57.30547281 -44.09063361     6     738    0    0    0
H -656.39762030 -58.53448036 -44.87970517     6     738    0    0    0
C -655.05097736 -60.08693354 -41.54614063     2     738    742   743   744
H -656.03868960 -61.87999056 -41.61937583     6     741    0    0    0
H -653.20453586 -60.63839944 -40.83493039     6     741    0    0    0
C -656.34321495 -58.21458458 -39.73346502     2     741   745   746   747
H -655.41609106 -56.38684978 -40.07291783     6    744    0    0    0
H -658.25824338 -58.00387951 -40.42696886     6    744    0    0    0
C -655.93194977 -59.28911233 -37.09264345     2    744   748   749   750
H -653.85216640 -59.52598474 -36.62245049     6    747    0    0    0
H -656.78049887 -57.66906109 -36.14498826     6    747    0    0    0
C -657.61061430 -61.45409951 -36.24747562     2    747   751   752   753
H -659.56138176 -61.21805352 -36.94264235     6    750    0    0    0
H -656.98568721 -63.15814868 -37.11983419     6    750    0    0    0
C -657.74412679 -61.61596842 -33.32576821     2    750   754   755   756
H -655.81629521 -61.40166868 -32.52044798     6    753    0    0    0
H -658.86296445 -59.96563390 -32.53704868     6    753    0    0    0
C -659.06836085 -63.98412546 -32.46129485     2    753   757   758   759
H -660.63783132 -64.47062496 -33.67090397     6    756    0    0    0
H -657.67496996 -65.52316359 -32.73859299     6    756    0    0    0
C -660.10755352 -63.89227267 -29.64652696     2    756   760   761   762
H -658.67745669 -62.92188376 -28.53561823     6    759    0    0    0
H -661.60468313 -62.53120901 -29.46333728     6    759    0    0    0
C -660.79525159 -66.28565555 -28.38677061     2    759   763   764   765
H -662.05386620 -67.37952867 -29.68633017     6    762    0    0    0
H -658.96892468 -67.36758694 -28.18947948     6    762    0    0    0
C -661.74265101 -65.86785165 -25.54691104     2    762   766   767   768
H -660.28668866 -64.98814953 -24.54418451     6    765    0    0    0
H -663.22005050 -64.48524614 -25.68371278     6    765    0    0    0
C -662.43283965 -68.36238306 -24.28221483     1    765   769   770   771
H -663.98805429 -69.21371094 -25.35631498     6    768    0    0    0
H -663.00225384 -67.99732336 -22.38540843     6    768    0    0    0
H -660.95344074 -69.68991420 -24.22194564     6    768    0    0    0
H -640.64879612 -43.61321184 -2.39661637     6     773    0    0    0 
C -639.47848331 -43.28951137 -0.76760757     1     772    774    775    776
H -638.29273301 -41.56868658 -0.99918769     6     773    0    0    0
H -640.74276522 -42.70885893 0.83369130     6     773    0    0    0
C -637.99834535 -45.65383880 -0.33346687     2     773    777    778    779
H -636.62839606 -45.37331987 1.22976561     6     776    0    0    0
H -639.18945485 -47.01380435 0.66483590     6     776    0    0    0
C -636.78479243 -46.70845777 -2.75687024     2     776    780   781   782
H -638.27321537 -47.63318872 -3.80818183     6     779    0    0    0
H -635.78774435 -45.36084697 -3.98088089     6     779    0    0    0
C -634.87057095 -48.90354282 -2.28620105     2     779   783   784   785
H -633.22195775 -48.23567282 -1.15030998     6    782    0    0    0
H -635.54233986 -50.49610330 -1.16228454     6    782    0    0    0
C -633.64579103 -49.94314642 -4.85431389     2    782   786   787   788
H -635.04828681 -50.01943180 -6.41305613     6    785    0    0    0
H -632.49158280 -48.37265925 -5.58866255     6    785    0    0    0
C -632.12580598 -52.36457383 -4.71870563     2    785   789   790   791
H -630.96726677 -52.19865239 -2.97934662     6    788    0    0    0
H -633.43533405 -53.91893866 -4.38830012     6    788    0    0    0
C -630.55691067 -53.16101802 -6.93643572     2    788   792   793   794
H -631.59409355 -53.07858347 -8.77216481     6    791    0    0    0
H -629.11350649 -51.66048836 -6.85063713     6    791    0    0    0
C -629.50172525 -55.76212408 -6.42745721     2    791   795   796   797
H -628.90018846 -55.97891505 -4.44401136     6    794    0    0    0
H -631.07004138 -57.24004545 -6.61427174     6    794    0    0    0
C -627.34899327 -56.74121662 -7.99645203     2    794   798   799   800
H -628.11095720 -56.83205321 -9.95497251     6    797    0    0    0
H -625.56540162 -55.69493680 -7.77797674     6    797    0    0    0
C -626.73405125 -59.44955442 -7.27074323     2    797   801   802   803
H -626.15947800 -59.15597235 -5.23694907     6    800    0    0    0
H -628.40402878 -60.57071589 -7.44221446     6    800    0    0    0
C -624.54133232 -60.75349689 -8.65531816     2    800   804   805   806
H -624.95072896 -60.83400036 -10.54341605     6    803    0    0    0
H -622.88722640 -59.57497732 -8.14695788     6    803    0    0    0
C -624.23428610 -63.41109120 -7.61541025     1    803   807   808   809
H -622.72193763 -64.56297113 -8.47445888     6    806    0    0    0
H -625.97736412 -64.53518408 -7.77590420     6    806    0    0    0
H -624.04580466 -63.37171473 -5.61009816     6    806    0    0    0
H -656.37212680 -49.32625940 -26.61250815     6     811    0    0    0 
C -657.90844589 -48.77159106 -25.32105313     1     810    812    813    814
H -658.54116357 -46.91157137 -25.86242215     6     811    0    0    0
H -659.58805654 -49.85925071 -25.80334099     6     811    0    0    0
C -657.31112695 -49.06462020 -22.45495625     2     811    815    816    817
H -655.68950795 -47.88095729 -21.96659552     6     814    0    0    0
H -658.85896133 -48.39045710 -21.40623744     6     814    0    0    0
C -656.90162928 -51.80764989 -21.69472806     2     814    818   819   820
H -658.40816165 -52.91248451 -22.43055156     6     817    0    0    0
H -655.27812970 -52.43205136 -22.69002628     6     817    0    0    0
C -656.52053826 -52.42837932 -18.85730081     2     817   821   822   823
H -654.72284922 -51.69277762 -18.07512466     6    820    0    0    0
H -658.03155882 -51.26705925 -17.92294747     6    820    0    0    0
C -657.10017734 -55.00296911 -17.85729860     2    820   824   825   826
H -658.97019499 -55.71660149 -18.54462153     6    823    0    0    0
H -655.93066519 -56.31007684 -18.91787351     6    823    0    0    0
C -656.77765734 -55.18433250 -14.88071726     2    823   827   828   829
H -654.82601330 -54.68678359 -14.16401612     6    826    0    0    0
H -657.98194819 -53.98388702 -13.88427800     6    826    0    0    0
C -657.35916768 -57.85114257 -13.73413367     2    826   830   831   832
H -659.30466817 -58.49286164 -14.23992461     6    829    0    0    0
H -656.44827538 -59.44126659 -14.66595504     6    829    0    0    0
C -656.77892602 -58.02558663 -11.03756302     2    829   833   834   835
H -654.71664043 -57.94426896 -10.75083490     6    832    0    0    0
H -657.58888040 -56.35255020 -10.26766242     6    832    0    0    0
C -657.81479613 -60.51753301 -9.75700824     2    832   836   837   838
H -659.99811044 -60.38634646 -9.67479893     6    835    0    0    0
H -657.17694147 -62.14357144 -10.82973598     6    835    0    0    0
C -656.97584140 -60.59360870 -6.91362057     2    835   839   840   841
H -655.18810312 -59.74260201 -6.51132078     6    838    0    0    0
H -658.44512093 -59.42527736 -5.81311178     6    838    0    0    0
C -657.03394194 -63.32723965 -5.92491329     2    838   842   843   844
H -658.49748333 -64.26912271 -6.90979089     6    841    0    0    0
H -655.18352070 -64.11162973 -6.39536248     6    841    0    0    0
C -657.94780918 -63.20765099 -3.04372044     1    841   845   846   847
H -656.63872985 -62.06428308 -2.07202529     6    844    0    0    0
H -657.66421712 -65.12316236 -2.25353131     6    844    0    0    0
H -659.92964053 -62.48324198 -2.62138063     6    844    0    0    0
H -639.44501121 -18.10219470 -47.11893572     6     849    0    0    0 
C -638.02241412 -18.38406906 -45.67900410     1     848    850    851    852
H -636.36187384 -18.53052818 -46.85630356     6     849    0    0    0
H -637.77292543 -16.65666207 -44.59183120     6     849    0    0    0
C -638.35929744 -20.90667190 -44.13249508     2     849    853    854    855
H -639.02103743 -22.55110173 -45.55826949     6     852    0    0    0
H -636.49206478 -21.43427120 -43.57646129     6     852    0    0    0
C -640.20085502 -20.79786007 -41.85043963     2     852    856   857   858
H -639.64093841 -19.03489466 -40.93396364     6     855    0    0    0
H -642.17814600 -20.50767743 -42.60749075     6     855    0    0    0
C -640.06512826 -22.99541460 -39.92009321     2     855   859   860   861
H -640.28471260 -24.89404819 -40.67993832     6    858    0    0    0
H -638.25212326 -22.90244532 -38.89403345     6    858    0    0    0
C -642.43095039 -23.02664603 -38.12233344     2    858   862   863   864
H -642.33360006 -21.25578995 -37.17674743     6    861    0    0    0
H -644.26871252 -23.25010883 -39.11801543     6    861    0    0    0
C -642.24777327 -24.96291650 -35.95853634     2    861   865   866   867
H -641.94757995 -26.87535036 -36.54051478     6    864    0    0    0
H -640.72217722 -24.47501999 -34.80262590     6    864    0    0    0
C -644.48381225 -24.65935071 -34.12181792     2    864   868   869   870
H -644.62286527 -22.82510759 -33.23224137     6    867    0    0    0
H -646.12469289 -24.83870990 -35.12738291     6    867    0    0    0
C -644.26871877 -26.67262957 -32.15079106     2    867   871   872   873
H -644.03231248 -28.53261910 -32.88414781     6    870    0    0    0
H -642.53022009 -26.34466059 -31.07027398     6    870    0    0    0
C -646.40952668 -26.73849133 -30.13664665     2    870   874   875   876
H -646.03624397 -27.75846134 -28.34732322     6    873    0    0    0
H -646.57674990 -24.72841687 -29.52523327     6    873    0    0    0
C -648.91188605 -27.73484824 -31.10227966     2    873   877   878   879
H -649.36671480 -26.96530534 -32.87619267     6    876    0    0    0
H -648.84412606 -29.73723785 -31.36851655     6    876    0    0    0
C -651.18217190 -27.10821196 -29.49239336     2    876   880   881   882
H -650.82201149 -27.63726398 -27.51176475     6    879    0    0    0
H -651.58379705 -25.06157133 -29.40078432     6    879    0    0    0
C -653.32613274 -28.77901164 -30.26926120     1    879   883   884   885
H -652.81878236 -30.76381842 -30.67829372     6    882    0    0    0
H -654.29328061 -27.97799649 -31.95177209     6    882    0    0    0
H -654.99102809 -28.66944637 -28.91933249     6    882    0    0    0
H -650.82423770 -53.10742301 -14.85374230     6     887    0    0    0 
C -650.54768340 -50.97281769 -14.55841453     1     886    888    889    890
H -652.49498351 -50.24074198 -14.76462958     6     887    0    0    0
H -649.90638744 -50.82280367 -12.56436374     6     887    0    0    0
C -648.90040580 -49.65162369 -16.49847032     2     887    891    892    893
H -648.45940633 -47.79027912 -15.91955089     6     890    0    0    0
H -647.21116103 -50.67529108 -16.56585613     6     890    0    0    0
C -650.08113371 -49.54700135 -18.99347179     2     890    894   895   896
H -650.50235370 -51.35841085 -19.72037658     6     893    0    0    0
H -651.76242375 -48.41094293 -18.88591193     6     893    0    0    0
C -648.25182982 -48.31089467 -20.89968886     2     893   897   898   899
H -647.89619622 -46.32699700 -20.34106820     6    896    0    0    0
H -646.46015825 -49.36316607 -20.77345583     6    896    0    0    0
C -649.03295368 -48.65466994 -23.68467923     2    896   900   901   902
H -649.43340003 -50.66068747 -23.72839696     6    899    0    0    0
H -650.74026653 -47.53934857 -23.91267199     6    899    0    0    0
C -647.03911190 -47.71879785 -25.54721534     2    899   903   904   905
H -646.39241521 -45.79475857 -24.71010822     6    902    0    0    0
H -645.39977081 -48.98421652 -25.57059977     6    902    0    0    0
C -648.11184263 -47.21333457 -28.33464722     2    902   906   907   908
H -649.10874673 -48.77070640 -29.15145119     6    905    0    0    0
H -649.31045819 -45.46456011 -28.36329851     6    905    0    0    0
C -645.86499281 -46.17750043 -30.02609055     2    905   909   910   911
H -644.45394202 -44.94433474 -28.85911731     6    908    0    0    0
H -644.51654584 -47.89660762 -30.39923048     6    908    0    0    0
C -646.69396893 -44.93392789 -32.64765873     2    908   912   913   914
H -648.17528932 -46.15408850 -33.42191157     6    911    0    0    0
H -647.96260651 -43.22847204 -32.49350393     6    911    0    0    0
C -644.55762532 -44.36791690 -34.50120106     2    911   915   916   917
H -643.14924801 -43.07579396 -33.69111755     6    914    0    0    0
H -643.60892886 -46.08115045 -35.13225436     6    914    0    0    0
C -645.40411299 -43.12477061 -36.98014842     2    914   918   919   920
H -646.09404234 -44.62349487 -38.22439368     6    917    0    0    0
H -647.20781084 -42.01360075 -36.83495383     6    917    0    0    0
C -643.11446727 -42.21027684 -38.32676167     1    917   921   922   923
H -642.07137484 -43.76415509 -39.06876539     6    920    0    0    0
H -642.04745863 -40.75134500 -37.50285757     6    920    0    0    0
H -643.67533429 -41.16647727 -39.92057285     6    920    0    0    0
H -644.09413825 -27.17759568 -19.59143301     6     925    0    0    0 
C -644.86934840 -27.97557140 -17.79640947     1     924    926    927    928
H -643.21945502 -28.19520443 -16.49182429     6     925    0    0    0
H -646.02395417 -26.47692533 -16.98263539     6     925    0    0    0
C -646.65451662 -30.30004981 -18.14139712     2     925    929    930    931
H -645.35666521 -31.89931482 -18.51897876     6     928    0    0    0
H -647.61967610 -30.55543778 -16.24744652     6     928    0    0    0
C -648.50829887 -30.00145233 -20.51578537     2     928    932   933   934
H -649.21615835 -28.10028193 -20.50274285     6     931    0    0    0
H -647.49690130 -30.31454004 -22.33002485     6     931    0    0    0
C -650.81361437 -31.70867582 -20.57050913     2     931   935   936   937
H -649.97260690 -33.50326727 -20.88271205     6    934    0    0    0
H -651.79912664 -31.54532318 -18.73784334     6    934    0    0    0
C -652.92193109 -31.49368348 -22.54407410     2    934   938   939   940
H -653.97739525 -29.78090422 -22.55047682     6    937    0    0    0
H -651.91156852 -31.87013540 -24.33645917     6    937    0    0    0
C -654.76156006 -33.70043900 -22.33949853     2    937   941   942   943
H -653.76269616 -35.42173529 -22.77839620     6    940    0    0    0
H -655.59687415 -33.59737002 -20.41525342     6    940    0    0    0
C -656.69596792 -33.46296038 -24.41444189     2    940   944   945   946
H -655.84418174 -33.23815589 -26.24035482     6    943    0    0    0
H -657.74036143 -35.15133681 -24.60012626     6    943    0    0    0
C -658.73322702 -31.22748071 -24.05877494     2    943   947   948   949
H -659.86858153 -31.44312088 -22.28592357     6    946    0    0    0
H -658.01363958 -29.28226068 -23.87364918     6    946    0    0    0
C -660.68790795 -31.31533422 -26.22327128     2    946   950   951   952
H -659.73259968 -31.79756119 -27.94608161     6    949    0    0    0
H -661.82893991 -33.00588942 -25.77643680     6    949    0    0    0
C -662.17760322 -28.94424431 -26.76078152     2    949   953   954   955
H -663.55988617 -28.54407766 -25.33667660     6    952    0    0    0
H -660.81208873 -27.44086668 -26.29282095     6    952    0    0    0
C -663.60291276 -28.91850902 -29.33505979     2    952   956   957   958
H -662.44320253 -29.59466979 -30.91208704     6    955    0    0    0
H -664.92038586 -30.52584230 -29.23757200     6    955    0    0    0
C -664.96265176 -26.40658911 -29.79046749     1    955   959   960   961
H -665.81701503 -26.27793633 -31.71098617     6    958    0    0    0
H -663.63462341 -24.94434401 -29.67758791     6    958    0    0    0
H -666.41310820 -25.94317157 -28.63005047     6    958    0    0    0
H -644.70955965 -63.29243514 -29.52443089     6     963    0    0    0 
C -644.17787662 -64.22401390 -27.80091649     1     962    964    965    966
H -643.17584215 -62.93491610 -26.54405723     6     963    0    0    0
H -645.78583477 -65.07521810 -26.87275970     6     963    0    0    0
C -642.27151360 -66.39309430 -28.34109077     2     963    967    968    969
H -641.90728103 -67.18593733 -26.43056523     6     966    0    0    0
H -643.17009984 -67.71282150 -29.67903523     6     966    0    0    0
C -639.81840654 -65.33651922 -29.48021316     2     966    970   971   972
H -640.35990487 -64.57659569 -31.34980001     6     969    0    0    0
H -639.23735356 -63.74267637 -28.43794216     6     969    0    0    0
C -637.76564550 -67.36583112 -29.66397468     2     969   973   974   975
H -637.43178416 -67.81869892 -27.78263502     6    972    0    0    0
H -638.33329213 -69.17818463 -30.48481218     6    972    0    0    0
C -635.31141401 -66.73455018 -31.11956524     2    972   976   977   978
H -635.66219393 -66.19716962 -33.04110782     6    975    0    0    0
H -634.19000312 -65.16938652 -30.30458129     6    975    0    0    0
C -633.21664301 -68.89420290 -30.82012375     2    975   979   980   981
H -632.86993539 -68.97106089 -28.84712151     6    978    0    0    0
H -634.23486234 -70.59625122 -31.57516549     6    978    0    0    0
C -630.91321238 -68.40945606 -32.55467991     2    978   982   983   984
H -631.34047041 -69.15130244 -34.35670895     6    981    0    0    0
H -630.54368262 -66.43980452 -32.54180169     6    981    0    0    0
C -628.66501203 -69.63517374 -31.30613130     2    981   985   986   987
H -628.48933092 -69.48424282 -29.20106903     6    984    0    0    0
H -629.02592677 -71.57924016 -31.80719154     6    984    0    0    0
C -625.90420574 -69.10170322 -32.20475844     2    984   988   989   990
H -624.62900327 -70.30275964 -31.09350960     6    987    0    0    0
H -625.82136462 -69.53117256 -34.26424170     6    987    0    0    0
C -624.93747059 -66.36852901 -31.78451027     2    987   991   992   993
H -625.91307549 -65.17710417 -33.08033684     6    990    0    0    0
H -625.18000289 -65.66673054 -29.79998211     6    990    0    0    0
C -622.08118832 -66.31890617 -32.18837546     2    990   994   995   996
H -621.01668028 -67.53044275 -30.95352137     6    993    0    0    0
H -621.62871844 -66.93350620 -33.97584118     6    993    0    0    0
C -620.91633242 -63.67102487 -31.73342813     1    993   997   998   999
H -621.83462693 -62.38845359 -33.02899273     6    996    0    0    0
H -618.96433154 -63.44022943 -32.17861315     6    996    0    0    0
H -621.01328548 -62.90281570 -29.75182512     6    996    0    0    0
H -652.58780775 -69.97108335 -22.70192112     6     1001    0    0    0 
C -652.59013722 -70.87199035 -24.57940543     1     1000    1002    1003    1004
H -653.63102661 -72.62636208 -24.61593963     6     1001    0    0    0
H -653.60960860 -69.69347996 -25.74834632     6     1001    0    0    0
C -649.95062716 -70.96974952 -25.65997724     2     1001    1005    1006    1007
H -648.99714100 -69.12653286 -25.40514359     6     1004    0    0    0
H -648.90598976 -72.29328339 -24.21512633     6     1004    0    0    0
C -649.68639125 -71.87503190 -28.44450840     2     1004    1008   1009   1010
H -650.87188539 -73.66689400 -28.47826384     6     1007    0    0    0
H -650.67497521 -70.59736348 -29.80080648     6     1007    0    0    0
C -646.93979982 -72.69257594 -29.24672393     2     1007   1011   1012   1013
H -645.69466278 -71.00212513 -29.05011647     6    1010    0    0    0
H -645.97234204 -73.97042254 -27.90778145     6    1010    0    0    0
C -646.75509623 -73.51935845 -32.04423423     2    1010   1014   1015   1016
H -647.48762890 -75.39972273 -32.36285470     6    1013    0    0    0
H -647.92973377 -72.25303615 -33.11145325     6    1013    0    0    0
C -644.03344503 -73.40407872 -33.07084601     2    1013   1017   1018   1019
H -643.05093239 -71.69031418 -32.45766014     6    1016    0    0    0
H -643.07129522 -74.88162145 -32.07441404     6    1016    0    0    0
C -643.87200788 -73.70660879 -35.94303443     2    1016   1020   1021   1022
H -644.57600925 -75.53988136 -36.36163213     6    1019    0    0    0
H -645.26577552 -72.44030050 -36.64647346     6    1019    0    0    0
C -641.14223653 -73.64932448 -37.07246883     2    1019   1023   1024   1025
H -639.85963458 -74.42854611 -35.75161632     6    1022    0    0    0
H -641.07006418 -74.62445463 -38.89305042     6    1022    0    0    0
C -640.31699141 -70.93828478 -37.61762212     2    1022   1026   1027   1028
H -641.65589003 -69.89972000 -38.76766478     6    1025    0    0    0
H -640.39057519 -69.96730251 -35.65448088     6    1025    0    0    0
C -637.62507020 -70.74491470 -38.84234601     2    1025   1029   1030   1031
H -636.10459970 -71.61036205 -37.61361920     6    1028    0    0    0
H -637.40189877 -72.03061255 -40.45339761     6    1028    0    0    0
C -637.08775873 -67.95821233 -39.54960909     2    1028   1032   1033   1034
H -638.58779810 -66.97025451 -40.69303455     6    1031    0    0    0
H -636.72884108 -66.86383723 -37.78346744     6    1031    0    0    0
C -634.75949422 -67.76112037 -41.29070048     1    1031   1035   1036   1037
H -633.15239663 -68.82025248 -40.60259659     6    1034    0    0    0
H -634.19962168 -65.83282090 -41.60962878     6    1034    0    0    0
H -634.90360595 -68.55365340 -43.15754211     6    1034    0    0    0
H -638.55410971 -53.41921374 -3.97487875     6     1039    0    0    0 
C -640.54090355 -53.68556511 -3.39358395     1     1038    1040    1041    1042
H -641.28861494 -54.77821940 -4.82315978     6     1039    0    0    0
H -640.38685150 -54.66800092 -1.53538190     6     1039    0    0    0
C -642.32669289 -51.39684618 -3.37737881     2     1039    1043    1044    1045
H -641.56084038 -50.19738900 -1.97169393     6     1042    0    0    0
[...]
 1619      H    -618.4684702100   -47.8165413400   -11.0665947700
 1620      H    -618.9105346100   -47.2953463800    -8.0636493000
 1621      C    -619.2149412900   -51.2447839900    -9.1539593300
 1622      H    -620.2718715100   -51.9959136900    -7.5266315200
 1623      H    -619.9755866900   -52.1604751100   -10.8441043700
 1624      C    -616.3497286800   -51.7424187300    -8.8406354700
 1625      H    -615.2225142800   -51.2654776400   -10.6736871600
 1626      H    -615.6193274800   -50.5869509500    -7.2115625800
 1627      C    -616.0412848700   -54.6095526200    -8.2856172700
 1628      H    -616.8434666800   -55.1714573500    -6.5258944300
 1629      H    -616.9455637800   -55.5797097500    -9.7467291600
 1630      C    -613.3244708000   -55.4725147100    -8.1671132200
 1631      H    -612.3120160900   -55.0472710800    -9.9193699700
 1632      H    -612.5279103800   -54.2969898700    -6.6782354500
 1633      C    -612.8581879700   -58.3155095800    -7.6968278900
 1634      H    -613.4707401600   -58.8687412400    -5.7437883900
 1635      H    -614.1203730700   -59.3004819500    -9.0947063600
 1636      C    -609.9073049300   -59.1751256600    -7.9248156100
 1637      H    -609.1424179100   -57.9178047700    -9.4364378300
 1638      H    -608.7962973000   -58.7194416600    -6.2419891500
 1639      C    -609.7004287300   -61.9237525800    -8.4406474100
 1640      H    -610.8617171300   -62.7903356200    -7.0020758300
 1641      H    -610.5736232500   -62.2843715800   -10.3244239500
 1642      C    -607.1413862500   -63.0918714900    -8.5450515100
 1643      H    -606.1080288300   -62.6628098800   -10.2679852200
 1644      H    -607.6344341200   -65.1208957800    -8.4354996600
 1645      H    -606.1031580800   -62.7635448600    -6.7748382400
 1646      H    -640.2816409400   -76.0611979500     6.1441255900
 1647      C    -642.3213689200   -76.1602239100     5.5560997800
 1648      H    -642.6903003100   -77.5338220700     4.0670354800
 1649      H    -643.4864569000   -76.7504574300     7.0819351400
 1650      C    -643.3491138800   -73.5741575400     4.6341212900
 1651      H    -645.4438911500   -73.5273395100     4.9110387100
 1652      H    -642.6931770900   -72.0850138300     5.9000730000
 1653      C    -642.5128158800   -73.0715970300     1.9000628100
 1654      H    -643.2654028900   -74.7025531700     0.8080925100
 1655      H    -643.4499959300   -71.5434492200     0.9799920400
 1656      C    -639.5520899700   -72.8695258300     1.3942850400
 1657      H    -638.8365474900   -71.0846400800     2.1447103400
 1658      H    -638.6929601900   -74.4289366600     2.4889618800
 1659      C    -638.9775579600   -73.2879700400    -1.3736851900
 1660      H    -639.4308361700   -75.1251178200    -1.9400829600
 1661      H    -640.2311061300   -72.0115257700    -2.5011067200
 1662      C    -636.1958388800   -72.8210097500    -1.9254619500
 1663      H    -635.4933366600   -71.1018790500    -0.9559958900
 1664      H    -635.3845714200   -74.5174237400    -1.1018258900
 1665      C    -635.4092050200   -72.6884316400    -4.7208911100
 1666      H    -635.7203665900   -74.6214905000    -5.3673218000
 1667      H    -636.6123741000   -71.4358309400    -5.7070658900
 1668      C    -632.7293485700   -72.1802681800    -5.1182422400
 1669      H    -632.2227734300   -70.3596316700    -4.2696437800
 1670      H    -631.4448086200   -73.3514444300    -4.0844419800
 1671      C    -631.7477987700   -72.2879151300    -7.8866885400
 1672      H    -632.1073108000   -74.1770121700    -8.6833208400
 1673      H    -633.0567194200   -71.0520657100    -8.9726824300
 1674      C    -628.9486937200   -71.4442316800    -8.2497320000
 1675      H    -628.5390873100   -69.4940385300    -7.5778746300
 1676      H    -627.6640733000   -72.4564869800    -7.0875097300
 1677      C    -627.7810311400   -71.9215095100   -10.9171401200
 1678      H    -627.5737767700   -73.8641826900   -11.4209514700
 1679      H    -629.1958743300   -71.1930120500   -12.3143784900
 1680      C    -625.2749887100   -70.6631463000   -11.5622786000
 1681      H    -624.9608968800   -70.7128241400   -13.5609092900
 1682      H    -623.8174097200   -71.4135086500   -10.5444138400
 1683      H    -625.2342630500   -68.6340605800   -11.0179916100
 1684      H    -647.0030512900   -77.0587032800   -17.1805617200
 1685      C    -645.5027162600   -75.8705947400   -17.8404532100
 1686      H    -643.7142335400   -76.3853772000   -17.0050097700
 1687      H    -645.7433417900   -76.6077528300   -19.7762178600
 1688      C    -646.1885094700   -73.1902960500   -17.4045120600
 1689      H    -648.1390866300   -72.7647112900   -17.9889706200
 1690      H    -646.3570087500   -73.0876149300   -15.4831632200
 1691      C    -644.2454365800   -71.2091628000   -18.3330849600
 1692      H    -642.4276688300   -71.5571252000   -17.4175821700
 1693      H    -643.9270620500   -71.4248290600   -20.3660191300
 1694      C    -644.8686379800   -68.4760818700   -17.5497846600
 1695      H    -646.3050208100   -67.6551608100   -18.6693049100
 1696      H    -645.2313439100   -68.2837982500   -15.6054763100
 1697      C    -642.5118137800   -66.8079968300   -18.0381020300
 1698      H    -640.8178017500   -67.6742854300   -17.2464271600
 1699      H    -642.2083092300   -66.7157660900   -20.0540563700
 1700      C    -642.7019539600   -64.1529168100   -16.9430241100
 1701      H    -644.5651746500   -63.4225833100   -17.2883544800
 1702      H    -642.8060571500   -64.3419620300   -14.9498603200
 1703      C    -640.7029248100   -62.1530290200   -17.8388337500
 1704      H    -638.8355536100   -62.7635048700   -17.3120714500
 1705      H    -640.7975900500   -61.9465042600   -19.9014696200
 1706      C    -640.9563208200   -59.4721570700   -16.6102277700
 1707      H    -639.6802561400   -58.2448739500   -17.6375625700
 1708      H    -642.8315818600   -58.6778307600   -16.5686242100
 1709      C    -640.0604181800   -59.3686864400   -13.8159493800
 1710      H    -640.8215824000   -60.9835900200   -12.7912672200
 1711      H    -638.0381796200   -59.5778951400   -13.6976749900
 1712      C    -640.8577156900   -57.0419468200   -12.1947608700
 1713      H    -640.5601253000   -55.2507525600   -13.2742892700
 1714      H    -642.9585029500   -56.9871098500   -12.0416700300
 1715      C    -639.7874416000   -56.4995392400    -9.5884116500
 1716      H    -640.7488233600   -54.8189366500    -8.9086098600
 1717      H    -640.4024520700   -57.8599874200    -8.1278079400
 1718      C    -636.9517785200   -55.9041050100    -9.5665842600
 1719      H    -636.3618957000   -54.2208322600   -10.4450679600
 1720      H    -635.8920592200   -57.6365041100   -10.1895976100
 1721      H    -636.2370944900   -55.8999313200    -7.6620899800
 1722      H    -622.4215944300   -69.1755950500   -41.7484535500
 1723      C    -621.6951265100   -67.5074892300   -42.8248330700
 1724      H    -620.0991827200   -66.5839927600   -41.9307078200
 1725      H    -621.0052656200   -68.4147220300   -44.4567958200
 1726      C    -624.0031051800   -65.9125958500   -43.4951368600
 1727      H    -623.3279123500   -64.2865530400   -44.5942668300
 1728      H    -625.3870377300   -66.8948668800   -44.6307344000
 1729      C    -625.4319589500   -65.0450637200   -41.1225562200
 1730      H    -625.7657420100   -66.8974320600   -40.2591142800
 1731      H    -623.9669181500   -64.0773119200   -39.8254263100
 1732      C    -627.7903202000   -63.4912422500   -41.4431535400
 1733      H    -627.4719403300   -61.7360444700   -42.4091675100
 1734      H    -629.3093453700   -64.3483335500   -42.3877251000
 1735      C    -628.7754059600   -62.2429254300   -38.9006021300
 1736      H    -629.4519145700   -63.6396016200   -37.5274148300
 1737      H    -627.2307996600   -61.1946134400   -37.9660982200
 1738      C    -631.0073545600   -60.4381472200   -39.4668373300
 1739      H    -629.9563037800   -58.8684023900   -40.2466224800
 1740      H    -632.1392295600   -61.2944424300   -40.8987095900
 1741      C    -632.7006677000   -59.7376087600   -37.2799801700
 1742      H    -632.9696563800   -61.4496731500   -36.1574756300
 1743      H    -631.5807445600   -58.4665772300   -36.0819272800
 1744      C    -635.0574504500   -58.3191424700   -37.9026138100
 1745      H    -634.5682280000   -57.0547612200   -39.5736722700
 1746      H    -636.5599314500   -59.5857909600   -38.7864539500
 1747      C    -635.9855987400   -56.8818415200   -35.5835423700
 1748      H    -636.8648066300   -58.2085645900   -34.2119262700
 1749      H    -634.5928135100   -56.0346838000   -34.2131870100
 1750      C    -637.9835375900   -54.8447991800   -36.0957971400
 1751      H    -637.0677464400   -53.3268196200   -36.9053590000
 1752      H    -639.4714374100   -55.6614070000   -37.3334427400
 1753      C    -638.9655004500   -53.9303097700   -33.4728567800
 1754      H    -640.4701486100   -55.1590769700   -32.9075403900
 1755      H    -637.3446521300   -53.9584413600   -32.1492440400
 1756      C    -640.0943410900   -51.2530407400   -33.5924290100
 1757      H    -641.6238284600   -51.4588849200   -34.9161840100
 1758      H    -639.0302928300   -49.7639959600   -34.5126969300
 1759      H    -640.8253705400   -50.7042415300   -31.7150645500
 1760      H    -627.4977905600   -51.1125513700   -52.0325650700
 1761      C    -628.2092853900   -52.8822978700   -51.2572138900
 1762      H    -628.9527178400   -52.6108248400   -49.2999351100
 1763      H    -629.8051356200   -53.6282912100   -52.3938234300
 1764      C    -625.9510938000   -54.6827727900   -50.9101413700
 1765      H    -625.2064901700   -55.2514213800   -52.7686573700
 1766      H    -624.3958722500   -53.8695688700   -49.9575434900
 1767      C    -626.7434172200   -57.1862406900   -49.8216587800
 1768      H    -627.4628116400   -56.8014937100   -47.8833052800
 1769      H    -628.3369423400   -57.9928744800   -51.1035264800
 1770      C    -624.6557941500   -59.0874482800   -49.8800372800
 1771      H    -623.5862697700   -58.7446660800   -51.5112916400
 1772      H    -623.4095978700   -59.0282411000   -48.2913719900
 1773      C    -625.6616617100   -61.8286456800   -49.9653086000
 1774      H    -626.5450743200   -62.4990554000   -48.3324283600
 1775      H    -627.0512642700   -62.1252611500   -51.3423223000
 1776      C    -623.4718038400   -63.6701491600   -50.2835391500
 1777      H    -622.3295664600   -63.2498914200   -51.9175146800
 1778      H    -622.3490177800   -63.5490172600   -48.6046876800
 1779      C    -624.5025171700   -66.4511888600   -50.8433961600
 1780      H    -625.6317277400   -66.9008979300   -49.1421877500
 1781      H    -625.9129920100   -66.3019980900   -52.4041134600
 1782      C    -622.6436580300   -68.7853094200   -50.7546217600
 1783      H    -621.7845304800   -68.9828012400   -48.8860469700
 1784      H    -623.6636979300   -70.5650801400   -51.0946537100
 1785      C    -620.3815038800   -68.6463104600   -52.5117149700
 1786      H    -620.8419744800   -67.6306847600   -54.2739933800
 1787      H    -619.0960597900   -67.3602464200   -51.2635709800
 1788      C    -619.2624962500   -71.3286108000   -53.0461425700
 1789      H    -619.6457688800   -72.3742624400   -51.4973169500
 1790      H    -620.0297973100   -72.3960370100   -54.6312925400
 1791      C    -616.4139958700   -71.1569683600   -53.5715827200
 1792      H    -615.4299469500   -70.4883586400   -51.8101479700
 1793      H    -615.6692650600   -72.9996247400   -53.9482732300
 1794      C    -615.9617192800   -69.6053314100   -56.0327972200
 1795      H    -616.4824467400   -67.5958134900   -55.9582746400
 1796      H    -616.9557562200   -70.5070072600   -57.6502865800
 1797      H    -613.9060987200   -69.6502950500   -56.2763701200
 1798      H    -627.4444276800   -27.1707622300    -9.7477462900
 1799      C    -629.2859562600   -26.4709307800    -8.9703547900
 1800      H    -629.5124500600   -27.2637712600    -7.0172737400
 1801      H    -629.1285546100   -24.4467188800    -8.8390901000
 1802      C    -631.4179392900   -26.8315731400   -10.6147750900
 1803      H    -631.1502317600   -25.6428394700   -12.3041375200
 1804      H    -631.2779671000   -28.7644218700   -11.5202705400
 1805      C    -634.0188498400   -26.4017397100    -9.3759295800
 1806      H    -634.0957287400   -27.5820579400    -7.5970332100
 1807      H    -634.1799603200   -24.4655119600    -8.8126648600
 1808      C    -636.2157107200   -26.8633888000   -11.1340069900
 1809      H    -637.9681304500   -26.0653778000   -10.5737697300
 1810      H    -635.9266036500   -26.0216740200   -12.9630805700
 1811      C    -636.7981001300   -29.7116629300   -11.5129969900
 1812      H    -635.0321469900   -30.6749349300   -12.0934501100
 1813      H    -636.9010124200   -30.3271660500    -9.6335699300
 1814      C    -639.1775526200   -30.1758564900   -13.1992507300
 1815      H    -640.7337159500   -29.0861199000   -12.4108231600
 1816      H    -638.8324089500   -29.5651474400   -15.0551421800
 1817      C    -639.7786418200   -33.0825987100   -13.3069197200
 1818      H    -638.1702493000   -34.1215103300   -14.2890502200
 1819      H    -639.8239102300   -33.5885886900   -11.3119863300
 1820      C    -642.3913907300   -33.8059724600   -14.3819163600
 1821      H    -643.7305838300   -32.6480150900   -13.3830218100
 1822      H    -642.4045392900   -33.4619370700   -16.3389202600
 1823      C    -643.0500323200   -36.6288285700   -13.9519610500
 1824      H    -641.3645526100   -37.5897240300   -14.6115664100
 1825      H    -643.3857231000   -37.1854143800   -11.9393895600
 1826      C    -645.3499576700   -37.6182353900   -15.5739982500
 1827      H    -647.2262298300   -36.6408830500   -15.1622426700
 1828      H    -644.9453556100   -37.2082593000   -17.5879490400
 1829      C    -645.6492518700   -40.4759571600   -15.3701598200
 1830      H    -643.8033022200   -41.3990969300   -15.9575659700
 1831      H    -645.7581270500   -41.0820182900   -13.4037338800
 1832      C    -647.9693182500   -41.3212974800   -17.0589479500
 1833      H    -648.6695060400   -43.3071849300   -16.7214543900
 1834      H    -647.2785744200   -41.3940541000   -18.9182080800
 1835      H    -649.4597266900   -40.0354431400   -16.8449499600
 1836      H    -642.4594162700   -42.5933113800   -25.7705672000
 1837      C    -641.0081266300   -41.3123146700   -26.4740529700
 1838      H    -639.4188793900   -41.5693333300   -25.1215774500
 1839      H    -640.4487215300   -41.8676681500   -28.3600387600
 1840      C    -641.7490762300   -38.5226196600   -26.2900296000
 1841      H    -640.1985700200   -37.3544237900   -26.7685046600
 1842      H    -643.3377714400   -38.2303762000   -27.5353719000
 1843      C    -642.4986193700   -37.7355151000   -23.6356132100
 1844      H    -644.0257295700   -38.7889218800   -22.8659357300
 1845      H    -640.7993625000   -38.0975509900   -22.4812219600
 1846      C    -643.2180510800   -34.9956851500   -23.5364628300
 1847      H    -644.6530588300   -34.6629201300   -24.8129542400
 1848      H    -644.0732568800   -34.3996524500   -21.7099102100
 1849      C    -640.9146155000   -33.2306704700   -23.9321950800
 1850      H    -639.3616036500   -33.4029248700   -22.4673603800
 1851      H    -640.0802801700   -33.4711409500   -25.6753023500
 1852      C    -641.4898277900   -30.4507607900   -23.5688571600
 1853      H    -643.0778092000   -30.1140270300   -24.7110140400
 1854      H    -641.8004671700   -29.9570685200   -21.5613748400
 1855      C    -639.2966571200   -28.7703504500   -24.6211362900
 1856      H    -637.7192108700   -29.4073239400   -23.5214644900
 1857      H    -638.7176792600   -29.0109108500   -26.5320119400
 1858      C    -640.0065286200   -25.9504331400   -23.9664012000
 1859      H    -641.6223349500   -25.3519100500   -25.1529584500
 1860      H    -640.5658419100   -25.7631954400   -22.0416761500
 1861      C    -637.7566023700   -24.2582322100   -24.6046019400
 1862      H    -636.0290240900   -24.6323151700   -23.6479349800
 1863      H    -637.2094305300   -24.5806224500   -26.6624337400
 1864      C    -638.2441872700   -21.4511096600   -24.5069734400
 1865      H    -639.6129656400   -20.8499029200   -26.0599390300
 1866      H    -639.1137798500   -20.7612420100   -22.6762628900
 1867      C    -635.7534138000   -19.9872642600   -24.8132248600
 1868      H    -634.6583742900   -20.9052010400   -23.4536361500
 1869      H    -635.0416595300   -20.3642440500   -26.6864617500
 1870      C    -635.7479726700   -17.1520679100   -24.4911113900
 1871      H    -634.4021614200   -16.3273259600   -25.8207798200
 1872      H    -635.5155151500   -16.5100069400   -22.5207907300
 1873      H    -637.6326480300   -16.5687447200   -25.1641710600
 1874      H    -618.5831295300   -42.7085520600   -24.2969466800
 1875      C    -617.5610816800   -43.9106748200   -25.6210954800
 1876      H    -616.6017149600   -42.6449250000   -27.0153102300
 1877      H    -616.0936913500   -44.9185898800   -24.5573993500
 1878      C    -619.3683448000   -45.6087535500   -27.0101499400
 1879      H    -620.6470764400   -44.4229624100   -28.0032138000
 1880      H    -618.1492631500   -46.6418133800   -28.2511072100
 1881      C    -620.8289675300   -47.5803705300   -25.1929355000
 1882      H    -619.3772240400   -48.8373016300   -24.2740316200
 1883      H    -621.6236484200   -46.5165666800   -23.6451001300
 1884      C    -622.8014701300   -49.2424861600   -26.4885062600
 1885      H    -624.5165870200   -48.0054871800   -27.0740409700
 1886      H    -622.2174206000   -50.0074540300   -28.3644875800
 1887      C    -624.1282331300   -51.0978408000   -24.7479400000
 1888      H    -622.5370006600   -52.2069559700   -23.9835278100
 1889      H    -624.9833848200   -49.9488593300   -23.2474008100
 1890      C    -625.9037563400   -53.0596730300   -26.1726893400
 1891      H    -627.6175440000   -51.9312674100   -26.8024759600
 1892      H    -625.2076167400   -53.9550833900   -27.8857161700
 1893      C    -626.8565200900   -55.1440837300   -24.3948146100
 1894      H    -625.2363661400   -56.2078759500   -23.6936341600
 1895      H    -627.7115996100   -54.3508486500   -22.7770192200
 1896      C    -628.8079170100   -56.7800544400   -25.6190420900
 1897      H    -629.9929085700   -55.4091812200   -26.2470419800
 1898      H    -627.9277418400   -57.8379531500   -27.0862415800
 1899      C    -630.1531691900   -58.5818792000   -23.8809114000
 1900      H    -629.0192470400   -60.1246031300   -23.1008267600
 1901      H    -630.7284287900   -57.4649755400   -22.3158141100
 1902      C    -632.5663381000   -59.7781385600   -25.0012522900
 1903      H    -633.8580913300   -58.3831987100   -25.6319633000
 1904      H    -632.0490903800   -60.6177989800   -26.7974814400
 1905      C    -633.9970526100   -61.5309859600   -23.1852334400
 1906      H    -632.8899978300   -62.9691946500   -22.4246308700
 1907      H    -634.7764329200   -60.0863710400   -21.7629298900
 1908      C    -636.0845168700   -62.9849884200   -24.5621268100
 1909      H    -637.0607605000   -63.9343813200   -23.0088006400
 1910      H    -635.4309537900   -64.3869429000   -25.9557817100
 1911      H    -637.2646988900   -61.8422557200   -25.7381560500
 ----------------------------------------------------------------
 Nuclear Repulsion Energy =           0.00000000 hartrees
 There are       48 alpha and       48 beta electrons
 Total job time:  30.24s(wall), 26.49s(cpu) 
 Sun Jul  3 09:42:34 2022

        *************************************************************
        *                                                           *
        *  Thank you very much for using Q-Chem.  Have a nice day.  *
        *                                                           *
        *************************************************************


