                  Welcome to Q-Chem
     A Quantum Leap Into The Future Of Chemistry


 Q-Chem 5.4 (devel), Q-Chem, Inc., Pleasanton, CA (2021)

 E. Epifanovsky,  A. T. B. Gilbert,  Xintian Feng,  Joonho Lee,  Yuezhi Mao,  
 N. Mardirossian,  P. Pokhilko,  A. White,  M. Wormit,  M. P. Coons,  
 A. L. Dempwolff,  Zhengting Gan,  D. Hait,  P. R. Horn,  L. D. Jacobson,  
 I. Kaliman,  J. Kussmann,  A. W. Lange,  Ka Un Lao,  D. S. Levine,  Jie Liu,  
 S. C. McKenzie,  A. F. Morrison,  K. Nanda,  F. Plasser,  D. R. Rehn,  
 M. L. Vidal,  Zhi-Qiang You,  Ying Zhu,  B. Alam,  B. Albrecht,  
 A. Aldossary,  E. Alguire,  J. H. Andersen,  D. Barton,  K. Begam,  A. Behn,  
 Y. A. Bernard,  E. J. Berquist,  H. Burton,  A. Carreras,  K. Carter-Fenk,  
 R. Chakraborty,  A. D. Chien,  K. D. Closser,  V. Cofer-Shabica,  
 S. Dasgupta,  Jia Deng,  M. de Wergifosse,  M. Diedenhofen,  Hainam Do,  
 S. Ehlert,  Po-Tung Fang,  S. Fatehi,  Qingguo Feng,  T. Friedhoff,  
 J. Gayvert,  Qinghui Ge,  G. Gidofalvi,  M. Goldey,  J. Gomes,  
 C. Gonzalez-Espinoza,  S. Gulania,  A. Gunina,  M. W. D. Hanson-Heine,  
 P. H. P. Harbach,  A. W. Hauser,  M. F. Herbst,  M. Hernandez Vera,  
 M. Hodecker,  Z. C. Holden,  S. Houck,  Xunkun Huang,  Kerwin Hui,  
 B. C. Huynh,  M. Ivanov,  Hyunjun Ji,  Hanjie Jiang,  B. Kaduk,  S. Kaehler,  
 K. Khistyaev,  Jaehoon Kim,  P. Klunzinger,  Z. Koczor-Benda,  
 Joong Hoon Koh,  D. Kosenkov,  L. Koulias,  T. Kowalczyk,  C. M. Krauter,  
 K. Kue,  A. Kunitsa,  T. Kus,  A. Landau,  K. V. Lawler,  D. Lefrancois,  
 S. Lehtola,  Rain Li,  Yi-Pei Li,  Jiashu Liang,  M. Liebenthal,  
 Hung-Hsuan Lin,  You-Sheng Lin,  Fenglai Liu,  Kuan-Yu Liu,  
 M. Loipersberger,  A. Luenser,  A. Manjanath,  P. Manohar,  E. Mansoor,  
 S. F. Manzer,  Shan-Ping Mao,  A. V. Marenich,  T. Markovich,  S. Mason,  
 S. A. Maurer,  P. F. McLaughlin,  M. F. S. J. Menger,  J.-M. Mewes,  
 S. A. Mewes,  P. Morgante,  J. W. Mullinax,  K. J. Oosterbaan,  G. Paran,  
 Alexander C. Paul,  Suranjan K. Paul,  F. Pavosevic,  Zheng Pei,  S. Prager,  
 E. I. Proynov,  E. Ramos,  B. Rana,  A. E. Rask,  A. Rettig,  R. M. Richard,  
 F. Rob,  E. Rossomme,  T. Scheele,  M. Scheurer,  M. Schneider,  
 N. Sergueev,  S. M. Sharada,  W. Skomorowski,  D. W. Small,  C. J. Stein,  
 Yu-Chuan Su,  E. J. Sundstrom,  Zhen Tao,  J. Thirman,  T. Tsuchimochi,  
 N. M. Tubman,  S. P. Veccham,  O. Vydrov,  J. Wenzel,  J. Witte,  A. Yamada,  
 Kun Yao,  S. Yeganeh,  S. R. Yost,  A. Zech,  Igor Ying Zhang,  Xing Zhang,  
 Yu Zhang,  D. Zuev,  A. Aspuru-Guzik,  A. T. Bell,  N. A. Besley,  
 K. B. Bravaya,  B. R. Brooks,  D. Casanova,  Jeng-Da Chai,  S. Coriani,  
 C. J. Cramer,  A. E. DePrince, III,  R. A. DiStasio Jr.,  A. Dreuw,  
 B. D. Dunietz,  T. R. Furlani,  W. A. Goddard III,  S. Grimme,  
 S. Hammes-Schiffer,  T. Head-Gordon,  W. J. Hehre,  Chao-Ping Hsu,  
 T.-C. Jagau,  Yousung Jung,  A. Klamt,  Jing Kong,  D. S. Lambrecht,  
 WanZhen Liang,  N. J. Mayhall,  C. W. McCurdy,  J. B. Neaton,  
 C. Ochsenfeld,  J. A. Parkhill,  R. Peverati,  V. A. Rassolov,  Yihan Shao,  
 L. V. Slipchenko,  T. Stauch,  R. P. Steele,  J. E. Subotnik,  
 A. J. W. Thom,  A. Tkatchenko,  D. G. Truhlar,  T. Van Voorhis,  
 T. A. Wesolowski,  K. B. Whaley,  H. L. Woodcock III,  P. M. Zimmerman,  
 S. Faraji,  P. M. W. Gill,  M. Head-Gordon,  J. M. Herbert,  A. I. Krylov

 Additional authors for Version 5.4.1: 
 S. Kotaru,  Shaozhi Li,  Xiangyuan Li,  F. Matz,  A. Molle,  Haisheng Ren,  
 Yingli Su,  Hung-Yi Tsai,  C. Utku,  Fang Wang

 Contributors to earlier versions of Q-Chem not listed above: 
 R. D. Adamson,  B. Austin,  R. Baer,  J. Baker,  G. J. O. Beran,  
 K. Brandhorst,  S. T. Brown,  E. F. C. Byrd,  A. K. Chakraborty,  
 G. K. L. Chan,  Chun-Min Chang,  Yunqing Chen,  C.-L. Cheng,  
 Siu Hung Chien,  D. M. Chipman,  D. L. Crittenden,  H. Dachsel,  
 R. J. Doerksen,  A. D. Dutoi,  R. G. Edgar,  J. Fosso-Tande,  
 L. Fusti-Molnar,  D. Ghosh,  A. Ghysels,  A. Golubeva-Zadorozhnaya,  
 J. Gonthier,  M. S. Gordon,  S. R. Gwaltney,  G. Hawkins,  J. E. Herr,  
 A. Heyden,  S. Hirata,  E. G. Hohenstein,  G. Kedziora,  F. J. Keil,  
 C. Kelley,  Jihan Kim,  R. A. King,  R. Z. Khaliullin,  P. P. Korambath,  
 W. Kurlancheek,  A. Laurent,  A. M. Lee,  M. S. Lee,  S. V. Levchenko,  
 Ching Yeh Lin,  D. Liotard,  E. Livshits,  R. C. Lochan,  I. Lotan,  
 L. A. Martinez-Martinez,  P. E. Maslen,  N. Nair,  D. P. O'Neill,  
 D. Neuhauser,  E. Neuscamman,  C. M. Oana,  R. Olivares-Amaya,  R. Olson,  
 T. M. Perrine,  B. Peters,  P. A. Pieniazek,  A. Prociuk,  Y. M. Rhee,  
 J. Ritchie,  M. A. Rohrdanz,  E. Rosta,  N. J. Russ,  H. F. Schaefer III,  
 M. W. Schmidt,  N. E. Schultz,  S. Sharma,  N. Shenvi,  C. D. Sherrill,  
 A. C. Simmonett,  A. Sodt,  T. Stein,  D. Stuck,  K. S. Thanthiriwatte,  
 V. Vanovschi,  L. Vogt,  Tao Wang,  A. Warshel,  M. A. Watson,  
 C. F. Williams,  Q. Wu,  X. Xu,  Jun Yang,  W. Zhang,  Yan Zhao

 Please cite Q-Chem as follows:
 Y. Shao et al., Mol. Phys. 113, 184-215 (2015)
 DOI: 10.1080/00268976.2014.952696

 Q-Chem 5.4.1 for Intel X86 EM64T Linux

 Parts of Q-Chem use Armadillo 9.900.5 (Nocturnal Misbehaviour).
 http://arma.sourceforge.net/

 Q-Chem begins on Wed Jun 22 16:41:23 2022  

 Host: p09r14n13.grace.hpc.yale.internal
0

     Scratch files written to /home/tl686/scratch60/qchem_dev/scratch/qchem246732//
 Processing $rem in /home/tl686/qchem_dev/qchem/config/preferences:
 Processing $rem in /home/tl686/.qchemrc:
Applying user defined connections for MM calculations

 Checking the input file for inconsistencies... 	...done.

--------------------------------------------------------------
User input:
--------------------------------------------------------------
$molecule
0   1
 Fe 1019.79862533 26.56108982 50.96319390    -1  0   0   0   0
C 1018.55587798 28.01091190 48.17334356    -2  0   0   0   0 
C 1021.98429512 27.24780725 53.53582060    -2  0   0   0   0
C 1018.39921651 23.44996057 51.23044346    -2  0   0   0   0
C 1022.73264529 25.84068519 49.25069355    -2  0   0   0   0
C 1017.39130864 28.53251822 52.45761800    -2  0   0   0   0
O 1017.94002647 28.80823498 46.27955045    -3  0   0   0   0
O 1023.32912664 27.90727711 55.15131119    -3  0   0   0   0 
O 1017.17452199 21.64761626 51.49195919    -3  0   0   0   0
O 1024.69585456 25.85639966 48.23701488    -3  0   0   0   0 
O 1015.50225045 29.82955920 53.03147969    -3  0   0   0   0
H 1017.52374054 21.18156063 24.16386432      6     13    0    0    0 
C 1017.54546408 23.16991739 24.51655047     1     12    14    15    16
H 1016.20193530 23.89414680 23.23216409     6     13    0    0    0
H 1016.71468839 23.29261140 26.41800415     6     13    0    0    0
C 1020.11952001 24.32248124 24.21120984     2     13    17    18    19
H 1020.96623142 23.46296371 22.55256747     6     16    0    0    0
H 1020.12159189 26.32176624 23.83240110     6     16    0    0    0
C 1021.78293322 24.02303490 26.57066450     2     16    20   21   22
H 1020.90459019 25.17135182 28.07075878     6     19    0    0    0
H 1021.65841666 21.94225886 27.18774528     6     19    0    0    0
C 1024.51862494 24.84571628 26.24799960     2     19   23   24   25
H 1025.75993490 23.57601584 24.96104693     6    22    0    0    0
H 1024.76969626 26.82755699 25.36182201     6    22    0    0    0
C 1025.76343106 24.78748636 28.78384096     2    22   26   27   28
H 1024.77601935 26.07418610 30.04858287     6    25    0    0    0
H 1025.76341666 22.92647613 29.62963464     6    25    0    0    0
C 1028.54012028 25.57366948 28.57248428     2    25   29   30   31
H 1029.45226019 24.22589806 27.40623929     6    28    0    0    0
H 1028.53156610 27.39835623 27.59108335     6    28    0    0    0
C 1029.78524159 25.88364174 31.08336326     2    28   32   33   34
H 1028.84393518 27.35549060 32.14846422     6    31    0    0    0
H 1029.45127576 24.08566978 32.08074841     6    31    0    0    0
C 1032.58714008 26.31610311 30.79941173     2    31   35   36   37
H 1033.49688425 24.58874154 30.03738835     6    34    0    0    0
H 1032.97786928 27.82134371 29.43528231     6    34    0    0    0
C 1033.87559315 27.20960451 33.34278444     2    34   38   39   40
H 1033.30195406 29.18162957 33.77411581     6    37    0    0    0
H 1033.12670272 25.98909392 34.82039158     6    37    0    0    0
C 1036.74445699 27.12142987 33.44299447     2    37   41   42   43
H 1037.34122553 25.18198916 33.14601655     6    40    0    0    0
H 1037.48531915 28.31615566 31.98767925     6    40    0    0    0
C 1038.00367538 28.22720944 35.62132384     2    40   44   45   46
H 1037.25620447 30.16900998 35.91407994     6    43    0    0    0
H 1037.55135385 26.95574955 37.26664381     6    43    0    0    0
C 1040.99076302 28.28951396 35.60428939     1    43   47   48   49
H 1041.70503132 26.32826063 35.83405281     6    46    0    0    0
H 1041.74248130 29.42190329 37.12344875     6    46    0    0    0
H 1041.71974071 29.01870872 33.84286866     6    46    0    0    0
H 1022.22697290 31.53414618 46.33232884     6     51    0    0    0 
C 1023.98007527 31.90315869 45.60122913     1     50    52    53    54
H 1023.74638065 33.85525039 44.76337139     6     51    0    0    0
H 1025.38559462 31.62458281 47.02090227     6     51    0    0    0
C 1024.43652690 30.04870966 43.34810236     2     51    55    56    57
H 1023.82458231 28.15670463 43.91039198     6     54    0    0    0
H 1023.21950629 30.80320664 41.87335469     6     54    0    0    0
C 1027.31623279 29.72370142 42.46787471     2     54    58   59   60
H 1028.16917649 28.95520790 44.25832886     6     57    0    0    0
H 1027.65713639 28.19021564 41.07756184     6     57    0    0    0
C 1028.60805960 32.24092880 41.61429784     2     57   61   62   63
H 1027.35374317 33.30071781 40.31490815     6    60    0    0    0
H 1028.70703480 33.22955683 43.32449801     6    60    0    0    0
C 1031.30408721 31.63351806 40.53849731     2    60   64   65   66
H 1032.68673972 31.21266616 42.07999623     6    63    0    0    0
H 1031.27750603 29.91623159 39.43007155     6    63    0    0    0
C 1032.53864712 33.64909912 38.90963611     2    63   67   68   69
H 1034.12603068 32.76482002 37.93052257     6    66    0    0    0
H 1031.12317675 34.42516025 37.45470873     6    66    0    0    0
C 1033.49583108 35.95171937 40.42598279     2    66   70   71   72
H 1031.97819855 36.75478734 41.54638920     6    69    0    0    0
H 1035.05460824 35.24841184 41.62466983     6    69    0    0    0
C 1034.57475814 37.86599902 38.56580144     2    69   73   74   75
H 1036.01844569 37.10162666 37.22335954     6    72    0    0    0
H 1032.94791824 38.34725880 37.44458458     6    72    0    0    0
C 1035.61601451 40.06898229 40.01742704     2    72   76   77   78
H 1034.17970030 41.19426385 41.08544005     6    75    0    0    0
H 1036.60798086 39.30222848 41.58675590     6    75    0    0    0
C 1037.28207616 42.05188091 38.54363081     2    75   79   80   81
H 1039.03317452 41.17208737 38.01063517     6    78    0    0    0
H 1036.36334255 42.93000412 36.98631400     6    78    0    0    0
C 1037.85022241 44.08420765 40.55668327     2    78   82   83   84
H 1036.24681079 44.92679695 41.54621398     6    81    0    0    0
H 1038.64497620 43.04976276 42.10324160     6    81    0    0    0
C 1039.61482712 46.18198869 39.68014785     1    81   85   86   87
H 1039.89851263 47.66817630 40.79219411     6    84    0    0    0
H 1038.75601821 47.05198679 37.95560952     6    84    0    0    0
H 1041.45791300 45.19632879 39.20020795     6    84    0    0    0
H 1042.31030615 -3.76792638 36.46246627     6     89    0    0    0 
C 1043.57722171 -2.38703458 35.58793189     1     88    90    91    92
H 1044.77198033 -1.32836885 36.82427619     6     89    0    0    0
H 1044.80452714 -3.49371019 34.44796823     6     89    0    0    0
C 1042.17121750 -0.38515038 33.77662589     2     89    93    94    95
H 1041.00346396 -1.44595971 32.32262672     6     92    0    0    0
H 1040.50102247 0.30507613 34.76605084     6     92    0    0    0
C 1043.76192993 1.56018455 32.52015467     2     92    96   97   98
H 1045.01270051 2.53081554 33.81092491     6     95    0    0    0
H 1045.04661171 0.54400721 31.18548168     6     95    0    0    0
C 1041.92343859 3.26503377 30.90538179     2     95   99   100   101
H 1040.92126511 1.80528427 29.72539671     6    98    0    0    0
H 1040.49822541 4.23075830 31.88801459     6    98    0    0    0
C 1043.45032751 4.86902876 29.01565028     2    98   102   103   104
H 1045.02256016 5.76488558 30.06080158     6    101    0    0    0
H 1044.25819588 3.51083015 27.55129470     6    101    0    0    0
C 1042.00590047 6.89186750 27.44948911     2    101   105   106   107
H 1040.84689992 6.06808999 25.85242782     6    104    0    0    0
H 1040.57993332 7.88222219 28.55880083     6    104    0    0    0
C 1043.73300111 9.17126817 26.29636990     2    104   108   109   110
H 1044.54181581 9.93429941 27.88994572     6    107    0    0    0
H 1045.19591259 8.73691730 24.99667909     6    107    0    0    0
C 1042.18822368 11.42923405 25.20750946     2    107   111   112   113
H 1041.39472136 10.90589943 23.33770320     6    110    0    0    0
H 1040.69069928 12.27759012 26.37340695     6    110    0    0    0
C 1043.96982846 13.60357687 24.53427372     2    110   114   115   116
H 1045.02956643 14.03472723 26.27752972     6    113    0    0    0
H 1045.50136209 12.94149528 23.28998026     6    113    0    0    0
C 1042.68178467 16.07996780 23.62102683     2    113   117   118   119
H 1042.94603119 16.14304113 21.55057914     6    116    0    0    0
H 1040.66814770 16.24717393 24.01938554     6    116    0    0    0
C 1044.05066733 18.57956688 24.46115283     2    116   120   121   122
H 1044.22322132 18.54421316 26.52684503     6    119    0    0    0
H 1046.06619693 18.65913359 23.94621613     6    119    0    0    0
C 1042.64465527 20.90760170 23.40614602     1    119   123   124   125
H 1043.68250729 22.67182339 23.78243647     6    122    0    0    0
H 1040.71456412 20.93417974 24.21490769     6    122    0    0    0
H 1042.36847820 20.75872502 21.37065419     6    122    0    0    0
H 1041.86977970 -0.41911728 47.26703461     6     127    0    0    0 
C 1040.01616055 -0.00947252 46.40029475     1     126    128    129    130
H 1040.44954143 1.15981814 44.84410835     6     127    0    0    0
H 1039.23588568 -1.92358487 45.90016039     6     127    0    0    0
C 1038.34783257 1.44222683 48.19468392     2     127    131    132    133
H 1038.27615927 0.37779252 49.92112163     6     130    0    0    0
H 1039.34177145 3.25690052 48.67996946     6     130    0    0    0
C 1035.55288132 1.59650650 47.23424292     2     130    134   135   136
H 1035.33892795 2.42095134 45.34637054     6     133    0    0    0
H 1035.14007562 -0.48298080 46.93391223     6     133    0    0    0
C 1033.87084455 3.04789711 49.24229315     2     133   137   138   139
H 1033.75569971 1.74576307 50.87304890     6    136    0    0    0
H 1034.86010334 4.77075775 49.83650569     6    136    0    0    0
C 1031.33436757 3.84297258 48.34107762     2    136   140   141   142
H 1031.37330127 4.89990629 46.58443542     6    139    0    0    0
H 1030.58210929 2.06965155 47.94179779     6    139    0    0    0
C 1029.77475181 5.22059494 50.12812110     2    139   143   144   145
H 1030.04815745 4.62386239 52.12589739     6    142    0    0    0
H 1030.37607241 7.18467252 50.05689347     6    142    0    0    0
C 1026.87710426 5.06722139 49.91256798     2    142   146   147   148
H 1026.32709712 5.82417136 48.01146025     6    145    0    0    0
H 1026.22901067 3.10347172 49.96211992     6    145    0    0    0
C 1025.35952674 6.43263915 51.99989799     2    145   149   150   151
H 1025.74130738 5.49810693 53.82859678     6    148    0    0    0
H 1026.13705377 8.28417666 52.15686284     6    148    0    0    0
C 1022.53813580 6.34194906 51.47018824     2    148   152   153   154
H 1022.15778598 7.33570571 49.80655318     6    151    0    0    0
H 1021.88951362 4.32582285 51.16280600     6    151    0    0    0
C 1020.77470940 7.57439735 53.45141922     2    151   155   156   157
H 1018.74982948 7.09260172 53.00959700     6    154    0    0    0
H 1021.07482799 6.58961011 55.14946736     6    154    0    0    0
C 1021.22777984 10.29530387 54.20846231     2    154   158   159   160
H 1023.08849855 10.61693609 54.81355235     6    157    0    0    0
H 1020.95716708 11.38613243 52.57230676     6    157    0    0    0
C 1019.41400747 11.17184304 56.28291810     1    157   161   162   163
H 1017.55656054 10.91687312 55.60272635     6    160    0    0    0
H 1019.68929615 13.19039690 56.28710459     6    160    0    0    0
H 1019.62142266 10.41241072 58.19906985     6    160    0    0    0
H 1059.52280670 15.34264931 58.60681662     6     165    0    0    0 
C 1058.30041454 14.33028824 57.18024857     1     164    166    167    168
H 1056.85477847 15.79291267 56.79137142     6     165    0    0    0
H 1059.45156890 14.04778040 55.42520779     6     165    0    0    0
C 1057.02476850 12.00512639 58.20280773     2     165    169    170    171
H 1058.65457949 10.78746971 58.89016271     6     168    0    0    0
H 1055.67892763 12.43446744 59.76145339     6     168    0    0    0
C 1055.60273698 10.92681614 56.00111938     2     168    172   173   174
H 1054.21219388 12.42449507 55.45870367     6     171    0    0    0
H 1056.85643796 10.66448048 54.45944590     6     171    0    0    0
C 1054.12711770 8.49451095 56.66890241     2     171   175   176   177
H 1055.30448618 7.13374832 57.82919932     6    174    0    0    0
H 1052.70992430 9.08176780 58.07726532     6    174    0    0    0
C 1052.87754622 7.10939576 54.51221763     2    174   178   179   180
H 1051.46326501 8.10812140 53.30358960     6    177    0    0    0
H 1054.24754932 6.14815232 53.24046427     6    177    0    0    0
C 1051.25218096 4.87003040 55.37338796     2    177   181   182   183
H 1052.48470999 3.34734475 56.08349314     6    180    0    0    0
H 1050.05012666 5.20288335 57.02011928     6    180    0    0    0
C 1049.78298734 3.74363932 53.13927860     2    180   184   185   186
H 1048.33297356 5.28035519 52.72024986     6    183    0    0    0
H 1050.95664701 3.69369288 51.42053546     6    183    0    0    0
C 1048.75124596 1.13416979 53.68099577     2    183   187   188   189
H 1049.99811438 -0.31325351 52.90844489     6    186    0    0    0
H 1048.19570932 1.03188112 55.67013002     6    186    0    0    0
C 1046.24260236 0.71773110 52.39181608     2    186   190   191   192
H 1045.01841332 2.31288462 53.03661390     6    189    0    0    0
H 1046.62386075 0.69972797 50.30061486     6    189    0    0    0
C 1045.26654558 -1.91617529 53.40487410     2    189   193   194   195
H 1046.31294585 -3.51794103 52.51375906     6    192    0    0    0
H 1045.74664633 -1.98207697 55.35140353     6    192    0    0    0
C 1042.38036448 -2.05485565 53.02227969     2    192   196   197   198
H 1041.49510607 -0.57109964 54.07562974     6    195    0    0    0
H 1041.94818446 -1.82895318 51.00143339     6    195    0    0    0
C 1040.94160397 -4.39301978 53.84363621     1    195   199   200   201
H 1039.38278800 -4.78765466 52.46971372     6    198    0    0    0
H 1040.17832643 -4.34182475 55.82654274     6    198    0    0    0
H 1042.01057821 -6.23071491 53.83797308     6    198    0    0    0
H 1052.57348464 18.06171068 56.09275336     6     203    0    0    0 
C 1052.26097192 18.55115275 54.09418128     1     202    204    205    206
H 1052.61082299 16.77176440 53.12248878     6     203    0    0    0
H 1050.20949170 18.93587788 53.91877804     6     203    0    0    0
C 1053.97358357 20.58842079 53.00382451     2     203    207    208    209
H 1055.96518623 20.14148600 53.15177051     6     206    0    0    0
H 1053.59525192 20.67842499 50.96773216     6     206    0    0    0
C 1053.56480597 23.23637615 53.99586600     2     206    210   211   212
H 1053.47413285 24.43570822 52.35323310     6     209    0    0    0
H 1051.71506903 23.49673027 54.83793012     6     209    0    0    0
C 1055.56484038 24.19133985 55.77493550     2     209   213   214   215
H 1056.21205376 22.55835084 56.86917258     6    212    0    0    0
H 1057.27681276 24.95795005 54.78251079     6    212    0    0    0
C 1054.59018260 26.14115945 57.71892948     2    212   216   217   218
H 1054.02053735 27.60425162 56.54712177     6    215    0    0    0
H 1052.84593686 25.76846921 58.67577865     6    215    0    0    0
C 1056.71078327 26.89088539 59.60281891     2    215   219   220   221
H 1056.52143281 25.33720570 61.07459375     6    218    0    0    0
H 1058.69037131 26.77117330 58.76915527     6    218    0    0    0
C 1056.20531257 29.50809539 60.75176633     2    218   222   223   224
H 1057.81534679 30.10250608 61.96476190     6    221    0    0    0
H 1056.18753540 30.86816255 59.14841312     6    221    0    0    0
C 1053.59241512 29.67848147 62.03004121     2    221   225   226   227
H 1051.95704694 29.88549510 60.52481090     6    224    0    0    0
H 1053.30648775 27.82871910 62.97499454     6    224    0    0    0
C 1053.48562714 31.86595647 64.00426859     2    224   228   229   230
H 1055.18922473 31.92539428 65.20200130     6    227    0    0    0
H 1053.86521478 33.60234593 62.98307087     6    227    0    0    0
C 1051.00988007 31.97629549 65.50273091     2    227   231   232   233
H 1050.07409449 33.51907862 64.66162411     6    230    0    0    0
H 1049.74833410 30.31810421 65.00143444     6    230    0    0    0
C 1051.15837124 32.01408460 68.38459252     2    230   234   235   236
H 1052.01357135 30.20281344 69.20266446     6    233    0    0    0
H 1052.25302295 33.67875398 68.91605276     6    233    0    0    0
C 1048.44623679 32.29587418 69.62752177     1    233   237   238   239
H 1048.58017636 32.31217637 71.70234643     6    236    0    0    0
H 1047.10345424 30.96018200 69.10966932     6    236    0    0    0
H 1047.81927043 34.12780817 69.06661337     6    236    0    0    0
H 1051.04725201 36.03683465 31.70623575     6     241    0    0    0 
C 1049.10629095 35.81123806 31.26130317     1     240    242    243    244
H 1048.74695963 35.80240126 29.17090984     6     241    0    0    0
H 1048.36721103 33.96421254 31.99377512     6     241    0    0    0
C 1047.54345817 37.72754490 32.58395454     2     241    245    246    247
H 1048.29335689 37.91823132 34.49172664     6     244    0    0    0
H 1047.91777598 39.41700243 31.64837865     6     244    0    0    0
C 1044.69812485 37.61592917 32.84171863     2     244    248   249   250
H 1043.89534164 36.86776313 31.20998458     6     247    0    0    0
H 1044.19405146 36.41599712 34.37433267     6     247    0    0    0
C 1043.47129999 39.92110307 33.79995801     2     247   251   252   253
H 1042.00782809 39.54486182 35.10828810     6    250    0    0    0
H 1044.85901234 41.23087116 34.71611319     6    250    0    0    0
C 1042.45729499 41.53982216 31.67899394     2    250   254   255   256
H 1043.80090322 41.93197329 30.14890044     6    253    0    0    0
H 1040.85910981 40.47502109 30.88171341     6    253    0    0    0
C 1041.72419710 44.19212908 32.55139706     2    253   257   258   259
H 1040.01817811 44.83405659 31.52697277     6    256    0    0    0
H 1041.16381368 44.13585304 34.56536830     6    256    0    0    0
C 1043.87394143 46.16730108 32.41251491     2    256   260   261   262
H 1045.35755062 45.76049026 33.70417628     6    259    0    0    0
H 1044.52051167 45.92292287 30.53716572     6    259    0    0    0
C 1042.92920101 48.89992904 32.95705279     2    259   263   264   265
H 1041.30606140 49.07241805 31.70949085     6    262    0    0    0
H 1042.30188719 49.11283854 34.86403061     6    262    0    0    0
C 1044.99242136 50.81863792 32.29501866     2    262   266   267   268
H 1046.66965297 50.08252589 33.38071149     6    265    0    0    0
H 1045.17328378 50.66425695 30.24616665     6    265    0    0    0
C 1044.20151061 53.58939397 32.80806587     2    265   269   270   271
H 1042.50619126 53.90538509 31.75332796     6    268    0    0    0
H 1043.58495658 53.70891904 34.77344547     6    268    0    0    0
C 1046.25617607 55.44877597 32.29268362     2    268   272   273   274
H 1047.84539373 54.93706854 33.55426837     6    271    0    0    0
H 1046.98747101 55.13844628 30.39727735     6    271    0    0    0
C 1045.59575034 58.24216412 32.37254804     1    271   275   276   277
H 1045.55428872 58.85065943 34.33768724     6    274    0    0    0
H 1043.76568395 58.70025351 31.44871905     6    274    0    0    0
H 1047.05444198 59.20890812 31.21753184     6    274    0    0    0
H 1056.26842273 14.68292328 45.35569096     6     279    0    0    0 
C 1054.34949231 14.87770572 46.27601254     1     278    280    281    282
H 1053.10833986 13.69826321 45.10925409     6     279    0    0    0
H 1054.30860611 14.29104277 48.22838091     6     279    0    0    0
C 1053.47588265 17.61368355 46.17778725     2     279    283    284    285
H 1054.51614822 18.66136018 47.68420350     6     282    0    0    0
H 1054.00044219 18.18883089 44.34863947     6     282    0    0    0
C 1050.67593576 18.24682871 46.64369056     2     282    286   287   288
H 1049.44631909 17.25430211 45.21654423     6     285    0    0    0
H 1050.19287424 17.40794088 48.42421886     6     285    0    0    0
C 1050.12580966 21.01898002 46.62738333     2     285   289   290   291
H 1051.89674101 22.08995313 47.01198874     6    288    0    0    0
H 1049.68954813 21.75471606 44.92093177     6    288    0    0    0
C 1047.92541533 22.03065526 48.22782335     2    288   292   293   294
H 1046.03688615 21.66841889 47.52781176     6    291    0    0    0
H 1048.20009678 21.03045304 50.01997415     6    291    0    0    0
C 1048.03879128 24.81187380 48.80098331     2    291   295   296   297
H 1046.30512235 25.38230529 49.89284870     6    294    0    0    0
H 1049.61837786 24.90923898 50.11748735     6    294    0    0    0
C 1048.67164365 26.66993431 46.60344876     2    294   298   299   300
H 1050.41425677 25.98776192 45.56135680     6    297    0    0    0
H 1047.23264052 26.86599524 45.18849322     6    297    0    0    0
C 1048.79040969 29.47895261 47.49075290     2    297   301   302   303
H 1047.03848597 30.10006313 48.30499584     6    300    0    0    0
H 1050.32382824 29.55252724 48.91620165     6    300    0    0    0
C 1049.67728308 31.23907962 45.39551955     2    300   304   305   306
H 1051.38868545 30.62643517 44.37108124     6    303    0    0    0
H 1048.19938303 31.17247029 43.92430555     6    303    0    0    0
C 1050.18230546 33.85070410 46.47127215     2    303   307   308   309
H 1048.55371596 34.37017109 47.67266353     6    306    0    0    0
H 1051.83848162 33.59805728 47.69433316     6    306    0    0    0
C 1050.32636465 35.73637782 44.19536319     2    306   310   311   312
H 1051.65607672 35.08662249 42.77697446     6    309    0    0    0
H 1048.66012246 36.29795458 43.14293133     6    309    0    0    0
C 1051.10837000 38.19612007 45.32679916     1    309   313   314   315
H 1051.38497898 39.82854967 43.96927137     6    312    0    0    0
H 1052.82166974 37.86970879 46.36615877     6    312    0    0    0
H 1049.90290525 39.10280731 46.72170566     6    312    0    0    0
H 1034.01533368 14.80659126 40.33882713     6     317    0    0    0 
C 1033.13127485 15.00092332 38.44301473     1     316    318    319    320
H 1031.73630272 16.64104688 38.38279015     6     317    0    0    0
H 1034.57500240 15.26581549 37.01803818     6     317    0    0    0
C 1031.55586184 12.60032669 37.66383521     2     317    321    322    323
H 1030.73422485 12.84298967 35.80244730     6     320    0    0    0
H 1032.74637910 10.94891465 37.60612257     6     320    0    0    0
C 1029.55268673 12.01531992 39.66126918     2     320    324   325   326
H 1030.45658521 11.40238959 41.47050454     6     323    0    0    0
H 1028.54428085 13.74201807 40.19936111     6     323    0    0    0
C 1027.86610226 9.96617406 38.79939537     2     323   327   328   329
H 1026.98027460 10.45988345 37.02671362     6    326    0    0    0
H 1028.93036790 8.16959818 38.50291345     6    326    0    0    0
C 1025.89107464 9.37450448 40.82954567     2    326   330   331   332
H 1024.96494388 7.60215786 40.38458548     6    329    0    0    0
H 1026.82655102 9.06772907 42.73663589     6    329    0    0    0
C 1023.91559014 11.50483732 41.30416317     2    329   333   334   335
H 1024.92573020 13.15082440 42.15569199     6    332    0    0    0
H 1022.99717090 12.23140476 39.60525931     6    332    0    0    0
C 1021.95190582 10.76402720 43.32814379     2    332   336   337   338
H 1020.79003526 9.16343326 42.69069573     6    335    0    0    0
H 1022.86814006 9.93879840 44.93461141     6    335    0    0    0
C 1020.39529907 13.01674883 44.42944863     2    335   339   340   341
H 1021.62116942 14.38450446 45.22896151     6    338    0    0    0
H 1019.39423165 13.96560105 42.91966316     6    338    0    0    0
C 1018.35293790 12.12830837 46.56690520     2    338   342   343   344
H 1017.01602302 10.72020471 45.96954136     6    341    0    0    0
H 1019.46592135 11.32538839 48.17785974     6    341    0    0    0
C 1016.89013022 14.35090485 47.72702816     2    341   345   346   347
H 1015.69677373 13.80728320 49.35803372     6    344    0    0    0
H 1018.28954274 15.68677882 48.56373772     6    344    0    0    0
C 1015.17656166 15.76000211 46.10318389     2    344   348   349   350
H 1016.31681511 16.79424483 44.72810779     6    347    0    0    0
H 1013.89950485 14.52899897 45.13669673     6    347    0    0    0
C 1013.65066536 17.76266220 47.64364038     1    347   351   352   353
H 1012.48315418 16.54280316 48.81089690     6    350    0    0    0
H 1012.28929759 18.89101858 46.51274954     6    350    0    0    0
H 1014.78643831 19.10559309 48.75336444     6    350    0    0    0
H 1048.51959623 28.27915355 40.25812912     6     355    0    0    0 
C 1046.94407739 27.17960794 39.41237189     1     354    356    357    358
H 1045.35299361 28.35947375 39.96493220     6     355    0    0    0
H 1046.98072576 27.37159697 37.35576082     6     355    0    0    0
C 1047.25156506 24.39252663 39.93063701     2     355    359    360    361
H 1049.05764122 23.71000418 39.02307271     6     358    0    0    0
H 1047.47980247 24.28637414 42.00232253     6     358    0    0    0
C 1044.96454358 22.72271826 39.57398075     2     358    362   363   364
H 1043.44032739 23.49336268 40.61029316     6     361    0    0    0
H 1044.46409253 22.70686821 37.57562757     6     361    0    0    0
C 1045.36371042 19.88649143 40.12890259     2     361   365   366   367
H 1046.64035828 19.22105834 38.69650160     6    364    0    0    0
H 1046.13750752 19.53848596 42.04785097     6    364    0    0    0
C 1043.02308557 18.33978337 40.02396935     2    364   368   369   370
H 1041.83078170 18.51800746 41.74724603     6    367    0    0    0
H 1041.79248974 18.96917600 38.48438919     6    367    0    0    0
C 1043.56622022 15.43385772 39.64874975     2    367   371   372   373
H 1043.29922160 15.04842374 37.65929143     6    370    0    0    0
H 1045.46843217 15.03590956 40.16677035     6    370    0    0    0
C 1041.66603727 13.44836444 40.75016265     2    370   374   375   376
H 1041.87483318 13.64776050 42.75307335     6    373    0    0    0
H 1039.64589393 14.02809654 40.51057258     6    373    0    0    0
C 1042.18374227 10.75856378 39.88813713     2    373   377   378   379
H 1042.39720953 10.69209065 37.79525362     6    376    0    0    0
H 1044.23018144 10.46593647 40.64694395     6    376    0    0    0
C 1040.26688217 8.73491543 40.84255608     2    376   380   381   382
H 1040.27048719 8.65148902 42.91052193     6    379    0    0    0
H 1038.35500203 9.32981736 40.15072452     6    379    0    0    0
C 1040.85791508 6.00602939 39.74764004     2    379   383   384   385
H 1041.43105646 6.16348497 37.79620459     6    382    0    0    0
H 1042.50531632 5.28036702 40.67623753     6    382    0    0    0
C 1038.64987556 4.10729096 40.02246261     2    382   386   387   388
H 1039.42546374 2.51906832 38.98755318     6    385    0    0    0
H 1038.02987321 3.56987137 41.93023442     6    385    0    0    0
C 1036.21744097 5.04878704 38.80879519     1    385   389   390   391
H 1036.85280567 5.83830326 37.06577154     6    388    0    0    0
H 1035.18423388 6.32495117 40.00896132     6    388    0    0    0
H 1035.04845028 3.27192908 38.28932672     6    388    0    0    0
H 999.16656122 32.02671514 59.05760535     6     393    0    0    0 
C 1000.08322465 33.76037939 59.32570878     1     392    394    395    396
H 998.83740953 35.24174519 60.16320569     6     393    0    0    0
H 1001.69302149 33.48726171 60.68141567     6     393    0    0    0
C 1001.43134193 34.48528379 56.90486397     2     393    397    398    399
H 1002.46562505 32.79106738 56.22882862     6     396    0    0    0
H 999.69141175 34.51648709 55.63499186     6     396    0    0    0
C 1002.89538475 37.07357197 56.84364168     2     396    400   401   402
H 1001.86275680 38.53705720 57.82865371     6     399    0    0    0
H 1004.61888218 36.75691460 57.94327696     6     399    0    0    0
C 1003.77416257 37.73193110 54.20462056     2     399   403   404   405
H 1004.96592767 36.18968455 53.54501756     6    402    0    0    0
H 1002.31167033 37.96359740 52.70000344     6    402    0    0    0
C 1005.52337180 40.00277133 54.04669635     2    402   406   407   408
H 1004.30524063 41.67039409 54.45740254     6    405    0    0    0
H 1007.02888063 39.92617484 55.41336155     6    405    0    0    0
C 1006.56979889 40.46784894 51.44579970     2    405   409   410   411
H 1007.82531322 38.76181742 50.89235426     6    408    0    0    0
H 1005.06558155 40.51461259 49.98148717     6    408    0    0    0
C 1008.26074923 42.76724536 51.18665320     2    408   412   413   414
H 1007.14850057 44.40497258 51.90123578     6    411    0    0    0
H 1009.87093776 42.39374893 52.40526372     6    411    0    0    0
C 1009.11398730 43.18605933 48.48639465     2    411   415   416   417
H 1009.55236527 41.44030408 47.65136603     6    414    0    0    0
H 1007.61426018 44.05032710 47.30644582     6    414    0    0    0
C 1011.54622205 44.66006260 48.47750004     2    414   418   419   420
H 1011.02620033 46.44082912 49.24528392     6    417    0    0    0
H 1012.86802711 43.82428908 49.78991898     6    417    0    0    0
C 1012.77355339 45.03813849 45.89248562     2    417   421   422   423
H 1014.02011920 43.39215109 45.57603713     6    420    0    0    0
H 1011.31832892 44.91703320 44.31059951     6    420    0    0    0
C 1014.51212133 47.42436958 45.68896771     2    420   424   425   426
H 1015.35390700 47.47694357 43.79766214     6    423    0    0    0
H 1013.21355122 49.09267133 45.71324284     6    423    0    0    0
C 1016.48817383 47.71063815 47.77532898     1    423   427   428   429
H 1017.90410094 49.22764576 47.45728552     6    426    0    0    0
H 1017.48285336 45.90010276 47.64352194     6    426    0    0    0
H 1015.87977347 47.79325685 49.62830796     6    426    0    0    0
H 1012.83096118 41.04088958 30.89485655     6     431    0    0    0 
C 1010.97299712 40.65912489 30.18885228     1     430    432    433    434
H 1009.75994490 42.27205615 29.86015298     6     431    0    0    0
H 1011.27675343 39.79762908 28.28157147     6     431    0    0    0
C 1009.44186848 38.85940433 32.00360417     2     431    435    436    437
H 1010.75491957 37.50385788 32.66033976     6     434    0    0    0
H 1008.70068037 39.75837566 33.74650942     6     434    0    0    0
C 1007.35152645 37.49939614 30.62840858     2     434    438   439   440
H 1006.24846738 38.91941826 29.64322155     6     437    0    0    0
H 1008.09151203 36.23082583 29.28048124     6     437    0    0    0
C 1005.40507841 36.04201714 32.31113657     2     437   441   442   443
H 1004.10247406 35.15954705 31.02252990     6    440    0    0    0
H 1006.13907937 34.51956034 33.47850824     6    440    0    0    0
C 1003.76712419 37.91061404 33.77184991     2    440   444   445   446
H 1004.72859862 39.10050842 35.25621110     6    443    0    0    0
H 1003.10869208 39.22472170 32.43966159     6    443    0    0    0
C 1001.29072441 36.61219624 34.93544039     2    443   447   448   449
H 1000.25377172 35.97965312 33.27065843     6    446    0    0    0
H 1001.71941336 35.16115385 36.21855872     6    446    0    0    0
C 999.64789649 38.62094213 36.35989320     2    446   450   451   452
H 999.42503361 40.30772664 35.36908013     6    449    0    0    0
H 997.87642553 37.67623783 36.43437380     6    449    0    0    0
C 1000.56293396 39.28177462 39.03005074     2    449   453   454   455
H 1000.67744280 37.65997047 40.16536053     6    452    0    0    0
H 1002.59144502 39.89084127 38.94548386     6    452    0    0    0
C 998.96729489 41.40139444 40.02757712     2    452   456   457   458
H 999.33625500 43.10185156 39.02381328     6    455    0    0    0
H 996.89570357 40.87730319 39.55097789     6    455    0    0    0
C 999.18194828 41.94982781 42.92380834     2    455   459   460   461
H 997.88104060 43.55881566 43.43032053     6    458    0    0    0
H 998.42818941 40.37387347 43.97569100     6    458    0    0    0
C 1001.90662789 42.56567988 43.85620753     2    458   462   463   464
H 1003.28987177 41.17245207 43.59435175     6    461    0    0    0
H 1002.70986784 44.07809745 42.76238301     6    461    0    0    0
C 1001.79766466 43.37284588 46.71390973     1    461   465   466   467
H 1000.65734138 41.94316630 47.60030103     6    464    0    0    0
H 1001.10215224 45.17993047 46.84735729     6    464    0    0    0
H 1003.60671554 43.32165627 47.51334196     6    464    0    0    0
H 1031.89427514 7.00168781 32.42297189     6     469    0    0    0 
C 1032.08054245 7.44244436 30.42475515     1     468    470    471    472
H 1032.89379420 5.72268327 29.61415062     6     469    0    0    0
H 1030.11165984 7.80414834 30.07102952     6     469    0    0    0
C 1033.69726441 9.83276038 29.97789204     2     469    473    474    475
H 1034.39869491 9.79655476 28.03820418     6     472    0    0    0
H 1032.73591540 11.62630044 30.11040199     6     472    0    0    0
C 1035.96306290 9.92179856 31.77428306     2     472    476   477   478
H 1035.22352000 10.00034967 33.62371646     6     475    0    0    0
H 1037.19222696 8.23271567 31.65159044     6     475    0    0    0
C 1037.22362156 12.53223345 31.18949975     2     475   479   480   481
H 1037.36940608 12.58782459 29.15329022     6    478    0    0    0
H 1036.06797899 14.10875438 31.62706114     6    478    0    0    0
C 1039.88647578 12.60933070 32.47323280     2    478   482   483   484
H 1039.73155935 12.15011930 34.47175212     6    481    0    0    0
H 1041.04081268 11.19252560 31.63364513     6    481    0    0    0
C 1041.15966442 15.20300570 32.20984302     2    481   485   486   487
H 1040.48862667 16.05212182 30.44511620     6    484    0    0    0
H 1040.45507249 16.33152974 33.92490578     6    484    0    0    0
C 1043.99836996 14.94478015 32.10449871     2    484   488   489   490
H 1044.75676632 13.82184330 33.72656939     6    487    0    0    0
H 1044.64772588 13.89282491 30.48130185     6    487    0    0    0
C 1045.54218275 17.45066222 32.07384393     2    487   491   492   493
H 1044.78175643 19.09463040 31.00396135     6    490    0    0    0
H 1045.50356688 17.93865828 34.03136022     6    490    0    0    0
C 1048.24124070 17.20754099 30.91774403     2    490   494   495   496
H 1049.18472529 15.69468590 32.02551990     6    493    0    0    0
H 1048.21191251 16.58516507 28.89380923     6    493    0    0    0
C 1049.68548864 19.73112406 30.93787882     2    493   497   498   499
H 1048.57493446 21.20630116 29.95979083     6    496    0    0    0
H 1049.76021522 20.36490661 32.79149504     6    496    0    0    0
C 1052.32165270 19.50032931 29.63266517     2    496   500   501   502
H 1053.37421643 17.91763401 30.41300238     6    499    0    0    0
H 1051.90743267 18.88075274 27.74284767     6    499    0    0    0
C 1053.70637073 21.93659863 29.57610633     1    499   503   504   505
H 1055.22544669 21.70604504 28.15122839     6    502    0    0    0
H 1054.72973577 22.35894539 31.25170106     6    502    0    0    0
H 1052.39490992 23.50777176 29.38711342     6    502    0    0    0
H 1029.44954776 55.13752768 24.05478228     6     507    0    0    0 
C 1030.63078049 55.19949565 25.80608341     1     506    508    509    510
H 1032.44559934 55.53778638 25.00491462     6     507    0    0    0
H 1029.88510893 56.96332797 26.71532221     6     507    0    0    0
C 1030.47166409 52.96693373 27.58602091     2     507    511    512    513
H 1031.34425610 51.40492415 26.54578865     6     510    0    0    0
H 1031.60476384 53.33569206 29.14667759     6     510    0    0    0
C 1027.70474095 52.64326248 28.18152786     2     510    514   515   516
H 1026.80400567 54.27329944 28.91977287     6     513    0    0    0
H 1026.51848040 52.37808144 26.56749599     6     513    0    0    0
C 1027.07928853 50.51324587 30.04320041     2     513   517   518   519
H 1027.50022656 48.64952248 29.37074818     6    516    0    0    0
H 1028.21442074 50.71806328 31.84518149     6    516    0    0    0
C 1024.17626481 50.61018138 30.78721328     2    516   520   521   522
H 1023.65611726 52.45345416 31.44974943     6    519    0    0    0
H 1022.95653882 50.36265869 29.26004648     6    519    0    0    0
C 1023.44529617 48.81511546 32.95388961     2    519   523   524   525
H 1023.45424540 46.88073834 32.38471455     6    522    0    0    0
H 1024.57897129 49.07296030 34.67158711     6    522    0    0    0
C 1020.58901578 49.40980066 33.67221923     2    522   526   527   528
H 1020.41037930 51.20681488 34.56778614     6    525    0    0    0
H 1019.43842154 49.97551824 31.99737811     6    525    0    0    0
C 1019.12690184 47.08506801 34.81334076     2    525   529   530   531
H 1019.27512329 45.41668618 33.54360750     6    528    0    0    0
H 1019.97894775 46.82628802 36.68279373     6    528    0    0    0
C 1016.29456593 47.72596380 34.96291696     2    528   532   533   534
H 1016.37540915 49.31235073 36.26325637     6    531    0    0    0
H 1015.59332735 48.18845961 33.08566632     6    531    0    0    0
C 1014.84842339 45.62380347 36.18064023     2    531   535   536   537
H 1014.72683163 44.08458737 34.96669448     6    534    0    0    0
H 1016.08578280 45.05807818 37.62157998     6    534    0    0    0
C 1012.34919508 46.44040464 37.47675995     2    534   538   539   540
H 1012.64641445 47.78875831 39.03073778     6    537    0    0    0
H 1010.91321211 47.48986487 36.13818415     6    537    0    0    0
C 1011.06231812 44.19760059 38.52856153     1    537   541   542   543
H 1009.30581808 44.58268702 39.55579558     6    540    0    0    0
H 1012.32735994 43.27063536 39.83849577     6    540    0    0    0
H 1010.51091417 42.79639112 37.12403012     6    540    0    0    0
H 1009.56536264 29.47673316 45.03327965     6     545    0    0    0 
C 1009.66314676 29.19430008 47.10085753     1     544    546    547    548
H 1011.49163843 29.96893114 47.82853297     6     545    0    0    0
H 1008.13015153 30.15690875 47.87688236     6     545    0    0    0
C 1009.46041976 26.44812529 48.11755021     2     545    549    550    551
H 1007.76095336 25.48237512 47.45407238     6     548    0    0    0
H 1010.99813836 25.57075968 47.20987947     6     548    0    0    0
C 1009.79309131 26.22443755 51.03360778     2     548    552   553   554
H 1011.03128777 27.54241187 51.84219609     6     551    0    0    0
H 1007.92189690 26.50477065 51.99554080     6     551    0    0    0
C 1010.71588907 23.70104002 52.07335542     2     551   555   556   557
H 1009.27904609 22.36316730 51.87395673     6    554    0    0    0
H 1012.26713547 23.19671113 50.92604547     6    554    0    0    0
C 1011.52678524 23.82201646 54.85241435     2    554   558   559   560
H 1012.92302937 25.23366250 54.99157215     6    557    0    0    0
H 1010.13272355 24.40736014 56.26613104     6    557    0    0    0
C 1012.45894970 21.21769039 55.74653487     2    557   561   562   563
H 1010.95317592 19.85817957 55.43950068     6    560    0    0    0
H 1013.84945946 20.46760206 54.37824490     6    560    0    0    0
C 1013.37943753 21.14871787 58.61807162     2    560   564   565   566
H 1014.89499501 22.56593861 58.75366477     6    563    0    0    0
H 1011.72494388 21.58693803 59.73915033     6    563    0    0    0
C 1014.17128782 18.57588900 59.41003124     2    563   567   568   569
H 1012.71590798 17.20389442 59.05009029     6    566    0    0    0
H 1015.78625329 18.09505528 58.27778028     6    566    0    0    0
C 1015.10496928 18.59766799 62.25589059     2    566   570   571   572
H 1016.47550344 20.04373042 62.37407951     6    569    0    0    0
H 1013.70949817 19.18882139 63.59727862     6    569    0    0    0
C 1016.44910234 16.05327848 62.77233070     2    569   573   574   575
H 1015.43715292 14.55332176 61.97135900     6    572    0    0    0
H 1018.31994023 16.00725883 61.79265156     6    572    0    0    0
C 1016.81043526 15.65991768 65.66477131     2    572   576   577   578
H 1014.96396674 15.19097140 66.62080493     6    575    0    0    0
H 1018.19168820 14.10554583 65.84743812     6    575    0    0    0
C 1018.18825637 17.79254358 67.12036262     1    575   579   580   581
H 1019.89401518 18.23527803 66.09923816     6    578    0    0    0
H 1018.95019900 17.18501486 69.01514279     6    578    0    0    0
H 1017.18082823 19.42185532 67.35153761     6    578    0    0    0
H 1048.84644161 10.85694031 46.70597256     6     583    0    0    0 
C 1047.74313946 10.99904093 48.42190186     1     582    584    585    586
H 1049.13867364 10.75244357 50.07945046     6     583    0    0    0
H 1047.00519645 12.92919339 48.78708924     6     583    0    0    0
C 1045.65058982 8.94021174 48.54440953     2     583    587    588    589
H 1044.23734039 9.07916184 47.04142846     6     586    0    0    0
H 1046.64449415 7.13805718 48.48726169     6     586    0    0    0
C 1044.23974485 9.16398605 50.99588910     2     586    590   591   592
H 1045.43660881 8.87350667 52.69440763     6     589    0    0    0
H 1043.39390140 10.94433610 51.05457284     6     589    0    0    0
C 1042.01284458 7.28087817 51.19311039     2     589   593   594   595
H 1040.57947382 7.74050752 49.79886822     6    592    0    0    0
H 1042.53432311 5.42661622 50.75045714     6    592    0    0    0
C 1040.60722715 7.65880541 53.75029512     2    592   596   597   598
H 1042.00136780 6.88001023 54.92328441     6    595    0    0    0
H 1040.29262943 9.61727367 53.93743424     6    595    0    0    0
C 1038.19347631 6.10782579 53.69820303     2    595   599   600   601
H 1036.97476617 7.06268881 52.24233163     6    598    0    0    0
H 1038.58073230 4.21598195 53.03603932     6    598    0    0    0
C 1037.06904856 6.14914936 56.38361965     2    598   602   603   604
H 1038.46690191 5.40979066 57.67113023     6    601    0    0    0
H 1036.63718631 8.21401875 57.09028252     6    601    0    0    0
C 1034.60658407 4.94592157 56.55322770     2    601   605   606   607
H 1033.50220243 5.29322291 54.86977861     6    604    0    0    0
H 1035.16605456 2.91188759 56.22796158     6    604    0    0    0
C 1033.14334064 5.26272156 59.12075640     2    604   608   609   610
H 1034.37020068 4.61436470 60.71953527     6    607    0    0    0
H 1032.84018811 7.28857403 59.38079810     6    607    0    0    0
C 1030.61666791 3.97513206 59.00350042     2    607   611   612   613
H 1029.62292684 4.99068766 57.46816433     6    610    0    0    0
H 1030.81706701 2.13345357 58.30820349     6    610    0    0    0
C 1029.31845987 3.98648619 61.51856257     2    610   614   615   616
H 1030.58242830 2.98995515 62.74804297     6    613    0    0    0
H 1029.20150322 5.84605012 62.41453768     6    613    0    0    0
C 1026.52266253 3.12127243 61.26296762     1    613   617   618   619
H 1025.41363950 3.34747712 62.93896556     6    616    0    0    0
H 1026.81833942 1.07500428 60.96979836     6    616    0    0    0
H 1025.75317714 4.24286841 59.77255073     6    616    0    0    0
H 1022.07426769 46.15203326 65.34743891     6     621    0    0    0 
C 1022.81354775 47.72016046 64.36759127     1     620    622    623    624
H 1022.08598604 47.50698401 62.43537748     6     621    0    0    0
H 1021.99325621 49.28205218 65.02622764     6     621    0    0    0
C 1025.85415522 47.67274059 64.14766105     2     621    625    626    627
H 1026.72960808 49.27007164 63.27235164     6     624    0    0    0
H 1026.59325319 47.81600192 66.07118560     6     624    0    0    0
C 1027.14469317 45.35860543 62.90537780     2     624    628   629   630
H 1026.61904051 43.85493596 64.13323242     6     627    0    0    0
H 1026.16263629 44.85627800 61.15273545     6     627    0    0    0
C 1030.06225489 45.34517346 62.33788651     2     627   631   632   633
H 1030.50765629 43.61699059 61.29488216     6    630    0    0    0
H 1030.57610238 46.79512682 61.05042620     6    630    0    0    0
C 1031.76099162 45.58370443 64.83026882     2    630   634   635   636
H 1031.35298260 47.58390456 65.35343885     6    633    0    0    0
H 1031.11085190 44.36549184 66.35465745     6    633    0    0    0
C 1034.62824149 45.13298839 64.49800303     2    633   637   638   639
H 1034.95392849 43.09934728 64.60037206     6    636    0    0    0
H 1035.10318354 45.57185851 62.44437731     6    636    0    0    0
C 1036.30755102 46.34644320 66.48429411     2    636   640   641   642
H 1036.30233213 48.36569849 66.11101656     6    639    0    0    0
H 1035.44009571 46.17361082 68.29823705     6    639    0    0    0
C 1039.02907088 45.32393845 66.57097282     2    639   643   644   645
H 1038.75486111 43.28239403 66.88547573     6    642    0    0    0
H 1040.06125057 45.57982663 64.77612121     6    642    0    0    0
C 1040.52450158 46.41875048 68.73887740     2    642   646   647   648
H 1040.75596706 48.44858246 68.56864637     6    645    0    0    0
H 1039.38351746 46.13998036 70.48188217     6    645    0    0    0
C 1043.05478318 45.33012765 69.21075311     2    645   649   650   651
H 1042.62567923 43.28790816 69.24824160     6    648    0    0    0
H 1044.37727173 45.63877999 67.61435079     6    648    0    0    0
C 1044.41546755 46.01849811 71.75249620     2    648   652   653   654
H 1044.74403326 48.04481721 71.88837756     6    651    0    0    0
H 1043.14100604 45.77497325 73.30212706     6    651    0    0    0
C 1046.97532825 44.55528918 72.03630213     1    651   655   656   657
H 1048.66588824 45.23260771 71.03024634     6    654    0    0    0
H 1046.67970848 42.52630056 72.03591414     6    654    0    0    0
H 1047.47064595 44.88409794 74.02338227     6    654    0    0    0
H 1040.78787921 17.49017122 48.94883207     6     659    0    0    0 
C 1041.89734583 16.02272446 49.90030597     1     658    660    661    662
H 1040.93645954 14.35432856 49.42797508     6     659    0    0    0
H 1043.74095853 16.08634885 48.81691853     6     659    0    0    0
C 1042.34756883 16.57380084 52.76753646     2     659    663    664    665
H 1043.26985931 14.90814357 53.66683253     6     662    0    0    0
H 1043.69738102 18.05104516 52.85642503     6     662    0    0    0
C 1040.05235993 17.27754114 54.27032824     2     662    666   667   668
H 1040.64621375 18.50977324 55.82846051     6     665    0    0    0
H 1038.90335633 18.58649117 53.25294462     6     665    0    0    0
C 1038.25929232 15.14988784 55.18449661     2     665   669   670   671
H 1037.81254064 14.00316591 53.48481369     6    668    0    0    0
H 1039.19265828 13.81929102 56.50411019     6    668    0    0    0
C 1035.77553304 16.13049870 56.33419444     2    668   672   673   674
H 1036.26999146 17.08151156 58.11018801     6    671    0    0    0
H 1034.74470554 17.42952722 55.12740144     6    671    0    0    0
C 1033.84434444 14.07523413 56.67709251     2    671   675   676   677
H 1033.13126028 13.38062004 54.85407572     6    674    0    0    0
H 1034.67216993 12.49087636 57.79078241     6    674    0    0    0
C 1031.56907005 14.85745568 58.15457761     2    674   678   679   680
H 1032.42405275 15.95568619 59.58331027     6    677    0    0    0
H 1030.49883868 16.17324860 57.11794747     6    677    0    0    0
C 1029.90344188 12.57758140 58.94239421     2    677   681   682   683
H 1028.96302659 11.83668902 57.21673502     6    680    0    0    0
H 1030.83428238 11.14013267 59.89259914     6    680    0    0    0
C 1028.09365673 13.20131484 61.10363492     2    680   684   685   686
H 1029.32735243 13.61100251 62.74060364     6    683    0    0    0
H 1027.22296360 14.91716257 60.72682793     6    683    0    0    0
C 1026.20382948 11.18381222 61.84376268     2    683   687   688   689
H 1025.02912363 11.03137243 60.25748495     6    686    0    0    0
H 1027.17222976 9.38802460 61.87755513     6    686    0    0    0
C 1024.62594463 12.02519184 64.22591105     2    686   690   691   692
H 1025.81837430 12.40624249 65.89463890     6    689    0    0    0
H 1023.58447270 13.75852805 63.80430480     6    689    0    0    0
C 1022.77382878 10.11299405 65.34893401     1    689   693   694   695
H 1021.93383810 10.60306257 67.22603131     6    692    0    0    0
H 1023.79823454 8.25783455 65.85550217     6    692    0    0    0
H 1021.02484468 9.62528531 64.20135207     6    692    0    0    0
H 1005.64516420 25.63510373 61.63243796     6     697    0    0    0 
C 1006.77029790 23.92396859 61.17415342     1     696    698    699    700
H 1007.95767488 24.76980002 59.81159993     6     697    0    0    0
H 1007.70155682 23.48738346 62.83427056     6     697    0    0    0
C 1005.27996500 21.57676289 60.23298425     2     697    701    702    703
H 1006.39060767 19.92593167 60.39176637     6     700    0    0    0
H 1003.62689351 21.54176628 61.67278619     6     700    0    0    0
C 1004.60924598 21.92562809 57.27527794     2     700    704   705   706
H 1006.36493219 21.92265410 56.13328324     6     703    0    0    0
H 1003.71942965 20.20865929 56.66788799     6     703    0    0    0
C 1003.20321031 24.35132590 56.53140871     2     703   707   708   709
H 1001.46300727 24.42620791 57.70147730     6    706    0    0    0
H 1004.18200568 26.06299145 56.86212313     6    706    0    0    0
C 1002.51229454 24.16614644 53.71996278     2    706   710   711   712
H 1004.06702632 23.61060256 52.76583529     6    709    0    0    0
H 1001.08442160 22.56078484 53.58809424     6    709    0    0    0
C 1001.28916714 26.66352634 52.68668710     2    709   713   714   715
H 999.73051359 27.19481737 53.87516044     6    712    0    0    0
H 1002.65572874 28.05026134 52.87115289     6    712    0    0    0
C 1000.14473411 26.38019910 50.05535902     2    712   716   717   718
H 1001.53646015 25.64076155 48.84056050     6    715    0    0    0
H 999.00370173 24.75371327 50.20866323     6    715    0    0    0
C 998.62784040 28.65518318 49.23024706     2    715   719   720   721
H 996.78913659 28.75325090 50.14913465     6    718    0    0    0
H 999.57811955 30.34794284 49.84652823     6    718    0    0    0
C 997.92484393 28.59994089 46.36798130     2    718   722   723   724
H 999.39124184 28.75228075 44.88133992     6    721    0    0    0
H 996.87587830 26.96727047 45.83957589     6    721    0    0    0
C 996.11042505 30.89210821 45.97835121     2    721   725   726   727
H 994.70075239 31.12972831 47.52095618     6    724    0    0    0
H 997.22118360 32.49168307 45.81551469     6    724    0    0    0
C 994.63766660 30.29476500 43.59502234     2    724   728   729   730
H 994.36606349 32.03501042 42.41002455     6    727    0    0    0
H 995.28626878 28.85519730 42.26124828     6    727    0    0    0
C 991.92907605 29.36708933 44.16396997     1    727   731   732   733
H 991.06740280 28.64242985 42.40719236     6    730    0    0    0
H 990.80903116 30.63435496 45.16763527     6    730    0    0    0
H 991.97423745 27.65983411 45.39771527     6    730    0    0    0
H 1019.93618472 5.14442592 37.72342034     6     735    0    0    0 
C 1020.04248544 6.42049766 36.04128851     1     734    736    737    738
H 1018.85745142 5.45631401 34.65868285     6     735    0    0    0
H 1019.25386382 8.13153428 36.62927094     6     735    0    0    0
C 1022.66321251 6.46054402 34.87295411     2     735    739    740    741
H 1023.72868351 7.33143731 36.40505903     6     738    0    0    0
H 1023.64134994 4.65606382 34.65506432     6     738    0    0    0
C 1022.77115088 8.17699421 32.58390941     2     738    742   743   744
H 1024.82979912 8.39766092 32.20438654     6     741    0    0    0
H 1022.08316622 7.06624861 30.84512425     6     741    0    0    0
C 1021.35030045 10.77838537 32.81107169     2     741   745   746   747
H 1019.29125091 10.73860908 33.07208478     6    744    0    0    0
H 1021.85057992 11.55378568 34.66852462     6    744    0    0    0
C 1022.32116818 12.76302261 30.78065021     2    744   748   749   750
H 1022.47520945 11.47223736 29.03299516     6    747    0    0    0
H 1020.88612485 14.20866585 30.55547313     6    747    0    0    0
C 1024.97389549 13.97477749 31.36019158     2    747   751   752   753
H 1024.88007959 14.99424629 33.20869122     6    750    0    0    0
H 1026.50085143 12.57395391 31.65467011     6    750    0    0    0
C 1025.63420538 15.83436718 29.25575468     2    750   754   755   756
H 1024.48188537 15.36534253 27.59568369     6    753    0    0    0
H 1025.02149791 17.63344340 29.61967955     6    753    0    0    0
C 1028.59561193 15.82720411 28.67824837     2    753   757   758   759
H 1029.62422272 16.35647941 30.35858631     6    756    0    0    0
H 1029.17575810 13.87475217 28.32131872     6    756    0    0    0
C 1029.28603117 17.62453244 26.54710334     2    756   760   761   762
H 1027.73461869 17.46430415 25.10591742     6    759    0    0    0
H 1029.34314027 19.67128696 27.07016481     6    759    0    0    0
C 1031.92244331 16.97495804 25.43110627     2    759   763   764   765
H 1033.11511457 16.02168801 26.87263540     6    762    0    0    0
H 1031.37598123 15.96534222 23.67726673     6    762    0    0    0
C 1033.18784399 19.38926607 24.41678836     2    762   766   767   768
H 1032.37958564 19.97594711 22.56010791     6    765    0    0    0
H 1033.22689211 20.82030450 25.82592782     6    765    0    0    0
C 1035.96198672 18.48335312 23.78963399     1    765   769   770   771
H 1037.16521671 18.00561617 25.43226502     6    768    0    0    0
H 1037.17079982 19.92735768 22.81717403     6    768    0    0    0
H 1036.02936219 17.06190151 22.33831633     6    768    0    0    0
H 1036.54419068 53.79216876 60.55589910     6     773    0    0    0 
C 1035.84892120 55.61572593 61.37569456     1     772    774    775    776
H 1037.04178881 55.94959364 63.05321013     6     773    0    0    0
H 1036.23607162 56.92459824 59.78992539     6     773    0    0    0
C 1032.99649236 55.64555024 61.79067498     2     773    777    778    779
H 1032.52761737 54.30415648 63.23973429     6     776    0    0    0
H 1032.37509708 57.55096324 62.34780513     6     776    0    0    0
C 1031.42284595 54.71641994 59.40473351     2     776    780   781   782
H 1031.86400873 56.13172393 57.93849191     6     779    0    0    0
H 1032.12889672 52.77169503 58.88193643     6     779    0    0    0
C 1028.60797829 54.65548838 59.90227091     2     779   783   784   785
H 1028.29964468 53.37888601 61.52532392     6    782    0    0    0
H 1028.12520388 56.56633609 60.41536880     6    782    0    0    0
C 1027.08033417 53.73616545 57.63321738     2    782   786   787   788
H 1027.13632774 55.27352997 56.20048623     6    785    0    0    0
H 1027.90476659 52.06333947 56.75154074     6    785    0    0    0
C 1024.26178029 53.34245348 58.40802421     2    785   789   790   791
H 1024.18923984 51.96668512 59.84813751     6    788    0    0    0
H 1023.83919233 55.24377728 59.29053706     6    788    0    0    0
C 1022.20281476 52.91695703 56.33198492     2    788   792   793   794
H 1022.72833965 54.17275771 54.78931888     6    791    0    0    0
H 1022.77789866 50.87984755 55.76088898     6    791    0    0    0
C 1019.41926875 52.76118510 57.36282842     2    791   795   796   797
H 1019.39018935 50.91281556 58.30625416     6    794    0    0    0
H 1019.42641651 54.16763473 58.91115073     6    794    0    0    0
C 1017.37372651 53.03051031 55.44246509     2    794   798   799   800
H 1017.21771558 55.17190569 55.36422223     6    797    0    0    0
H 1017.99260546 52.34235043 53.62243316     6    797    0    0    0
C 1014.82074633 51.92987579 56.07258154     2    797   801   802   803
H 1015.17870804 50.10163149 56.67534033     6    800    0    0    0
H 1013.94994615 52.45526332 57.89620525     6    800    0    0    0
C 1013.08877333 51.87587001 53.79550412     2    800   804   805   806
H 1012.92516456 53.57441875 52.72205767     6    803    0    0    0
H 1013.64196043 50.48286927 52.47100938     6    803    0    0    0
C 1010.37048807 51.50609755 54.61131797     1    803   807   808   809
H 1010.05439980 49.60746434 55.40902290     6    806    0    0    0
H 1009.26791191 51.35598450 52.96951974     6    806    0    0    0
H 1009.73576750 52.85901409 56.01272382     6    806    0    0    0
H 1038.86553569 27.80683268 41.93288797     6     811    0    0    0 
C 1039.62662949 27.30474387 43.81524073     1     810    812    813    814
H 1038.15883442 25.96730538 44.53353852     6     811    0    0    0
H 1041.18967736 26.20980058 43.51834389     6     811    0    0    0
C 1039.92451548 29.85293327 45.20378792     2     811    815    816    817
H 1038.06001062 30.68419151 45.63057775     6     814    0    0    0
H 1040.80897162 29.83652731 47.14342480     6     814    0    0    0
C 1041.36082431 31.62543696 43.54716167     2     814    818   819   820
H 1043.38239636 31.02053250 43.45271470     6     817    0    0    0
H 1040.75105258 31.45116549 41.61678556     6     817    0    0    0
C 1041.37068569 34.23093472 44.44595238     2     817   821   822   823
H 1039.44535631 34.95025012 45.05442683     6    820    0    0    0
H 1042.62885022 34.30234215 46.19642371     6    820    0    0    0
C 1042.46818311 35.97201030 42.50451464     2    820   824   825   826
H 1044.26339767 35.14322318 42.07258209     6    823    0    0    0
H 1041.21327588 35.86725315 40.93248883     6    823    0    0    0
C 1042.77945706 38.80607528 43.45696389     2    823   827   828   829
H 1040.97979547 39.66050991 43.69460425     6    826    0    0    0
H 1043.55631304 38.84018784 45.33279491     6    826    0    0    0
C 1044.52170616 40.12260021 41.65791325     2    826   830   831   832
H 1046.19265433 39.03119571 41.29773797     6    829    0    0    0
H 1043.57714849 40.30793296 39.97382530     6    829    0    0    0
C 1045.20262992 42.76896080 42.56928917     2    829   833   834   835
H 1043.62108668 43.95492238 43.03514679     6    832    0    0    0
H 1046.41171218 42.66507605 44.29277427     6    832    0    0    0
C 1046.98470259 44.11867870 40.72693732     2    832   836   837   838
H 1048.58849662 42.85060583 40.57420202     6    835    0    0    0
H 1045.99899127 44.21956741 38.98690006     6    835    0    0    0
C 1047.54258706 46.79897898 41.49479156     2    835   839   840   841
H 1045.64627766 47.61287149 41.75723010     6    838    0    0    0
H 1048.18650070 46.96374583 43.47952697     6    838    0    0    0
C 1049.05312108 48.70078211 39.85212474     2    838   842   843   844
H 1051.01063957 48.03354477 39.50851497     6    841    0    0    0
H 1047.98623633 48.87902379 38.06163958     6    841    0    0    0
C 1049.42890273 51.22637691 41.10474550     1    841   845   846   847
H 1047.70839526 51.98327430 41.79219200     6    844    0    0    0
H 1050.34279600 52.33851464 39.75958383     6    844    0    0    0
H 1050.64634321 50.92379085 42.68473196     6    844    0    0    0
H 1030.69342951 1.95432188 73.70158966     6     849    0    0    0 
C 1029.80934829 1.17212384 71.80752788     1     848    850    851    852
H 1030.33533115 -0.86947727 71.29612541     6     849    0    0    0
H 1027.85115732 1.05728887 72.35904581     6     849    0    0    0
C 1029.94774687 2.98548482 69.72491510     2     849    853    854    855
H 1031.91161789 2.89336380 68.86224178     6     852    0    0    0
H 1028.80358630 2.25490955 68.22712809     6     852    0    0    0
C 1029.14008453 5.68076241 70.34454099     2     852    856   857   858
H 1027.02085666 5.79685623 70.73425578     6     855    0    0    0
H 1029.86024012 6.02984237 72.22024152     6     855    0    0    0
C 1029.81074624 7.73070166 68.44793605     2     855   859   860   861
H 1029.06436791 7.14008829 66.60661548     6    858    0    0    0
H 1028.64805347 9.33672448 68.80445842     6    858    0    0    0
C 1032.55092203 8.61665796 68.59198431     2    858   862   863   864
H 1032.82434813 9.81271246 70.24782949     6    861    0    0    0
H 1033.78554649 7.00473809 68.86206835     6    861    0    0    0
C 1033.22966249 10.20104240 66.09413777     2    861   865   866   867
H 1032.60494913 9.22843624 64.39769844     6    864    0    0    0
H 1031.86333212 11.78076702 66.09338300     6    864    0    0    0
C 1036.18080227 10.98378167 65.59098804     2    864   868   869   870
H 1037.06933360 12.17898337 67.24619847     6    867    0    0    0
H 1037.28910475 9.27671143 65.35025747     6    867    0    0    0
C 1036.64647331 12.69093399 63.17032772     2    867   871   872   873
H 1035.96883342 11.76465997 61.62030296     6    870    0    0    0
H 1035.45643263 14.37432995 63.42685159     6    870    0    0    0
C 1039.48171947 13.37111951 62.91585544     2    870   874   875   876
H 1039.47407862 14.88244541 61.61737493     6    873    0    0    0
H 1040.11260533 14.20659520 64.77748722     6    873    0    0    0
C 1041.06603021 11.20596492 61.74796559     2    873   877   878   879
H 1041.23552951 9.33873490 62.67294239     6    876    0    0    0
H 1040.47572696 10.95193780 59.74291213     6    876    0    0    0
C 1043.70173075 12.22904033 61.38091016     2    876   880   881   882
H 1043.66252971 14.18329013 60.69170083     6    879    0    0    0
H 1044.70052399 12.09279045 63.16795725     6    879    0    0    0
C 1045.24637202 10.79652634 59.40301431     1    879   883   884   885
H 1044.28624385 10.25997317 57.70697164     6    882    0    0    0
H 1045.54359100 8.93388155 60.07832514     6    882    0    0    0
H 1047.32162355 11.56040700 59.23554311     6    882    0    0    0
H 1033.82152612 35.44653377 51.09113378     6     887    0    0    0 
C 1033.49904657 35.77459262 49.01528818     1     886    888    889    890
H 1032.42823646 37.47242999 48.93109170     6     887    0    0    0
H 1035.39762754 35.88038224 48.13553026     6     887    0    0    0
C 1032.11995814 33.33773271 48.16453355     2     887    891    892    893
H 1030.17765125 33.33679812 48.95267866     6     890    0    0    0
H 1031.88076558 33.35081119 46.07693403     6     890    0    0    0
C 1033.32581328 30.88254069 49.08342151     2     890    894   895   896
H 1035.28958605 30.74842668 48.51932181     6     893    0    0    0
H 1033.45194116 30.84708775 51.20492073     6     893    0    0    0
C 1031.91979157 28.55874218 48.19603898     2     893   897   898   899
H 1029.91340114 28.68658697 48.51580694     6    896    0    0    0
H 1032.23749555 28.54340384 46.20810400     6    896    0    0    0
C 1032.89644805 25.99927430 49.32719473     2    896   900   901   902
H 1034.93104673 26.22312852 49.82769174     6    899    0    0    0
H 1031.82750225 25.40580065 50.99423291     6    899    0    0    0
C 1032.38729093 23.76613812 47.62985439     2    899   903   904   905
H 1030.22845272 23.52988674 47.40350435     6    902    0    0    0
H 1033.03156201 24.39447923 45.81372567     6    902    0    0    0
C 1033.71774455 21.37060361 48.69452538     2    902   906   907   908
H 1035.55908614 21.93798508 48.47145898     6    905    0    0    0
H 1033.42203325 21.24371742 50.70762983     6    905    0    0    0
C 1033.12697714 18.96407232 47.23468595     2    905   909   910   911
H 1031.16573608 18.37895651 47.21672101     6    908    0    0    0
H 1033.69189073 19.14076203 45.21695150     6    908    0    0    0
C 1034.82738752 16.79529687 47.99685835     2    908   912   913   914
H 1036.72309858 16.92612936 47.34160800     6    911    0    0    0
H 1035.08520518 16.81942085 49.98760638     6    911    0    0    0
C 1033.87311379 14.16365995 47.16467103     2    911   915   916   917
H 1032.12848218 13.71906880 47.92241999     6    914    0    0    0
H 1033.52532229 14.46149250 45.25010875     6    914    0    0    0
C 1036.03453986 12.28037627 47.44054526     2    914   918   919   920
H 1037.71419603 12.91921970 46.29880987     6    917    0    0    0
H 1036.53019939 12.04066596 49.36701877     6    917    0    0    0
C 1035.21214300 9.68088768 46.44859465     1    917   921   922   923
H 1034.68783238 9.88010853 44.46858670     6    920    0    0    0
H 1033.48222409 9.25520721 47.60376278     6    920    0    0    0
H 1036.63064238 8.14122148 46.74703953     6    920    0    0    0
H 1034.01316267 23.33335672 70.21406553     6     925    0    0    0 
C 1035.02962708 25.14974889 70.69622022     1     924    926    927    928
H 1033.51952557 26.41018771 71.42896316     6     925    0    0    0
H 1036.25530794 24.40651004 72.08188033     6     925    0    0    0
C 1036.35188921 26.38717370 68.37851595     2     925    929    930    931
H 1034.95562094 26.32847734 66.92597723     6     928    0    0    0
H 1036.76191487 28.33919907 68.89326802     6     928    0    0    0
C 1038.52191488 24.78500688 67.41356160     2     928    932   933   934
H 1040.11682026 24.78294822 68.82562899     6     931    0    0    0
H 1037.72074191 22.89446104 67.40340747     6     931    0    0    0
C 1039.40792253 25.24751916 64.68843516     2     931   935   936   937
H 1037.82425588 25.45043545 63.43687051     6    934    0    0    0
H 1040.25607455 27.20214648 64.42288525     6    934    0    0    0
C 1041.19767832 23.04626794 63.61896219     2    934   938   939   940
H 1042.75262991 22.63552325 64.99939430     6    937    0    0    0
H 1040.06721796 21.37496219 63.22520483     6    937    0    0    0
C 1042.39300905 23.98483923 61.19335620     2    937   941   942   943
H 1040.98771384 24.54753325 59.79724140     6    940    0    0    0
H 1043.48655600 25.77125754 61.37028184     6    940    0    0    0
C 1043.85386902 21.98032985 59.92197327     2    940   944   945   946
H 1043.05900814 20.12019087 60.17748012     6    943    0    0    0
H 1043.83779122 22.33038611 57.88504921     6    943    0    0    0
C 1046.72810073 21.90237624 60.59569227     2    943   947   948   949
H 1047.87214391 23.23812750 59.34724743     6    946    0    0    0
H 1046.93465380 22.55370531 62.51458020     6    946    0    0    0
C 1047.78757066 19.25960637 60.33195043     2    946   950   951   952
H 1046.66570070 18.01676272 61.61776904     6    949    0    0    0
H 1047.63196577 18.49417228 58.36947112     6    949    0    0    0
C 1050.47486044 19.19694441 61.31262623     2    949   953   954   955
H 1051.72333074 20.07922391 59.99954495     6    952    0    0    0
H 1050.77273551 20.48682573 62.94967351     6    952    0    0    0
C 1051.45609651 16.52772718 61.92433233     2    952   956   957   958
H 1050.17988377 15.53775548 63.30495569     6    955    0    0    0
H 1051.42336606 15.35371913 60.30825724     6    955    0    0    0
C 1054.01753307 16.66831768 63.01034090     1    955   959   960   961
H 1054.73642229 14.71440181 63.37891043     6    958    0    0    0
H 1054.12626425 17.48264546 64.88278469     6    958    0    0    0
H 1055.27362835 17.65814316 61.75127499     6    958    0    0    0
H 1027.01829947 31.13565461 35.33233196     6     963    0    0    0 
C 1025.23515664 30.18862667 35.34215906     1     962    964    965    966
H 1025.04866894 29.03722127 33.67779207     6     963    0    0    0
H 1025.14619726 28.97282829 37.06294926     6     963    0    0    0
C 1022.98631155 32.05684309 35.46626507     2     963    967    968    969
H 1023.18934450 33.34329981 36.99219236     6     966    0    0    0
H 1023.24083266 33.44829032 33.94279855     6     966    0    0    0
C 1020.36505774 30.83971508 35.80708501     2     966    970   971   972
H 1019.65003957 29.81164420 34.12435091     6     969    0    0    0
H 1020.80774051 29.54720774 37.34066238     6     969    0    0    0
C 1018.32252781 32.84596440 36.63124769     2     969   973   974   975
H 1019.04626525 34.24703925 37.95437084     6    972    0    0    0
H 1017.95390750 33.99879215 35.02839363     6    972    0    0    0
C 1015.97162882 31.59555864 37.64891819     2    972   976   977   978
H 1015.53948526 29.83634660 36.63201059     6    975    0    0    0
H 1016.07931043 31.06180087 39.68108745     6    975    0    0    0
C 1013.72617520 33.45384423 37.26996943     2    975   979   980   981
H 1014.43708864 35.41668079 37.38494222     6    978    0    0    0
H 1012.84687160 33.23394430 35.38548230     6    978    0    0    0
C 1011.69075669 33.43666391 39.40080650     2    978   982   983   984
H 1010.72292272 31.66240457 39.44975686     6    981    0    0    0
H 1012.64048583 33.66824088 41.22046162     6    981    0    0    0
C 1009.83191348 35.58953651 38.88401325     2    981   985   986   987
H 1010.38470924 37.56266063 39.19494623     6    984    0    0    0
H 1009.51112711 35.35273637 36.87597000     6    984    0    0    0
C 1007.22119699 35.04502871 39.95639353     2    984   988   989   990
H 1005.73792615 36.25381251 39.12504387     6    987    0    0    0
H 1006.63280774 33.15221072 39.61610918     6    987    0    0    0
C 1007.32241628 35.68013586 42.73628259     2    987   991   992   993
H 1008.94518895 35.09460374 43.70096283     6    990    0    0    0
H 1007.23785577 37.59599686 42.95970569     6    990    0    0    0
C 1005.08690122 34.75805625 44.24432947     2    990   994   995   996
H 1003.30339126 35.26602412 43.26521975     6    993    0    0    0
H 1005.21261098 32.82789252 44.32144869     6    993    0    0    0
C 1004.83225265 35.78517358 46.97465189     1    993   997   998   999
H 1006.65270873 35.73073418 47.84958524     6    996    0    0    0
H 1003.70668924 34.59578848 48.20093015     6    996    0    0    0
H 1003.84334074 37.64982650 47.03318216     6    996    0    0    0
H 1038.78183098 35.10770797 33.15645682     6     1001    0    0    0 
C 1037.50756276 36.02830116 31.74478549     1     1000    1002    1003    1004
H 1037.77933659 38.07824491 32.30521991     6     1001    0    0    0
H 1038.31690922 35.27359297 29.97927176     6     1001    0    0    0
C 1034.69046605 35.31461764 32.15435059     2     1001    1005    1006    1007
H 1034.46029530 33.33817620 32.35279044     6     1004    0    0    0
H 1033.87798059 36.20654957 33.72699362     6     1004    0    0    0
C 1032.88892210 35.84374729 29.93991137     2     1004    1008   1009   1010
H 1032.84787591 37.88195166 29.60061999     6     1007    0    0    0
H 1033.83920245 35.30425609 28.09345155     6     1007    0    0    0
C 1030.18317944 34.65755536 30.25571389     2     1007   1011   1012   1013
H 1030.26670084 32.76089746 30.93614007     6    1010    0    0    0
H 1029.06472764 35.74030585 31.54572662     6    1010    0    0    0
C 1028.67754200 34.31447092 27.77407705     2    1010   1014   1015   1016
H 1028.76763641 36.09220863 26.83291897     6    1013    0    0    0
H 1029.31660205 32.72696316 26.59615619     6    1013    0    0    0
C 1025.81796284 33.87426347 28.27182906     2    1013   1017   1018   1019
H 1025.57676214 32.21432651 29.49071357     6    1016    0    0    0
H 1025.17894846 35.64855247 28.98265570     6    1016    0    0    0
C 1024.27918934 33.41800263 25.85935536     2    1016   1020   1021   1022
H 1025.16942700 34.66150358 24.48960964     6    1019    0    0    0
H 1024.62153328 31.52698205 25.17294075     6    1019    0    0    0
C 1021.41223250 33.58165679 26.16466994     2    1019   1023   1024   1025
H 1021.00686041 35.42305722 26.92597687     6    1022    0    0    0
H 1020.53711207 33.50007782 24.21642965     6    1022    0    0    0
C 1020.24081637 31.67300512 27.92402946     2    1022   1026   1027   1028
H 1021.28058184 29.85568555 28.26288374     6    1025    0    0    0
H 1020.15188534 32.61479528 29.79205598     6    1025    0    0    0
C 1017.56921322 30.77976812 27.13618718     2    1025   1029   1030   1031
H 1016.53810809 32.39755223 26.56408541     6    1028    0    0    0
H 1017.42822764 29.58185131 25.38492016     6    1028    0    0    0
C 1016.12071686 29.46642290 29.34176967     2    1028   1032   1033   1034
H 1017.05364448 27.68637319 29.99405942     6    1031    0    0    0
H 1015.85325986 30.92618467 30.75067390     6    1031    0    0    0
C 1013.43743881 28.65053181 28.46042219     1    1031   1035   1036   1037
H 1012.56942200 30.29638184 27.49716648     6    1034    0    0    0
H 1012.36365920 28.16925501 30.12487072     6    1034    0    0    0
H 1013.41479140 27.12216992 27.18068124     6    1034    0    0    0
H 1025.94217487 45.83709662 52.99139231     6     1039    0    0    0 
C 1027.31495231 47.33118796 52.78006532     1     1038    1040    1041    1042
H 1027.66164075 47.37953892 50.79949761     6     1039    0    0    0
H 1026.50605063 49.14132074 53.66239800     6     1039    0    0    0
C 1029.74520181 46.67784975 54.17700524     2     1039    1043    1044    1045
H 1029.22116148 46.59632134 56.20636839     6     1042    0    0    0
H 1030.38190602 44.80919812 53.58540332     6     1042    0    0    0
C 1032.00664234 48.50419073 53.78351545     2     1042    1046   1047   1048
H 1032.52576394 48.55444145 51.74684994     6     1045    0    0    0
H 1031.76201092 50.33960814 54.46838063     6     1045    0    0    0
C 1034.27927031 47.26274166 55.13783983     2     1045   1049   1050   1051
H 1034.12180001 46.95547861 57.12080652     6    1048    0    0    0
H 1034.64883498 45.39408047 54.46173294     6    1048    0    0    0
C 1036.87393624 48.58764322 54.73019859     2    1048   1052   1053   1054
H 1037.51203036 47.68531974 52.88679543     6    1051    0    0    0
H 1036.51086807 50.55518007 54.78654149     6    1051    0    0    0
C 1038.86046456 47.96654557 56.78361774     2    1051   1055   1056   1057
H 1038.25664870 49.14309291 58.37175751     6    1054    0    0    0
H 1038.83735546 45.96407651 57.42050533     6    1054    0    0    0
C 1041.61798591 48.43497007 55.84784728     2    1054   1058   1059   1060
H 1041.93357194 47.45353979 54.03362442     6    1057    0    0    0
H 1041.68614923 50.46149312 55.40109505     6    1057    0    0    0
C 1043.76646832 47.44401996 57.66427722     2    1057   1061   1062   1063
H 1043.52776295 47.97847547 59.62267123     6    1060    0    0    0
H 1043.74138364 45.45674480 57.57791523     6    1060    0    0    0
C 1046.30769405 48.05118926 56.55046896     2    1060   1064   1065   1066
H 1046.32082237 48.17537465 54.46490092     6    1063    0    0    0
H 1046.77904485 49.98269336 57.11319073     6    1063    0    0    0
C 1048.33143541 46.35722001 57.54727973     2    1063   1067   1068   1069
H 1047.96324815 44.25909606 57.23628169     6    1066    0    0    0
H 1049.96812013 46.40143634 56.39129879     6    1066    0    0    0
C 1049.13102334 46.65710210 60.34642784     2    1066   1070   1071   1072
H 1049.92425205 48.55913693 60.52481418     6    1069    0    0    0
H 1047.30469149 46.90260814 61.36538382     6    1069    0    0    0
C 1050.57109090 44.46930388 61.42273774     1    1069   1073   1074   1075
H 1050.40428189 44.27401099 63.37328824     6    1072    0    0    0
[...]
 1763      H    1016.3474077000    13.0491421600    36.1500311400
 1764      C    1015.7044080900    11.3215238800    40.1209203800
 1765      H    1017.0721871300     9.9105731700    40.1304918700
 1766      H    1015.5984185700    12.3162740600    41.9047552900
 1767      C    1013.1685914700    10.0901322500    39.4898007500
 1768      H    1011.6780133400    11.2015953400    38.5920327700
 1769      H    1013.6599525500     8.7855566700    37.9138910200
 1770      C    1012.2984292100     8.5674092800    41.7898362700
 1771      H    1013.5992883200     7.0598097300    42.1037336600
 1772      H    1012.5143875900     9.6571587900    43.5535151600
 1773      C    1009.7939561500     7.3677164300    41.0578136700
 1774      H    1008.6020692200     8.7771864800    40.0325819500
 1775      H    1010.0710910400     5.8549582900    39.7454303200
 1776      C    1008.5988085000     6.0857294900    43.3832554600
 1777      H    1006.7862069400     5.3154757800    42.7976451200
 1778      H    1009.5252367600     4.3381243600    43.8460860500
 1779      C    1007.9735685900     7.5618570100    45.8310076300
 1780      H    1009.6787474400     8.4344684200    46.7948507800
 1781      H    1006.6044870300     9.1466320100    45.3299488000
 1782      C    1006.4502219700     6.0284731700    47.7657244200
 1783      H    1004.8410530800     5.0438069000    46.9858791000
 1784      H    1007.6144120400     4.4255704700    48.5659428500
 1785      C    1005.4417681100     7.7499138400    49.9990443200
 1786      H    1007.0577733100     8.7490401200    50.8355001400
 1787      H    1004.4844949800     9.5114981300    49.1822863300
 1788      C    1003.6975637500     6.4544131100    52.1011360400
 1789      H    1001.9706947200     5.6922895700    51.5499392900
 1790      H    1004.8301053300     5.0277043800    53.0547756400
 1791      C    1003.0218365400     8.5134993300    54.0009441600
 1792      H    1004.6810213300     9.3388635100    54.9861415100
 1793      H    1002.0192111600    10.1374086600    53.1039136500
 1794      C    1001.1217873800     7.4764684300    55.9054258000
 1795      H    1001.9635017400     6.3904977200    57.4443098000
 1796      H     999.7005840500     6.4388409700    55.0250595900
 1797      H    1000.0905560800     9.0061423300    56.8341097100
 1798      H    1025.0734310000    41.1218853900    68.9829431000
 1799      C    1027.0191255100    41.0461531400    69.5598441300
 1800      H    1027.6612539700    42.9777197400    69.2712357500
 1801      H    1027.1009405300    40.2641034100    71.4579901400
 1802      C    1028.6182476300    39.2757038400    67.7943961500
 1803      H    1027.4348411800    37.7252821300    67.4515851900
 1804      H    1028.8984668400    40.2691989400    66.0840802500
 1805      C    1031.2209071100    38.3407324900    68.8211818500
 1806      H    1032.4546376200    40.0261477600    69.0098536600
 1807      H    1030.7389393300    38.0062884100    70.8176707100
 1808      C    1032.5599603200    35.9183665100    67.7371283800
 1809      H    1034.1890904300    35.4573564400    68.8764188600
 1810      H    1031.3007038600    34.2985866300    67.7219860400
 1811      C    1033.5896468800    36.2490514500    65.1038863600
 1812      H    1032.1455176700    36.9828983700    63.6441703100
 1813      H    1035.1111147500    37.4871904800    64.9331749200
 1814      C    1034.4142275300    33.6670814500    63.9760408300
 1815      H    1036.1013360900    33.2414192400    65.1960520200
 1816      H    1032.9451850500    32.1608321800    64.0400711700
 1817      C    1034.9190959300    33.8160359100    61.1342617900
 1818      H    1033.1038507600    34.2929289400    60.2710270800
 1819      H    1036.0831182800    35.3996592200    60.7643260700
 1820      C    1036.0976426400    31.3589881000    60.1620112200
 1821      H    1037.6396543700    30.8974857000    61.3194595800
 1822      H    1034.7587200800    29.8158069800    60.2758201300
 1823      C    1037.1642513900    31.3811224200    57.4890426900
 1824      H    1035.6199500600    32.0451664900    56.3065857600
 1825      H    1038.4026767100    32.9540930700    57.1158997800
 1826      C    1038.1624047500    28.8797955000    56.5654295400
 1827      H    1039.6562890700    27.9385920500    57.6983131700
 1828      H    1036.7111800700    27.3870514700    56.3379049900
 1829      C    1039.1388625900    29.0269732400    53.8215825400
 1830      H    1037.6286884900    29.7877170100    52.6230634700
 1831      H    1040.7527342900    30.3332133000    54.0924375600
 1832      C    1040.1301249400    26.4266798300    52.8490888200
 1833      H    1040.8511759100    26.7471037200    50.9692629700
 1834      H    1038.7142417300    25.0669415600    52.4643512100
 1835      H    1041.4152534100    25.4699303800    54.0039037100
 1836      H    1036.3490467300    21.2143745000    56.8922363700
 1837      C    1035.1379816500    22.7773581500    57.3571157200
 1838      H    1036.2332981100    24.1378129400    58.3780162600
 1839      H    1034.6405380600    23.5634410300    55.5514295100
 1840      C    1032.7436808300    21.8856893700    58.8644435900
 1841      H    1031.5026025800    23.5479015400    58.9009316800
 1842      H    1031.7722086300    20.4293939200    57.8537129900
 1843      C    1033.2800316900    21.0923951600    61.6629667400
 1844      H    1034.5367054500    19.4408822300    61.7129272400
 1845      H    1034.4201741200    22.5416928000    62.4955522800
 1846      C    1031.0400141600    20.6003218300    63.2793236700
 1847      H    1030.2283509300    22.4765203500    63.7532844900
 1848      H    1029.6025093700    19.4869887500    62.2261711600
 1849      C    1031.5039121900    19.2112844600    65.7668427600
 1850      H    1031.6763502700    17.2596635800    65.1249822100
 1851      H    1033.3650720900    19.6604718900    66.5500534800
 1852      C    1029.4606978400    19.2384667100    67.7538693000
 1853      H    1029.0359057500    21.0967782500    68.6201148300
 1854      H    1027.6699180400    18.6907197000    66.8464681700
 1855      C    1030.0936090400    17.4825657500    69.8940735300
 1856      H    1030.2818935300    15.5945602000    69.1181256000
 1857      H    1031.9613659400    18.0343426400    70.6159935300
 1858      C    1028.5076372400    17.6148608400    72.2276865600
 1859      H    1027.8412212900    19.6438472400    72.3363509200
 1860      H    1026.7630932900    16.5377621000    71.8082088600
 1861      C    1029.7900654700    16.6230732400    74.6802364300
 1862      H    1030.0077371600    14.5815926500    74.2726647100
 1863      H    1031.6637205700    17.5588542100    74.8752079300
 1864      C    1028.0726197900    16.9068892100    77.0589939300
 1865      H    1027.9089614600    18.9480954500    77.6301306200
 1866      H    1026.1811198200    16.2902583800    76.6504994000
 1867      C    1029.2679397200    15.4299424000    79.2616511800
 1868      H    1029.5573369800    13.4478881300    78.7619850400
 1869      H    1030.9841031600    16.2546534900    79.7885324200
 1870      C    1027.4145300300    15.5561282700    81.4062198000
 1871      H    1027.7812093000    14.0647635500    82.7884915600
 1872      H    1025.4889592100    15.2868247400    80.8852502700
 1873      H    1027.5037474400    17.3377471300    82.4090590800
 1874      H    1003.3894222800    31.3753842300    65.6133734100
 1875      C    1004.7269808400    30.2416544800    64.4887214600
 1876      H    1005.4151838700    28.6234211700    65.8207849500
 1877      H    1003.5765181500    29.3201374100    63.0252180100
 1878      C    1006.8884497400    31.8315915600    63.3375443500
 1879      H    1006.1098036100    33.6736133700    63.1154407900
 1880      H    1008.5697096500    32.2010389700    64.5785100700
 1881      C    1007.7552927800    30.8426013400    60.8105971700
 1882      H    1008.9689597900    29.2010556000    60.9368742400
 1883      H    1006.2685151600    30.1277614000    59.5491905000
 1884      C    1008.8732065400    32.9576158800    59.0846314600
 1885      H    1007.7990851400    34.7548305700    59.2518708700
 1886      H    1010.6459091800    33.5313539100    59.8369555600
 1887      C    1009.3204954800    32.5153823800    56.2986683000
 1888      H    1010.1960780700    30.6928170700    55.8436351900
 1889      H    1007.6544887900    32.6292989400    55.2121063000
 1890      C    1011.2403579000    34.5229344100    55.1147310500
 1891      H    1010.8779897800    36.4002988500    56.0572940700
 1892      H    1013.1499756600    33.8097706200    55.6480158100
 1893      C    1011.3230753900    34.5217878600    52.1937122200
 1894      H    1011.5629725700    32.5795287800    51.5201940300
 1895      H    1009.3342810700    34.9136343600    51.5771893300
 1896      C    1013.2699419600    35.9465508800    50.7742490500
 1897      H    1013.4219364400    37.7789294000    51.5881840100
 1898      H    1015.1838073500    35.1388855900    51.0697380300
 1899      C    1012.3592245800    36.1945578300    48.0248905200
 1900      H    1011.8966587200    34.3255767200    47.2564251900
 1901      H    1010.6681973800    37.3568081000    47.8915835100
 1902      C    1014.2643094100    37.4287261500    46.3242744700
 1903      H    1013.0515353300    38.1083878100    44.8189826700
 1904      H    1015.3570666400    39.0936695800    46.7215808700
 1905      C    1016.1118227000    35.3981842300    45.5979949500
 1906      H    1017.1084873500    34.9238315600    47.2651072700
 1907      H    1015.2852138500    33.6949885900    44.8986522500
 1908      C    1018.1264482500    36.4001230800    43.8141929800
 1909      H    1018.2402979900    35.3033876000    42.0491148600
 1910      H    1019.9725181700    36.3076396300    44.7218844800
 1911      H    1017.7548897600    38.3791728600    43.0591724900
 ----------------------------------------------------------------
 Nuclear Repulsion Energy =           0.00000000 hartrees
 There are     2498 alpha and     2498 beta electrons

 Total QAlloc Memory Limit   2000 MB
 Mega-Array Size       204 MB
 MEM_STATIC part       192 MB
   **** Step 1: MM calculation on the entire system **** 
 OPLSAA force field loaded.
Reading user-defined FF parameters...
 Reading user defined atom types.
 Found 3 user defined AtomTypes
finished.
Determining angles, torsions, etc. from user defined input
Determining VDW/Coulomb pairs... (useList = 0)

 Time req'd to get MM system information: 0.2 s (CPU) 0.3 s (wall)

 ------ MM Energies ------
   Ebond:           537.431051501604
   Eangle:          860.638575198484
   EUreyBrad:         0.000000000000
   Eimptors:          0.000000000000
   Etorsion:        214.362681290389
   Evdw:        1063175.869696398731
   Ecoulomb:        186.275897374626
   Etot:        1064974.577901763842 Kcal/mol (   1697.145026679229 hartree)
 -------------------------
 Time req'd to calc MM energy: 0.1 s (CPU) 0.1 s (wall)
 OPLSAA force field loaded.
Reading user-defined FF parameters...
 Reading user defined atom types.
 Found 3 user defined AtomTypes
finished.
 Time req'd to get MM system information: 0.0 s (CPU) 0.0 s (wall)
 Time req'd to calc MM gradient: 0.2 s (CPU) 0.2 s (wall)
   **** Step 2: MM calculation on the model system **** 
 Reading user defined atom types.
 Found 3 user defined AtomTypes
 ----------------------------------------------------------------
             Standard Nuclear Orientation (Bohr)
    I     Atom           X                Y                Z
 ----------------------------------------------------------------
    1      Fe   1019.7986253300    26.5610898200    50.9631939000
    2      C    1018.5558779800    28.0109119000    48.1733435600
    3      C    1021.9842951200    27.2478072500    53.5358206000
    4      C    1018.3992165100    23.4499605700    51.2304434600
    5      C    1022.7326452900    25.8406851900    49.2506935500
    6      C    1017.3913086400    28.5325182200    52.4576180000
    7      O    1017.9400264700    28.8082349800    46.2795504500
    8      O    1023.3291266400    27.9072771100    55.1513111900
    9      O    1017.1745219900    21.6476162600    51.4919591900
   10      O    1024.6958545600    25.8563996600    48.2370148800
   11      O    1015.5022504500    29.8295592000    53.0314796900
 ----------------------------------------------------------------
 Nuclear Repulsion Energy =         796.32605132 hartrees
 There are       48 alpha and       48 beta electrons
 OPLSAA force field loaded.
Reading user-defined FF parameters...
 Reading user defined atom types.
 Found 3 user defined AtomTypes
finished.
Determining VDW/Coulomb pairs... (useList = 0)

 No MM bonds in system. Return all possible pairs.
 Time req'd to get MM system information: 0.0 s (CPU) 0.0 s (wall)

 ------ MM Energies ------
   Ebond:             0.000000000000
   Eangle:            0.000000000000
   EUreyBrad:         0.000000000000
   Eimptors:          0.000000000000
   Etorsion:          0.000000000000
   Evdw:        1063644.663537638029
   Ecoulomb:         -6.428361781265
   Etot:        1063638.235175856855 Kcal/mol (   1695.015428979648 hartree)
 -------------------------
 Eold: 1697.1450267 mm_energy: 1695.0154290 Enew:    2.1295977
 Time req'd to calc MM energy: 0.0 s (CPU) 0.0 s (wall)
 OPLSAA force field loaded.
Reading user-defined FF parameters...
 Reading user defined atom types.
 Found 3 user defined AtomTypes
finished.
Determining VDW/Coulomb pairs... (useList = 0)

 No MM bonds in system. Return all possible pairs.
 Time req'd to get MM system information: 0.0 s (CPU) 0.0 s (wall)
 Number of fixed atoms: 0
 Time req'd to calc MM gradient: 0.0 s (CPU) 0.0 s (wall)
   **** Step 3: QM calculation on the model system **** 
 Requested basis set is def2-mSVP
 There are 80 shells and 174 basis functions

                       Distance Matrix (Bohrs)
             Fe(  1)   C (  2)   C (  3)   C (  4)   C (  5)   C (  6)
   C (  2)  3.380779
   C (  3)  3.444872  6.410346
   C (  4)  3.421826  5.492966  5.708870
   C (  5)  3.472767  4.828659  4.571907  5.330439
   C (  6)  3.451812  4.470269  4.889635  5.324869  6.786767
   O (  7)  5.517297  2.145099  8.452485  7.309809  6.372067  6.208513
   O (  8)  5.640655  8.454979  2.203017  7.716533  6.280436  6.550160
   O (  9)  5.595331  7.308412  7.659858  2.194701  7.314221  6.955672
   O ( 10)  5.649026  6.507326  6.112766  7.375582  2.209521  8.850508
   O ( 11)  5.780963  6.019436  6.995478  7.234323  9.082074  2.362239
             O (  7)   O (  8)   O (  9)   O ( 10)
   O (  8) 10.419322
   O (  9)  8.889863  9.510698
   O ( 10)  7.627989  7.340404  9.212978
   O ( 11)  7.250821  8.333597  8.491808 11.103839

 A cutoff of  1.0D-11 yielded   2478 shell pairs
 There are     12834 function pairs (     14696 Cartesian)
 Smallest overlap matrix eigenvalue = 2.53E-03
 Guess MOs from SCF MO coefficient file
 Reading MOs from coefficient file
 Reading MOs from coefficient file
 A restricted Kohn-Sham SCF calculation will be
 performed using Pulay DIIS extrapolation
 Exchange:  B88      Correlation:  P86
 Using SG-1 standard quadrature grid
 SCF converges when DIIS error is below 1.0E-08
 Using Q-Chem read-in guess as SCF_GUESS READ specified.

 using 2 threads for integral computing
 -------------------------------------------------------
 OpenMP Integral computing Module                
 Release: version 1.0, May 2013, Q-Chem Inc. Pittsburgh 
 -------------------------------------------------------
 ---------------------------------------
  Cycle       Energy         DIIS Error
 ---------------------------------------
    1   -1830.5057293058      2.62E-09
    2   -1830.5057293058      1.08E-08
    3   -1830.5057293062      1.10E-08
    4   -1830.5057293056      7.12E-10 Convergence criterion met
 ---------------------------------------
 SCF time:  CPU 5.04 s  wall 2.65 s
 E(QM + QM/MM):    -1830.5057293056 E(MM):    2.1295977 E(Tot): -1828.376131606066 
 SCF   energy in the final basis set = -1828.37613161
 Total energy in the final basis set = -1828.37613161

 --------------------------------------------------------------

                    Orbital Energies (a.u.)
 --------------------------------------------------------------

 Alpha MOs
 -- Occupied --
******** -29.6389 -25.5969 -25.5907 -25.5796 -18.8911 -18.8833 -18.8830
-18.8757 -18.8748 -10.0611 -10.0603 -10.0510 -10.0466 -10.0373  -3.3228
 -2.1542  -2.1433  -2.1206  -1.0727  -1.0604  -1.0542  -1.0478  -1.0035
 -0.5769  -0.5326  -0.5221  -0.5153  -0.5144  -0.4565  -0.4503  -0.4418
 -0.4360  -0.4292  -0.4286  -0.4244  -0.4196  -0.4160  -0.4112  -0.4074
 -0.4031  -0.3868  -0.3832  -0.3762  -0.2824  -0.2613  -0.2441  -0.2215
 -- Virtual --
 -0.1189  -0.0979  -0.0963  -0.0896  -0.0741  -0.0696  -0.0625  -0.0566
 -0.0513  -0.0462  -0.0227   0.0136   0.1871   0.2097   0.2190   0.2530
  0.2935   0.3117   0.3508   0.3734   0.4038   0.4178   0.4244   0.4384
  0.4490   0.4696   0.4986   0.5122   0.5186   0.5316   0.5375   0.6032
  0.6084   0.6232   0.6339   0.6525   0.7409   0.7525   0.7621   0.7692
  0.7871   0.8219   0.8563   0.8792   0.8848   0.8970   0.9340   0.9551
  0.9633   0.9754   0.9821   1.0082   1.0183   1.0318   1.0397   1.0876
  1.1288   1.1991   1.2008   1.3595   1.3750   1.3880   1.4051   1.4128
  1.4152   1.4184   1.4234   1.4280   1.4436   1.4654   1.4814   1.4967
  1.5199   1.5357   1.5519   1.5683   1.5953   1.6216   1.6662   1.6729
  1.6810   1.8144   1.8177   1.8251   1.8333   1.8392   1.8442   1.8473
  1.8640   1.8677   1.8784   1.8809   1.9019   1.9113   1.9277   1.9428
  2.2903   2.3841   2.3929   2.4309   2.4448   2.4571   2.4730   2.4925
  2.5038   2.5334   2.6069   2.6253   2.6461   2.6636   2.6675   2.7887
  2.8266   2.8769   2.8882   2.9430  13.2625  13.2803  13.2874  13.3438
 13.3847  24.9034  24.9096  24.9644  24.9680  25.0089
 --------------------------------------------------------------

          Ground-State Mulliken Net Atomic Charges

     Atom                 Charge (a.u.)
  ----------------------------------------
      1 Fe                   -0.489775
      2 C                     0.200066
      3 C                     0.206016
      4 C                     0.248276
      5 C                     0.208322
      6 C                     0.226525
      7 O                    -0.085915
      8 O                    -0.110665
      9 O                    -0.111982
     10 O                    -0.108104
     11 O                    -0.182765
  ----------------------------------------
  Sum of atomic charges =     0.000000

 -----------------------------------------------------------------
                    Cartesian Multipole Moments
 -----------------------------------------------------------------
    Charge (ESU x 10^10)
                -0.0000
    Dipole Moment (Debye)
         X       0.6544460947      Y      -0.3332483726      Z      -0.3444766316
       Tot       0.8111832829
    Quadrupole Moments (Debye-Ang)
        XX     635.2806     XY    -170.8871     YY     -78.9689
        XZ    -167.8620     YZ     -13.8925     ZZ     -87.4936
    Octopole Moments (Debye-Ang^2)
       XXX  456721.6180    XXY  -88395.9747    XYY  -42483.9574
       YYY   -3141.3403    XXZ  -82771.3396    XYZ   -7251.1853
       YYZ   -2199.9276    XZZ  -46720.6524    YZZ   -1484.9057
       ZZZ   -6319.8858
    Hexadecapole Moments (Debye-Ang^3)
      XXXX ************   XXXY ************   XXYY ************
      XYYY ************   YYYY  -87301.6023   XXXZ ************
      XXYZ ************   XYYZ ************   YYYZ  -85738.8157
      XXZZ ************   XYZZ -794582.7196   YYZZ  -75311.2788
      XZZZ ************   YZZZ  -96265.6986   ZZZZ -327665.5647
 -----------------------------------------------------------------
 Calculating MO derivatives via CPSCF
 Full subspace dimension requested for CIS/TDDFT
 MAX_CIS_SUBSPACE fits in available memory
    1     0    36    0.0429745  
    2     0    36    0.0066720  
    3     0    36    0.0008078  
