                  Welcome to Q-Chem
     A Quantum Leap Into The Future Of Chemistry


 Q-Chem 5.4 (devel), Q-Chem, Inc., Pleasanton, CA (2021)

 E. Epifanovsky,  A. T. B. Gilbert,  Xintian Feng,  Joonho Lee,  Yuezhi Mao,  
 N. Mardirossian,  P. Pokhilko,  A. White,  M. Wormit,  M. P. Coons,  
 A. L. Dempwolff,  Zhengting Gan,  D. Hait,  P. R. Horn,  L. D. Jacobson,  
 I. Kaliman,  J. Kussmann,  A. W. Lange,  Ka Un Lao,  D. S. Levine,  Jie Liu,  
 S. C. McKenzie,  A. F. Morrison,  K. Nanda,  F. Plasser,  D. R. Rehn,  
 M. L. Vidal,  Zhi-Qiang You,  Ying Zhu,  B. Alam,  B. Albrecht,  
 A. Aldossary,  E. Alguire,  J. H. Andersen,  D. Barton,  K. Begam,  A. Behn,  
 Y. A. Bernard,  E. J. Berquist,  H. Burton,  A. Carreras,  K. Carter-Fenk,  
 R. Chakraborty,  A. D. Chien,  K. D. Closser,  V. Cofer-Shabica,  
 S. Dasgupta,  Jia Deng,  M. de Wergifosse,  M. Diedenhofen,  Hainam Do,  
 S. Ehlert,  Po-Tung Fang,  S. Fatehi,  Qingguo Feng,  T. Friedhoff,  
 J. Gayvert,  Qinghui Ge,  G. Gidofalvi,  M. Goldey,  J. Gomes,  
 C. Gonzalez-Espinoza,  S. Gulania,  A. Gunina,  M. W. D. Hanson-Heine,  
 P. H. P. Harbach,  A. W. Hauser,  M. F. Herbst,  M. Hernandez Vera,  
 M. Hodecker,  Z. C. Holden,  S. Houck,  Xunkun Huang,  Kerwin Hui,  
 B. C. Huynh,  M. Ivanov,  Hyunjun Ji,  Hanjie Jiang,  B. Kaduk,  S. Kaehler,  
 K. Khistyaev,  Jaehoon Kim,  P. Klunzinger,  Z. Koczor-Benda,  
 Joong Hoon Koh,  D. Kosenkov,  L. Koulias,  T. Kowalczyk,  C. M. Krauter,  
 K. Kue,  A. Kunitsa,  T. Kus,  A. Landau,  K. V. Lawler,  D. Lefrancois,  
 S. Lehtola,  Rain Li,  Yi-Pei Li,  Jiashu Liang,  M. Liebenthal,  
 Hung-Hsuan Lin,  You-Sheng Lin,  Fenglai Liu,  Kuan-Yu Liu,  
 M. Loipersberger,  A. Luenser,  A. Manjanath,  P. Manohar,  E. Mansoor,  
 S. F. Manzer,  Shan-Ping Mao,  A. V. Marenich,  T. Markovich,  S. Mason,  
 S. A. Maurer,  P. F. McLaughlin,  M. F. S. J. Menger,  J.-M. Mewes,  
 S. A. Mewes,  P. Morgante,  J. W. Mullinax,  K. J. Oosterbaan,  G. Paran,  
 Alexander C. Paul,  Suranjan K. Paul,  F. Pavosevic,  Zheng Pei,  S. Prager,  
 E. I. Proynov,  E. Ramos,  B. Rana,  A. E. Rask,  A. Rettig,  R. M. Richard,  
 F. Rob,  E. Rossomme,  T. Scheele,  M. Scheurer,  M. Schneider,  
 N. Sergueev,  S. M. Sharada,  W. Skomorowski,  D. W. Small,  C. J. Stein,  
 Yu-Chuan Su,  E. J. Sundstrom,  Zhen Tao,  J. Thirman,  T. Tsuchimochi,  
 N. M. Tubman,  S. P. Veccham,  O. Vydrov,  J. Wenzel,  J. Witte,  A. Yamada,  
 Kun Yao,  S. Yeganeh,  S. R. Yost,  A. Zech,  Igor Ying Zhang,  Xing Zhang,  
 Yu Zhang,  D. Zuev,  A. Aspuru-Guzik,  A. T. Bell,  N. A. Besley,  
 K. B. Bravaya,  B. R. Brooks,  D. Casanova,  Jeng-Da Chai,  S. Coriani,  
 C. J. Cramer,  A. E. DePrince, III,  R. A. DiStasio Jr.,  A. Dreuw,  
 B. D. Dunietz,  T. R. Furlani,  W. A. Goddard III,  S. Grimme,  
 S. Hammes-Schiffer,  T. Head-Gordon,  W. J. Hehre,  Chao-Ping Hsu,  
 T.-C. Jagau,  Yousung Jung,  A. Klamt,  Jing Kong,  D. S. Lambrecht,  
 WanZhen Liang,  N. J. Mayhall,  C. W. McCurdy,  J. B. Neaton,  
 C. Ochsenfeld,  J. A. Parkhill,  R. Peverati,  V. A. Rassolov,  Yihan Shao,  
 L. V. Slipchenko,  T. Stauch,  R. P. Steele,  J. E. Subotnik,  
 A. J. W. Thom,  A. Tkatchenko,  D. G. Truhlar,  T. Van Voorhis,  
 T. A. Wesolowski,  K. B. Whaley,  H. L. Woodcock III,  P. M. Zimmerman,  
 S. Faraji,  P. M. W. Gill,  M. Head-Gordon,  J. M. Herbert,  A. I. Krylov

 Additional authors for Version 5.4.1: 
 S. Kotaru,  Shaozhi Li,  Xiangyuan Li,  F. Matz,  A. Molle,  Haisheng Ren,  
 Yingli Su,  Hung-Yi Tsai,  C. Utku,  Fang Wang

 Contributors to earlier versions of Q-Chem not listed above: 
 R. D. Adamson,  B. Austin,  R. Baer,  J. Baker,  G. J. O. Beran,  
 K. Brandhorst,  S. T. Brown,  E. F. C. Byrd,  A. K. Chakraborty,  
 G. K. L. Chan,  Chun-Min Chang,  Yunqing Chen,  C.-L. Cheng,  
 Siu Hung Chien,  D. M. Chipman,  D. L. Crittenden,  H. Dachsel,  
 R. J. Doerksen,  A. D. Dutoi,  R. G. Edgar,  J. Fosso-Tande,  
 L. Fusti-Molnar,  D. Ghosh,  A. Ghysels,  A. Golubeva-Zadorozhnaya,  
 J. Gonthier,  M. S. Gordon,  S. R. Gwaltney,  G. Hawkins,  J. E. Herr,  
 A. Heyden,  S. Hirata,  E. G. Hohenstein,  G. Kedziora,  F. J. Keil,  
 C. Kelley,  Jihan Kim,  R. A. King,  R. Z. Khaliullin,  P. P. Korambath,  
 W. Kurlancheek,  A. Laurent,  A. M. Lee,  M. S. Lee,  S. V. Levchenko,  
 Ching Yeh Lin,  D. Liotard,  E. Livshits,  R. C. Lochan,  I. Lotan,  
 L. A. Martinez-Martinez,  P. E. Maslen,  N. Nair,  D. P. O'Neill,  
 D. Neuhauser,  E. Neuscamman,  C. M. Oana,  R. Olivares-Amaya,  R. Olson,  
 T. M. Perrine,  B. Peters,  P. A. Pieniazek,  A. Prociuk,  Y. M. Rhee,  
 J. Ritchie,  M. A. Rohrdanz,  E. Rosta,  N. J. Russ,  H. F. Schaefer III,  
 M. W. Schmidt,  N. E. Schultz,  S. Sharma,  N. Shenvi,  C. D. Sherrill,  
 A. C. Simmonett,  A. Sodt,  T. Stein,  D. Stuck,  K. S. Thanthiriwatte,  
 V. Vanovschi,  L. Vogt,  Tao Wang,  A. Warshel,  M. A. Watson,  
 C. F. Williams,  Q. Wu,  X. Xu,  Jun Yang,  W. Zhang,  Yan Zhao

 Please cite Q-Chem as follows:
 Y. Shao et al., Mol. Phys. 113, 184-215 (2015)
 DOI: 10.1080/00268976.2014.952696

 Q-Chem 5.4.1 for Intel X86 EM64T Linux

 Parts of Q-Chem use Armadillo 9.900.5 (Nocturnal Misbehaviour).
 http://arma.sourceforge.net/

 Q-Chem begins on Wed Jun 22 08:05:25 2022  

 Host: p09r16n04.grace.hpc.yale.internal
0

     Scratch files written to /home/tl686/scratch60/qchem_dev/scratch/qchem69354//
 Processing $rem in /home/tl686/qchem_dev/qchem/config/preferences:
 Processing $rem in /home/tl686/.qchemrc:
Applying user defined connections for MM calculations

 Checking the input file for inconsistencies... 	...done.

--------------------------------------------------------------
User input:
--------------------------------------------------------------
$molecule
0   1
 Fe -59.11288511 -30.22376523 8.19533964    -1  0   0   0   0
C -57.99901799 -33.25971473 7.15487069    -2  0   0   0   0 
C -59.18840533 -27.15964087 9.66384268    -2  0   0   0   0
C -56.53121563 -28.74801693 5.98373601    -2  0   0   0   0
C -61.98021703 -29.90099730 6.33826609    -2  0   0   0   0
C -59.42482848 -31.60885117 11.05386671    -2  0   0   0   0
O -57.07649208 -35.15518930 6.61730771    -3  0   0   0   0
O -59.13448464 -25.23770592 10.80404857    -3  0   0   0   0 
O -55.21425084 -27.96518369 4.59754942    -3  0   0   0   0
O -63.85153872 -29.42241810 5.30367131    -3  0   0   0   0 
O -59.51080097 -32.82987747 13.41327101    -3  0   0   0   0
H -57.98323371 -38.41521883 -17.81007257      6     13    0    0    0 
C -56.14055227 -38.64460641 -16.74359361     1     12    14    15    16
H -54.40161023 -39.19469457 -17.72041363     6     13    0    0    0
H -55.68923244 -36.78785492 -16.06004441     6     13    0    0    0
C -56.54507993 -40.62785906 -14.61096172     2     13    17    18    19
H -57.09053198 -42.45242319 -15.35073831     6     16    0    0    0
H -54.67629071 -40.70032605 -13.65141516     6     16    0    0    0
C -58.49397687 -39.77825945 -12.65087300     2     16    20   21   22
H -58.28864476 -37.98349719 -11.70483984     6     19    0    0    0
H -60.21933395 -39.57453839 -13.56356860     6     19    0    0    0
C -59.07353582 -41.51166526 -10.31498413     2     19   23   24   25
H -59.77436784 -43.32997403 -10.88888878     6    22    0    0    0
H -57.32555791 -42.04714414 -9.43957654     6    22    0    0    0
C -60.96600452 -40.34401776 -8.42237955     2    22   26   27   28
H -59.93425672 -39.46402251 -6.98371647     6    25    0    0    0
H -62.37818845 -39.28478676 -9.47799747     6    25    0    0    0
C -62.51958246 -42.48636918 -6.91515569     2    25   29   30   31
H -63.46444838 -43.60542825 -8.26985773     6    28    0    0    0
H -61.32173136 -43.75933474 -5.73140994     6    28    0    0    0
C -64.68158660 -41.47882710 -5.21863281     2    28   32   33   34
H -63.89236236 -40.60999577 -3.52405585     6    31    0    0    0
H -65.49747853 -39.88869074 -6.25575326     6    31    0    0    0
C -66.78627633 -43.33270057 -4.65142148     2    31   35   36   37
H -67.61379126 -43.96511300 -6.48954611     6    34    0    0    0
H -65.82378849 -44.91179395 -3.61135728     6    34    0    0    0
C -68.84512327 -42.35441215 -2.94994026     2    34   38   39   40
H -68.00925317 -41.71788741 -1.17311121     6    37    0    0    0
H -69.78903048 -40.81698739 -3.93626586     6    37    0    0    0
C -70.96490705 -44.29967655 -2.67259533     2    37   41   42   43
H -71.47036681 -44.91186590 -4.63589622     6    40    0    0    0
H -70.35754111 -46.02762610 -1.71588933     6    40    0    0    0
C -73.21992061 -43.31147731 -1.37240812     2    40   44   45   46
H -72.52872355 -42.29131388 0.22587644     6    43    0    0    0
H -74.24995334 -42.01459461 -2.74790326     6    43    0    0    0
C -75.02622883 -45.31936851 -0.26430711     1    43   47   48   49
H -75.04631550 -46.89737934 -1.67163642     6    46    0    0    0
H -77.02831104 -44.81570286 0.33639968     6    46    0    0    0
H -73.91708626 -45.92143253 1.38050080     6    46    0    0    0
H -66.08804746 -36.38973673 10.91744709     6     51    0    0    0 
C -64.45198615 -35.69547725 9.84156031     1     50    52    53    54
H -63.92347588 -33.82925346 10.44340202     6     51    0    0    0
H -63.05446635 -37.06202427 10.47048973     6     51    0    0    0
C -64.68929862 -36.21698141 6.98216986     2     51    55    56    57
H -63.03130923 -35.28480186 6.02641913     6     54    0    0    0
H -64.56903500 -38.29936936 6.89915483     6     54    0    0    0
C -67.00952037 -35.16739103 5.86010883     2     54    58   59   60
H -67.15522630 -33.22584031 6.14282822     6     57    0    0    0
H -66.96976801 -35.33020116 3.85834186     6     57    0    0    0
C -69.42818067 -36.62026053 6.82302019     2     57   61   62   63
H -68.80192187 -38.51355373 7.17422315     6    60    0    0    0
H -69.88848096 -36.08917029 8.66792486     6    60    0    0    0
C -71.72735403 -36.35816014 4.89181829     2    60   64   65   66
H -72.27505619 -34.36626461 5.15592600     6    63    0    0    0
H -70.98444420 -36.59060433 3.01296899     6    63    0    0    0
C -74.12439482 -37.82025318 5.19140157     2    63   67   68   69
H -75.62099378 -36.86449727 4.13262980     6    66    0    0    0
H -73.89950016 -39.73074886 4.32906880     6    66    0    0    0
C -75.12909503 -38.17299090 7.96559842     2    66   70   71   72
H -73.70660713 -39.07282388 9.16794456     6    69    0    0    0
H -75.46817053 -36.37524252 9.04028681     6    69    0    0    0
C -77.45802884 -39.80833362 8.02603419     2    69   73   74   75
H -78.95025250 -38.64254462 7.28009854     6    72    0    0    0
H -77.36201889 -41.47394702 6.79740917     6    72    0    0    0
C -77.93011677 -40.66981648 10.75546382     2    72   76   77   78
H -76.40355805 -42.09247095 11.21313837     6    75    0    0    0
H -77.60842099 -39.26691856 12.16050574     6    75    0    0    0
C -80.44108942 -41.97467364 11.00184407     2    75   79   80   81
H -81.91518135 -40.67726299 10.15284654     6    78    0    0    0
H -80.46090908 -43.84521676 10.08260159     6    78    0    0    0
C -81.13356043 -42.28266890 13.81375109     2    78   82   83   84
H -79.64010979 -43.35494770 14.78643831     6    81    0    0    0
H -81.51703396 -40.44922230 14.59851997     6    81    0    0    0
C -83.40140627 -43.89104207 14.01230531     1    81   85   86   87
H -84.05578140 -44.00890948 15.96178564     6    84    0    0    0
H -82.80150067 -45.80673985 13.37947116     6    84    0    0    0
H -85.10433309 -43.07977388 13.13931664     6    84    0    0    0
H -59.62371160 -28.47422131 -29.02758066     6     89    0    0    0 
C -61.10329025 -29.77028545 -28.49085013     1     88    90    91    92
H -61.43429365 -31.21116890 -29.89092218     6     89    0    0    0
H -60.61302065 -30.74223378 -26.76711124     6     89    0    0    0
C -63.16582574 -27.91627152 -27.70415401     2     89    93    94    95
H -62.44018526 -26.78833624 -26.02725165     6     92    0    0    0
H -63.30202719 -26.39935044 -29.08555986     6     92    0    0    0
C -65.66583247 -29.29370305 -27.24357299     2     92    96   97   98
H -66.16956336 -30.08705591 -29.08150126     6     95    0    0    0
H -65.53778400 -30.75593820 -25.86617085     6     95    0    0    0
C -67.63985578 -27.55479637 -26.14341278     2     95   99   100   101
H -67.07595297 -27.50973339 -24.30555012     6    98    0    0    0
H -67.78898611 -25.64354732 -26.80060593     6    98    0    0    0
C -70.37891900 -28.46662154 -25.97030901     2    98   102   103   104
H -71.46433007 -27.10795108 -24.89024992     6    101    0    0    0
H -71.19813293 -28.17845392 -27.79749180     6    101    0    0    0
C -70.86365073 -31.27837409 -25.19138868     2    101   105   106   107
H -70.19626478 -32.54902441 -26.50220014     6    104    0    0    0
H -69.79862696 -31.47505809 -23.50901532     6    104    0    0    0
C -73.64814922 -31.92882337 -24.56666109     2    104   108   109   110
H -74.38916588 -30.60765945 -23.29829613     6    107    0    0    0
H -74.84150840 -31.48187962 -26.27020148     6    107    0    0    0
C -73.95150644 -34.80595389 -23.99493202     2    107   111   112   113
H -73.13204505 -36.02392835 -25.48430403     6    110    0    0    0
H -72.65860607 -34.85456162 -22.56938322     6    110    0    0    0
C -76.56150144 -35.56257780 -23.19017070     2    110   114   115   116
H -77.10665082 -34.56107278 -21.52306699     6    113    0    0    0
H -77.95002232 -34.83173903 -24.63773067     6    113    0    0    0
C -76.78433286 -38.32117813 -22.99529518     2    113   117   118   119
H -76.38060806 -39.39348768 -24.80901382     6    116    0    0    0
H -75.26037634 -38.77654187 -21.77537059     6    116    0    0    0
C -79.31309705 -39.24902651 -21.92691180     2    116   120   121   122
H -79.85135252 -38.02496376 -20.34659161     6    119    0    0    0
H -80.69620397 -39.05832894 -23.52066078     6    119    0    0    0
C -79.08246437 -42.00016434 -21.19656471     1    119   123   124   125
H -80.92131983 -42.70259909 -20.50910495     6    122    0    0    0
H -77.97255562 -42.08594482 -19.50419444     6    122    0    0    0
H -78.47220831 -42.95915182 -22.92292920     6    122    0    0    0
H -65.23734777 -8.49160616 -20.24596447     6     127    0    0    0 
C -65.40934837 -9.01281872 -18.28074815     1     126    128    129    130
H -66.12863075 -7.39201528 -17.35223931     6     127    0    0    0
H -66.73688152 -10.51236777 -17.77570304     6     127    0    0    0
C -62.81003434 -9.56583189 -17.19282122     2     127    131    132    133
H -61.92204670 -11.33277228 -17.83468868     6     130    0    0    0
H -61.65457120 -8.15901053 -18.08536147     6     130    0    0    0
C -62.64548240 -9.44544853 -14.26556772     2     130    134   135   136
H -61.90962845 -7.49780671 -13.91756795     6     133    0    0    0
H -64.50823575 -9.81402510 -13.38118828     6     133    0    0    0
C -60.63779436 -11.23968667 -13.14166264     2     133   137   138   139
H -60.99006130 -13.31164802 -13.71780362     6    136    0    0    0
H -58.77876924 -11.07705793 -14.04330140     6    136    0    0    0
C -60.48412906 -11.30817943 -10.26123497     2    136   140   141   142
H -59.81487463 -9.56141252 -9.48263505     6    139    0    0    0
H -62.39089566 -11.63856267 -9.67244731     6    139    0    0    0
C -58.71244150 -13.41342119 -9.57898637     2    139   143   144   145
H -59.40124522 -15.14267962 -10.10695492     6    142    0    0    0
H -57.04152706 -13.21771601 -10.78364765     6    142    0    0    0
C -58.34058685 -13.80246140 -6.72591381     2    142   146   147   148
H -57.10935292 -12.19734719 -6.15668258     6    145    0    0    0
H -60.12206390 -13.90078362 -5.56473143     6    145    0    0    0
C -56.96988605 -16.21301513 -6.14117125     2    145   149   150   151
H -58.23379040 -17.86803158 -6.28433248     6    148    0    0    0
H -55.36682820 -16.39081977 -7.52889528     6    148    0    0    0
C -55.66946866 -16.41426794 -3.44882897     2    148   152   153   154
H -54.50792838 -14.64577110 -2.93694928     6    151    0    0    0
H -57.28077121 -16.60703024 -2.10230724     6    151    0    0    0
C -53.90154446 -18.70076899 -3.20418051     2    151   155   156   157
H -53.54353184 -18.70031332 -1.27998021     6    154    0    0    0
H -54.89594636 -20.38027037 -3.67467226     6    154    0    0    0
C -51.54085049 -18.36353858 -4.90147123     2    154   158   159   160
H -51.72544335 -18.67878684 -6.96082777     6    157    0    0    0
H -50.63911269 -16.51184209 -4.68659805     6    157    0    0    0
C -49.65725553 -20.43685720 -4.13969928     1    157   161   162   163
H -48.52919230 -21.11135230 -5.82305408     6    160    0    0    0
H -50.37672272 -22.14182871 -3.16631162     6    160    0    0    0
H -48.13522561 -19.69934338 -2.81457717     6    160    0    0    0
H -81.48719949 -16.83869039 -14.58417044     6     165    0    0    0 
C -81.01928211 -14.99208223 -13.71599768     1     164    166    167    168
H -81.69575047 -13.59418645 -15.16466264     6     165    0    0    0
H -82.21697977 -14.54521176 -12.08715705     6     165    0    0    0
C -78.37610064 -14.38347616 -13.34386517     2     165    169    170    171
H -77.52022398 -15.72496459 -12.16011934     6     168    0    0    0
H -77.45652073 -14.65450474 -15.17916473     6     168    0    0    0
C -77.65759274 -11.79862997 -12.18716166     2     168    172   173   174
H -78.88719701 -10.32951729 -12.87895521     6     171    0    0    0
H -78.03190839 -11.81130210 -10.17717706     6     171    0    0    0
C -74.91503239 -11.27620231 -12.70796260     2     171   175   176   177
H -73.56450902 -12.75345239 -12.03555597     6    174    0    0    0
H -74.64724935 -11.42435202 -14.73471217     6    174    0    0    0
C -74.08922167 -8.66573280 -11.85118624     2    174   178   179   180
H -74.74257911 -7.28487995 -13.24048008     6    177    0    0    0
H -74.66621244 -8.23794961 -9.97805675     6    177    0    0    0
C -71.28996600 -8.42177574 -11.90421462     2    177   181   182   183
H -70.23011542 -10.24081503 -11.23616457     6    180    0    0    0
H -70.82774903 -8.34555769 -13.86689968     6    180    0    0    0
C -70.24692233 -6.09477912 -10.72908332     2    180   184   185   186
H -70.89604437 -4.39392793 -11.66517437     6    183    0    0    0
H -70.86244480 -6.10922600 -8.63048757     6    183    0    0    0
C -67.38564282 -6.01116181 -10.90859474     2    183   187   188   189
H -66.70688318 -7.83016851 -10.11862488     6    186    0    0    0
H -66.68306755 -6.18544201 -12.82724002     6    186    0    0    0
C -66.26856766 -3.81206585 -9.53836415     2    186   190   191   192
H -67.25206734 -2.10830443 -10.25831296     6    189    0    0    0
H -66.38493310 -3.93771744 -7.49352958     6    189    0    0    0
C -63.34272812 -3.39348088 -10.50971640     2    189   193   194   195
H -62.31998629 -5.13378299 -10.08885198     6    192    0    0    0
H -63.08846326 -3.03086875 -12.53947992     6    192    0    0    0
C -62.09936938 -1.16287129 -9.29828746     2    192   196   197   198
H -62.82073671 0.55761832 -10.06981493     6    195    0    0    0
H -62.46479842 -1.29390168 -7.31123955     6    195    0    0    0
C -59.36711427 -0.78671389 -9.71853735     1    195   199   200   201
H -58.57150016 0.70410020 -8.54502759     6    198    0    0    0
H -59.07176936 -0.36052430 -11.66493853     6    198    0    0    0
H -58.52543010 -2.50146019 -8.99933057     6    198    0    0    0
H -94.50915264 -17.15399045 -3.19566577     6     203    0    0    0 
C -92.77069292 -15.86696903 -3.03608461     1     202    204    205    206
H -92.56756994 -15.04145778 -4.88212821     6     203    0    0    0
H -93.38377951 -14.30920519 -1.85326978     6     203    0    0    0
C -90.40068113 -16.95298769 -1.73499776     2     203    207    208    209
H -91.17084840 -18.30090518 -0.32680926     6     206    0    0    0
H -89.44704733 -18.10362343 -3.15645744     6     206    0    0    0
C -88.45944539 -15.18253939 -0.39597846     2     206    210   211   212
H -86.68973463 -16.15087187 -0.40367153     6     209    0    0    0
H -88.29897427 -13.31155024 -1.29241038     6     209    0    0    0
C -89.21678823 -14.87436063 2.34001170     2     209   213   214   215
H -91.29319596 -14.34137004 2.37926917     6    212    0    0    0
H -88.94555979 -16.66463527 3.43404746     6    212    0    0    0
C -87.58550104 -12.91903060 3.74035794     2    212   216   217   218
H -85.77068110 -13.84354894 3.81563505     6    215    0    0    0
H -87.21853169 -11.07497884 2.77240831     6    215    0    0    0
C -88.45139981 -12.62626761 6.47386811     2    215   219   220   221
H -90.34843599 -11.82818343 6.52758463     6    218    0    0    0
H -88.48251004 -14.50483855 7.33224279     6    218    0    0    0
C -86.70772796 -10.88432762 8.05248691     2    218   222   223   224
H -84.76110138 -11.58144401 7.64599200     6    221    0    0    0
H -86.67412620 -9.06099773 7.25141011     6    221    0    0    0
C -87.27987687 -10.79021195 10.89078385     2    221   225   226   227
H -89.24698257 -10.34948926 11.45179741     6    224    0    0    0
H -86.93079556 -12.66881993 11.50241723     6    224    0    0    0
C -85.49099081 -8.94252534 12.36879934     2    224   228   229   230
H -83.76406350 -9.42990814 11.42118199     6    227    0    0    0
H -85.91768480 -7.03225925 12.06051699     6    227    0    0    0
C -85.53903316 -9.59535849 15.13726763     2    227   231   232   233
H -87.30240551 -9.08652311 15.84313040     6    230    0    0    0
H -85.31470624 -11.56695863 15.43288429     6    230    0    0    0
C -83.42506004 -8.14926067 16.53894351     2    230   234   235   236
H -81.60232150 -8.49500511 15.57693460     6    233    0    0    0
H -83.51715083 -6.04764807 16.30093555     6    233    0    0    0
C -82.97945084 -8.92904004 19.31110154     1    233   237   238   239
H -81.79034849 -7.50890495 20.13522200     6    236    0    0    0
H -82.00482447 -10.77197661 19.43959310     6    236    0    0    0
H -84.84589843 -9.00152201 20.32313083     6    236    0    0    0
H -87.22734685 -35.02552563 2.08757016     6     241    0    0    0 
C -85.23933001 -35.04701550 1.68843891     1     240    242    243    244
H -84.72894209 -34.20595959 -0.13471491     6     241    0    0    0
H -84.35261003 -33.95722065 3.16207140     6     241    0    0    0
C -84.53808226 -37.87989119 1.68352770     2     241    245    246    247
H -85.72467490 -38.58594287 0.30028170     6     244    0    0    0
H -82.65125795 -38.33209193 1.09069448     6     244    0    0    0
C -85.39643457 -39.28297364 4.17244070     2     244    248   249   250
H -84.05372894 -39.09812684 5.69444134     6     247    0    0    0
H -87.05363417 -38.27419072 4.74837344     6     247    0    0    0
C -85.83610297 -42.11809037 3.91742094     2     247   251   252   253
H -87.12474261 -42.83352004 5.29890063     6    250    0    0    0
H -86.74408525 -42.77551102 2.14633337     6    250    0    0    0
C -83.30070450 -43.63383974 4.26305384     2    250   254   255   256
H -81.77452140 -42.77167182 3.15208574     6    253    0    0    0
H -83.05119321 -43.34776490 6.31750469     6    253    0    0    0
C -83.43687148 -46.41896502 3.60716717     2    253   257   258   259
H -82.01532882 -47.32826624 4.78714047     6    256    0    0    0
H -85.12030798 -47.42845582 4.18722430     6    256    0    0    0
C -83.05443608 -46.92875371 0.70588836     2    256   260   261   262
H -84.64225341 -46.05671906 -0.11779180     6    259    0    0    0
H -81.33386053 -46.17427897 0.09501986     6    259    0    0    0
C -83.60389284 -49.73086363 0.43797824     2    259   263   264   265
H -82.59837475 -50.86674530 1.70427084     6    262    0    0    0
H -85.60747006 -50.17580246 0.80325657     6    262    0    0    0
C -83.09921416 -50.55279362 -2.33927286     2    262   266   267   268
H -84.19639283 -49.45734938 -3.52024211     6    265    0    0    0
H -81.27638632 -49.92825293 -3.11825745     6    265    0    0    0
C -83.43952394 -53.32247629 -2.66445801     2    265   269   270   271
H -82.60130933 -53.99059195 -4.35321270     6    268    0    0    0
H -82.49538152 -54.14966822 -1.04905905     6    268    0    0    0
C -86.28879291 -54.13994693 -2.56048812     2    268   272   273   274
H -86.49298567 -56.11591723 -2.14452827     6    271    0    0    0
H -87.11307371 -53.13448941 -0.80421882     6    271    0    0    0
C -87.94703963 -53.31729055 -4.77705188     1    271   275   276   277
H -88.10335741 -51.36369445 -5.15132410     6    274    0    0    0
H -89.75697030 -54.33060188 -4.70630033     6    274    0    0    0
H -87.06408322 -54.03895087 -6.57303077     6    274    0    0    0
H -78.68578847 -23.06030778 -15.83471681     6     279    0    0    0 
C -79.53356655 -24.62564166 -14.75418261     1     278    280    281    282
H -80.25178209 -26.29203402 -15.88922721     6     279    0    0    0
H -78.04888834 -25.64183368 -13.63732601     6     279    0    0    0
C -81.49402262 -23.57464196 -13.07979846     2     279    283    284    285
H -80.93298147 -21.75927513 -12.39624953     6     282    0    0    0
H -83.32042630 -23.41827544 -14.04089448     6     282    0    0    0
C -82.11218511 -25.28996648 -11.00080593     2     282    286   287   288
H -82.90724160 -27.10273561 -11.76307178     6     285    0    0    0
H -80.54237754 -25.92019349 -9.94109548     6     285    0    0    0
C -84.02786622 -24.25517495 -9.22632608     2     285   289   290   291
H -83.74260038 -22.39458064 -8.53372793     6    288    0    0    0
H -85.69231176 -24.28370009 -10.28493036     6    288    0    0    0
C -84.60537679 -26.10118974 -7.05969502     2    288   292   293   294
H -85.03034284 -27.98190712 -7.75697614     6    291    0    0    0
H -82.81340998 -26.33637836 -6.12135643     6    291    0    0    0
C -86.53266153 -25.15671403 -4.98147857     2    291   295   296   297
H -86.25740401 -23.23208371 -4.40074222     6    294    0    0    0
H -88.34561289 -24.86531710 -5.92345534     6    294    0    0    0
C -86.42755127 -26.84975654 -2.56640063     2    294   298   299   300
H -87.42967968 -28.63089586 -3.03776124     6    297    0    0    0
H -84.33504886 -27.05740500 -2.02582131     6    297    0    0    0
C -87.77273413 -25.63749883 -0.45407231     2    297   301   302   303
H -87.32780382 -23.66047671 -0.17492995     6    300    0    0    0
H -89.84693531 -25.82927900 -0.80578624     6    300    0    0    0
C -87.02678042 -26.95161138 2.02038220     2    300   304   305   306
H -86.98186834 -29.00058731 1.80569358     6    303    0    0    0
H -85.15029575 -26.19592377 2.64924376     6    303    0    0    0
C -89.18032686 -26.70799676 4.02255380     2    303   307   308   309
H -89.51653837 -24.72459235 4.08074866     6    306    0    0    0
H -91.07674063 -27.44554235 3.60009307     6    306    0    0    0
C -88.25195425 -27.34608044 6.65090923     2    306   310   311   312
H -87.95942383 -29.35022546 6.77477338     6    309    0    0    0
H -86.45613756 -26.38724031 7.22073968     6    309    0    0    0
C -90.24347669 -26.93729856 8.66585310     1    309   313   314   315
H -91.70258789 -28.14803716 7.88809889     6    312    0    0    0
H -91.02858080 -25.02986319 8.88890702     6    312    0    0    0
H -89.69850547 -27.72647200 10.57368958     6    312    0    0    0
H -61.87289416 -19.09787890 -23.00729559     6     317    0    0    0 
C -62.98039348 -20.78001635 -22.39564689     1     316    318    319    320
H -64.95793219 -20.18491508 -21.96508745     6     317    0    0    0
H -63.14911120 -22.39647182 -23.71953310     6     317    0    0    0
C -61.92691140 -21.83783202 -19.87885384     2     317    321    322    323
H -63.31240904 -22.98645538 -18.80220004     6     320    0    0    0
H -60.27202101 -23.09333551 -20.20988390     6     320    0    0    0
C -60.99238154 -19.88384999 -17.93085663     2     320    324   325   326
H -60.77693421 -18.05281939 -18.55936838     6     323    0    0    0
H -62.59019143 -19.59481437 -16.60026374     6     323    0    0    0
C -58.79730276 -21.13261436 -16.56519711     2     323   327   328   329
H -59.32422476 -22.90894038 -15.84199580     6    326    0    0    0
H -57.02959857 -21.37739460 -17.76099373     6    326    0    0    0
C -58.03185508 -19.56320258 -14.26192937     2    326   330   331   332
H -56.82780763 -18.09602325 -14.96916686     6    329    0    0    0
H -59.61074097 -18.66786703 -13.35227258     6    329    0    0    0
C -56.58550546 -21.11597679 -12.13162944     2    329   333   334   335
H -55.15989811 -22.40273946 -12.81501194     6    332    0    0    0
H -55.53005133 -19.77406619 -11.03505551     6    332    0    0    0
C -58.40001973 -22.46003613 -10.44748563     2    332   336   337   338
H -59.46643758 -20.95123500 -9.64445862     6    335    0    0    0
H -59.77314628 -23.53133646 -11.45939943     6    335    0    0    0
C -57.05560317 -24.21228324 -8.54190921     2    335   339   340   341
H -56.14782241 -25.88710838 -9.34256548     6    338    0    0    0
H -55.42641309 -23.26907672 -7.53820180     6    338    0    0    0
C -58.68556081 -24.92594499 -6.30823873     2    338   342   343   344
H -58.94511319 -23.25978946 -5.13769728     6    341    0    0    0
H -60.63085276 -25.47454163 -6.86668877     6    341    0    0    0
C -57.91389239 -27.16232308 -4.48758529     2    341   345   346   347
H -59.20262482 -26.91783281 -2.86100070     6    344    0    0    0
H -58.36644261 -28.90676705 -5.52495809     6    344    0    0    0
C -55.19108723 -27.07855872 -3.48928851     2    344   348   349   350
H -53.86501492 -27.52296941 -5.00983558     6    347    0    0    0
H -54.70240285 -25.13736410 -3.03916006     6    347    0    0    0
C -54.54846608 -28.91861791 -1.32789233     1    347   351   352   353
H -54.52168970 -30.96789714 -1.81862787     6    350    0    0    0
H -56.08233582 -29.23289287 -0.01425081     6    350    0    0    0
H -52.91808804 -28.13847635 -0.23883588     6    350    0    0    0
H -79.45711055 -35.65737250 -1.96607165     6     355    0    0    0 
C -77.66443368 -34.53805966 -2.02571233     1     354    356    357    358
H -77.66655997 -33.73586269 -0.13354111     6     355    0    0    0
H -76.05009261 -35.82116845 -2.32125364     6     355    0    0    0
C -77.81964661 -32.19351218 -3.73783305     2     355    359    360    361
H -78.38163453 -32.81064074 -5.66215955     6     358    0    0    0
H -79.24158304 -31.04780287 -2.93364007     6     358    0    0    0
C -75.41645405 -30.69045365 -4.01398724     2     358    362   363   364
H -74.55547488 -30.37996076 -2.25400445     6     361    0    0    0
H -74.13223445 -31.71832411 -5.29504191     6     361    0    0    0
C -75.98982300 -28.30367941 -5.46266730     2     361   365   366   367
H -76.91574760 -29.01811686 -7.19502687     6    364    0    0    0
H -77.32096294 -27.15052150 -4.39072359     6    364    0    0    0
C -73.66176697 -26.82868671 -6.14477546     2    364   368   369   370
H -72.73722885 -25.98403287 -4.47564995     6    367    0    0    0
H -72.25723831 -28.01427765 -7.01732592     6    367    0    0    0
C -74.52169997 -24.83439533 -7.96750463     2    367   371   372   373
H -75.27394120 -25.81826755 -9.58964927     6    370    0    0    0
H -75.83805724 -23.37255147 -7.31831407     6    370    0    0    0
C -72.42878394 -22.94281562 -8.94395926     2    370   374   375   376
H -71.88315791 -22.01392057 -7.23756657     6    373    0    0    0
H -70.74498150 -24.02012852 -9.71179786     6    373    0    0    0
C -73.00999073 -20.91688054 -10.99816633     2    373   377   378   379
H -74.11611365 -21.66987004 -12.56478696     6    376    0    0    0
H -74.30662370 -19.47315091 -10.33771409     6    376    0    0    0
C -70.62899996 -19.37634902 -11.79186439     2    376   380   381   382
H -69.76014302 -18.47675263 -10.17253872     6    379    0    0    0
H -69.28601236 -20.62014867 -12.70314544     6    379    0    0    0
C -71.58025061 -17.35782541 -13.69515953     2    379   383   384   385
H -72.23375315 -18.31046021 -15.48532635     6    382    0    0    0
H -73.23278138 -16.53523423 -12.94906429     6    382    0    0    0
C -69.57376582 -15.40219982 -14.47704740     2    382   386   387   388
H -70.23644162 -13.68782518 -15.39724878     6    385    0    0    0
H -68.75633289 -14.72375729 -12.75309744     6    385    0    0    0
C -67.49928269 -16.43962512 -16.13309307     1    385   389   390   391
H -68.08905170 -16.92795547 -18.08312497     6    388    0    0    0
H -66.57877509 -17.99285052 -15.26178580     6    388    0    0    0
H -66.05688752 -14.95558176 -16.39577777     6    388    0    0    0
H -41.28642332 -37.06298088 25.13130584     6     393    0    0    0 
C -43.36511339 -37.36575254 25.03845550     1     392    394    395    396
H -43.56198826 -38.72031770 26.63542024     6     393    0    0    0
H -44.46237016 -35.59327232 25.42392527     6     393    0    0    0
C -44.02333220 -38.38748027 22.42067629     2     393    397    398    399
H -43.29359699 -37.25897172 20.84498251     6     396    0    0    0
H -43.02887355 -40.24472520 21.98272771     6     396    0    0    0
C -46.88353980 -38.73358359 22.28437046     2     396    400   401   402
H -47.55265222 -39.22076510 24.20291823     6     399    0    0    0
H -47.82204937 -36.93199104 21.89250179     6     399    0    0    0
C -47.86527885 -40.65662610 20.23601103     2     399   403   404   405
H -48.06564176 -39.99554773 18.26781669     6    402    0    0    0
H -46.67854950 -42.36012999 20.23392074     6    402    0    0    0
C -50.28128389 -42.01495732 21.14753959     2    402   406   407   408
H -49.83623851 -42.84765032 22.97758419     6    405    0    0    0
H -51.80742074 -40.64265146 21.64471971     6    405    0    0    0
C -51.60964724 -44.04259850 19.44255261     2    405   409   410   411
H -51.79883067 -43.38660376 17.54180341     6    408    0    0    0
H -50.47579744 -45.68046888 19.01583720     6    408    0    0    0
C -54.02473250 -44.99161847 20.58235911     2    408   412   413   414
H -54.21755584 -46.82757612 19.86642391     6    411    0    0    0
H -53.86541227 -45.12215122 22.71090351     6    411    0    0    0
C -56.36001296 -43.37885262 19.93398974     2    411   415   416   417
H -56.20721400 -41.48866190 20.50654508     6    414    0    0    0
H -56.89134055 -43.41931900 17.97372145     6    414    0    0    0
C -58.73264313 -44.37634155 21.19125553     2    414   418   419   420
H -58.88344513 -46.36256319 20.76765807     6    417    0    0    0
H -58.35323179 -44.33652860 23.14975599     6    417    0    0    0
C -61.13600982 -42.80872003 20.44528161     2    417   421   422   423
H -61.37578267 -41.18883783 21.91708180     6    420    0    0    0
H -61.11957084 -42.09808563 18.45972355     6    420    0    0    0
C -63.54318657 -44.45116631 20.81284127     2    420   424   425   426
H -64.94761130 -43.62643364 19.63505656     6    423    0    0    0
H -63.19669835 -46.39135758 20.25196820     6    423    0    0    0
C -64.47467863 -44.42629982 23.57837061     1    423   427   428   429
H -65.98341997 -45.75762789 23.82196911     6    426    0    0    0
H -65.04740829 -42.54069898 24.16821980     6    426    0    0    0
H -63.01904508 -45.01978529 24.78014460     6    426    0    0    0
H -67.16407209 -52.79719699 8.00603262     6     431    0    0    0 
C -66.22130749 -53.05642373 6.14701511     1     430    432    433    434
H -66.99344921 -54.81288399 5.35703442     6     431    0    0    0
H -67.01524725 -51.49474456 4.91530306     6     431    0    0    0
C -63.42623424 -53.12428548 6.40522297     2     431    435    436    437
H -62.58989767 -51.36504981 7.05928782     6     434    0    0    0
H -63.04823651 -54.54319843 7.88110160     6     434    0    0    0
C -61.92374981 -54.12578625 3.96032975     2     434    438   439   440
H -61.98105364 -56.10582971 3.65143761     6     437    0    0    0
H -62.65819265 -53.18139033 2.22778508     6     437    0    0    0
C -59.09155508 -53.30218810 4.08045952     2     437   441   442   443
H -58.38380674 -53.95765123 2.32114086     6    440    0    0    0
H -59.01473673 -51.35894895 4.29121331     6    440    0    0    0
C -57.41121643 -54.31570620 6.15759091     2    440   444   445   446
H -58.05947717 -53.28439643 7.81672202     6    443    0    0    0
H -57.88141712 -56.28257593 6.67484592     6    443    0    0    0
C -54.64761498 -53.72365074 5.69648560     2    443   447   448   449
H -54.03281721 -54.74026035 4.07485005     6    446    0    0    0
H -54.51081758 -51.82567001 5.14683372     6    446    0    0    0
C -52.91043161 -54.38846585 7.89376879     2    446   450   451   452
H -53.47806925 -53.43422704 9.65991635     6    449    0    0    0
H -53.20671781 -56.43858264 8.17788686     6    449    0    0    0
C -50.25802172 -53.72203618 7.19332823     2    449   453   454   455
H -50.00394889 -54.13146751 5.16933480     6    452    0    0    0
H -50.40717324 -51.58485019 7.23135170     6    452    0    0    0
C -48.32155564 -54.55926312 9.05667903     2    452   456   457   458
H -47.80277038 -52.82299229 10.17719374     6    455    0    0    0
H -49.09174335 -56.05878694 10.34009253     6    455    0    0    0
C -45.72726558 -55.47844120 7.70928195     2    455   459   460   461
H -44.36239654 -56.11662628 9.16390042     6    458    0    0    0
H -45.83315446 -56.97295215 6.29289217     6    458    0    0    0
C -44.44953016 -53.00332753 6.72339409     2    458   462   463   464
H -45.68457555 -52.02526718 5.39939757     6    461    0    0    0
H -44.07492456 -51.70985349 8.21052898     6    461    0    0    0
C -41.75724738 -53.44366012 5.46068315     1    461   465   466   467
H -41.55645080 -54.86843757 3.95567363     6    464    0    0    0
H -40.48614216 -54.22131062 6.92870480     6    464    0    0    0
H -41.00268484 -51.70221874 4.69614392     6    464    0    0    0
H -71.22308613 -21.76497899 -18.57798721     6     469    0    0    0 
C -69.55828666 -22.72447395 -19.28965771     1     468    470    471    472
H -69.66717275 -22.92960513 -21.22409052     6     469    0    0    0
H -68.19647140 -21.37137324 -19.05223696     6     469    0    0    0
C -69.05891598 -25.07837305 -17.64224763     2     469    473    474    475
H -67.35335392 -26.09745789 -18.24858932     6     472    0    0    0
H -68.79222351 -24.49626967 -15.76048692     6     472    0    0    0
C -71.19527821 -26.92502809 -17.96635259     2     472    476   477   478
H -72.83207125 -25.81777015 -17.59573989     6     475    0    0    0
H -71.45416303 -27.74097296 -19.80304692     6     475    0    0    0
C -70.85162151 -29.19652643 -16.08000993     2     475   479   480   481
H -68.98279356 -30.31463209 -16.39526718     6    478    0    0    0
H -70.80787071 -28.24504695 -14.36508175     6    478    0    0    0
C -73.05494147 -31.11569362 -16.06199363     2    478   482   483   484
H -74.94305898 -30.29472410 -16.12016961     6    481    0    0    0
H -72.79216685 -32.26493205 -17.65560236     6    481    0    0    0
C -72.99137689 -32.84188193 -13.75787118     2    481   485   486   487
H -71.05831604 -33.78566043 -13.66112514     6    484    0    0    0
H -73.21152830 -31.54630977 -12.15823773     6    484    0    0    0
C -75.07296724 -34.99964903 -13.81853202     2    484   488   489   490
H -76.92834759 -34.16568828 -13.97476328     6    487    0    0    0
H -75.01892109 -36.09822921 -15.55971920     6    487    0    0    0
C -75.06968242 -36.56147240 -11.44290187     2    487   491   492   493
H -73.37388670 -37.64172908 -11.26241170     6    490    0    0    0
H -74.95279271 -35.16275133 -9.85592104     6    490    0    0    0
C -77.42081313 -38.29011196 -11.15442638     2    490   494   495   496
H -79.13060359 -37.17614345 -10.79202548     6    493    0    0    0
H -77.85169934 -39.24470278 -12.98717914     6    493    0    0    0
C -77.09176126 -40.27393935 -9.06625339     2    493   497   498   499
H -75.43629736 -41.33651294 -9.56309973     6    496    0    0    0
H -76.63408493 -39.18804084 -7.34424271     6    496    0    0    0
C -79.27499497 -42.07222188 -8.74620174     2    496   500   501   502
H -80.80751054 -41.29608134 -9.89380133     6    499    0    0    0
H -79.09558503 -43.91644202 -9.35744618     6    499    0    0    0
C -80.00344585 -42.26279122 -5.88270416     1    499   503   504   505
H -81.96975461 -42.82139561 -5.99206070     6    502    0    0    0
H -80.00077109 -40.49436207 -4.63204389     6    502    0    0    0
H -78.92316466 -43.69259127 -4.89401868     6    502    0    0    0
H -74.33894704 -59.52491675 7.01332492     6     507    0    0    0 
C -73.80736945 -60.11992341 8.82277171     1     506    508    509    510
H -75.46238948 -61.09937228 9.54662989     6     507    0    0    0
H -72.14247603 -61.34040617 8.60460912     6     507    0    0    0
C -73.27242941 -57.88746255 10.52297078     2     507    511    512    513
H -72.18895462 -56.49980496 9.56438728     6     510    0    0    0
H -74.96004805 -56.77402074 10.91812764     6     510    0    0    0
C -72.26108779 -58.88501417 13.19743152     2     510    514   515   516
H -73.60163358 -59.84925346 14.38251369     6     513    0    0    0
H -70.75448324 -60.33292126 12.86009577     6     513    0    0    0
C -71.27651899 -56.78104973 14.91950483     2     513   517   518   519
H -72.67711713 -55.50101411 15.46188220     6    516    0    0    0
H -70.55834806 -57.65357042 16.68690570     6    516    0    0    0
C -69.17286577 -55.32077223 13.81378788     2    516   520   521   522
H -68.11844967 -56.57367607 12.51135150     6    519    0    0    0
H -69.91047044 -53.95040550 12.53265591     6    519    0    0    0
C -67.54915899 -53.76603613 15.67597710     2    519   523   524   525
H -68.88919990 -52.15994458 16.44134070     6    522    0    0    0
H -66.71858181 -55.11062602 16.90062576     6    522    0    0    0
C -65.31040522 -52.37135374 14.33391947     2    522   526   527   528
H -64.71576868 -53.54125676 12.78708011     6    525    0    0    0
H -66.14363455 -50.86799315 13.25479856     6    525    0    0    0
C -62.98778190 -51.48999037 15.99424427     2    525   529   530   531
H -63.18571759 -49.65085973 17.00554159     6    528    0    0    0
H -62.65265541 -52.91969685 17.47154507     6    528    0    0    0
C -60.41186693 -51.64518723 14.49856050     2    528   532   533   534
H -60.12768406 -53.61438704 14.07099154     6    531    0    0    0
H -60.54663640 -50.89671129 12.59821298     6    531    0    0    0
C -58.29357403 -50.60133192 16.04373307     2    531   535   536   537
H -58.60703616 -48.66247468 16.43285073     6    534    0    0    0
H -58.35783952 -51.61457133 17.75706963     6    534    0    0    0
C -55.85186051 -51.05141510 14.47882567     2    534   538   539   540
H -55.51999360 -52.98919974 14.17926839     6    537    0    0    0
H -55.82227439 -50.10688381 12.57404182     6    537    0    0    0
C -53.44263018 -49.89910388 15.44028133     1    537   541   542   543
H -52.07840978 -49.61060000 14.01422438     6    540    0    0    0
H -52.65271481 -50.33237109 17.28025358     6    540    0    0    0
H -53.92532475 -47.85112139 15.52322667     6    540    0    0    0
H -50.64770381 -38.33180351 5.12930284     6     545    0    0    0 
C -50.71124780 -36.62765465 6.35968780     1     544    546    547    548
H -52.40080287 -36.78269218 7.42848640     6     545    0    0    0
H -49.19299011 -37.09134887 7.70942388     6     545    0    0    0
C -50.33425638 -34.29915055 4.83520040     2     545    549    550    551
H -48.79802459 -34.74309700 3.56792688     6     548    0    0    0
H -51.98341924 -33.92094677 3.71673266     6     548    0    0    0
C -49.63801881 -31.95338894 6.29796001     2     548    552   553   554
H -51.02440521 -31.65005891 7.77284271     6     551    0    0    0
H -48.03386671 -32.24482471 7.44665496     6     551    0    0    0
C -49.36734982 -29.56020078 4.72303309     2     551   555   556   557
H -48.00873575 -29.81537923 3.28073544     6    554    0    0    0
H -51.03277012 -29.12479350 3.59307995     6    554    0    0    0
C -49.00881928 -27.11380071 6.26034077     2    554   558   559   560
H -50.61028608 -26.86160891 7.31534625     6    557    0    0    0
H -47.28114162 -27.38732379 7.39539142     6    557    0    0    0
C -48.65028276 -24.80603043 4.59321226     2    557   561   562   563
H -47.22429796 -24.94977449 3.07787358     6    560    0    0    0
H -50.38245047 -24.35344742 3.63896103     6    560    0    0    0
C -48.13776085 -22.61703353 6.33123843     2    560   564   565   566
H -49.63727053 -22.55528295 7.73908177     6    563    0    0    0
H -46.35240460 -23.03269527 7.17051146     6    563    0    0    0
C -47.86155340 -20.14052584 4.86981706     2    563   567   568   569
H -46.73859150 -20.41735260 3.24267813     6    566    0    0    0
H -49.65960730 -19.55695210 4.07742634     6    566    0    0    0
C -46.51981389 -18.04788335 6.55730094     2    566   570   571   572
H -47.35335819 -18.31833791 8.54970454     6    569    0    0    0
H -44.57506488 -18.58571566 6.53688854     6    569    0    0    0
C -47.10401665 -15.42973953 5.48913372     2    569   573   574   575
H -47.35558275 -15.34333908 3.43606651     6    572    0    0    0
H -48.95020327 -15.04157182 6.38921439     6    572    0    0    0
C -45.23253443 -13.60070938 6.71239042     2    572   576   577   578
H -43.32307440 -14.20115090 6.00900685     6    575    0    0    0
H -45.45489805 -11.62214904 6.10452509     6    575    0    0    0
C -45.24636830 -13.40205455 9.53035861     1    575   579   580   581
H -46.47802478 -11.93912302 10.39663387     6    578    0    0    0
H -43.36715670 -12.84943398 10.04636551     6    578    0    0    0
H -45.31577163 -15.17673915 10.49011779     6    578    0    0    0
H -75.43797479 -18.90003163 -6.24924611     6     583    0    0    0 
C -76.75381066 -17.28922784 -5.96834530     1     582    584    585    586
H -78.55182845 -17.51389368 -6.90049975     6     583    0    0    0
H -77.46067261 -17.52768430 -4.16192416     6     583    0    0    0
C -75.51621714 -14.75713745 -6.57169036     2     583    587    588    589
H -74.86688232 -14.86230284 -8.57506311     6     586    0    0    0
H -76.75808172 -13.08910032 -6.27675046     6     586    0    0    0
C -73.13771306 -14.28828146 -5.00343035     2     586    590   591   592
H -73.62549236 -14.17411209 -3.04790966     6     589    0    0    0
H -71.89666962 -16.04090755 -4.84376957     6     589    0    0    0
C -71.63117906 -12.07508726 -6.02635383     2     589   593   594   595
H -70.98065589 -12.64173694 -7.88795930     6    592    0    0    0
H -73.00567216 -10.37913305 -6.14431925     6    592    0    0    0
C -69.31756174 -11.51244619 -4.34966359     2    592   596   597   598
H -70.13247877 -11.14301142 -2.63351339     6    595    0    0    0
H -68.44068237 -13.21481503 -3.83932132     6    595    0    0    0
C -67.26520097 -9.72486288 -5.34635059     2    595   599   600   601
H -66.49456454 -10.47177070 -7.09246389     6    598    0    0    0
H -68.20127342 -7.90499788 -5.77538052     6    598    0    0    0
C -65.10321567 -9.44854248 -3.47538505     2    598   602   603   604
H -65.82103352 -8.64071727 -1.71541013     6    601    0    0    0
H -64.07354734 -11.17605403 -3.12269568     6    601    0    0    0
C -63.36415894 -7.29912715 -4.24664622     2    601   605   606   607
H -63.09651007 -7.64699326 -6.26849941     6    604    0    0    0
H -64.23382690 -5.49543022 -4.01914863     6    604    0    0    0
C -60.85607489 -7.32390758 -2.93452040     2    604   608   609   610
H -61.11866263 -7.78987124 -0.87968416     6    607    0    0    0
H -59.82529152 -8.92023586 -3.64757508     6    607    0    0    0
C -59.09462311 -5.07475516 -3.34326097     2    607   611   612   613
H -59.00158777 -4.54930270 -5.35822997     6    610    0    0    0
H -59.99248530 -3.39986208 -2.64022108     6    610    0    0    0
C -56.39501674 -5.47335224 -2.33640264     2    610   614   615   616
H -56.89116524 -5.86021632 -0.43566939     6    613    0    0    0
H -55.55643397 -7.15292860 -3.41450526     6    613    0    0    0
C -54.78225107 -3.15100346 -2.16640960     1    613   617   618   619
H -53.07698142 -3.43105700 -1.03534047     6    616    0    0    0
H -55.97895209 -1.63538932 -1.43499499     6    616    0    0    0
H -54.05734336 -2.42990791 -3.85917939     6    616    0    0    0
H -62.28489896 -20.20869061 32.67852517     6     621    0    0    0 
C -62.79421316 -22.05512993 31.71068771     1     620    622    623    624
H -61.49674627 -22.12960572 30.12841875     6     621    0    0    0
H -62.14668488 -23.67653564 32.90615388     6     621    0    0    0
C -65.53275947 -22.06336558 31.02608199     2     621    625    626    627
H -65.89648887 -23.85791079 30.78585165     6     624    0    0    0
H -66.59572828 -21.30454344 32.53226062     6     624    0    0    0
C -66.14437518 -20.74836839 28.53039035     2     624    628   629   630
H -65.26777078 -18.77033367 28.63064966     6     627    0    0    0
H -65.02629171 -21.83164793 27.28786974     6     627    0    0    0
C -68.90147986 -20.72559957 27.73402823     2     627   631   632   633
H -69.27877614 -21.15465577 25.82995115     6    630    0    0    0
H -69.92810714 -22.29103994 28.74286466     6    630    0    0    0
C -70.09131297 -18.29764783 28.48336853     2    630   634   635   636
H -70.04052437 -17.75939111 30.49283517     6    633    0    0    0
H -69.13819833 -16.79191681 27.72789823     6    633    0    0    0
C -72.74712170 -17.75790716 27.34584319     2    633   637   638   639
H -72.67729772 -18.22422530 25.31787877     6    636    0    0    0
H -74.19712793 -19.09678567 27.81771043     6    636    0    0    0
C -73.67478702 -15.03210126 27.67069423     2    636   640   641   642
H -73.27205418 -14.03597135 29.42466200     6    639    0    0    0
H -72.53511974 -14.04166709 26.43903833     6    639    0    0    0
C -76.48278858 -14.75137693 26.80709755     2    639   643   644   645
H -76.84409295 -15.54342023 25.00061970     6    642    0    0    0
H -77.37499967 -16.30795389 27.84939733     6    642    0    0    0
C -77.98454666 -12.34969190 27.31410864     2    642   646   647   648
H -77.50952376 -11.59823108 29.24503599     6    645    0    0    0
H -77.46673326 -10.98868097 25.96247606     6    645    0    0    0
C -80.94041640 -12.39277030 27.06418948     2    645   649   650   651
H -81.32067134 -12.72487009 25.05570056     6    648    0    0    0
H -81.64825506 -14.05256957 28.23208704     6    648    0    0    0
C -82.21999777 -9.92160060 27.89402152     2    648   652   653   654
H -81.39640793 -8.92261929 29.43782208     6    651    0    0    0
H -81.92541543 -8.59106768 26.31822305     6    651    0    0    0
C -84.96847484 -10.49951180 28.43913664     1    651   655   656   657
H -85.18358746 -11.92467924 29.90439944     6    654    0    0    0
H -85.70052989 -11.25269617 26.77432841     6    654    0    0    0
H -86.00717447 -8.86600893 29.00640347     6    654    0    0    0
H -77.04221367 -15.41349740 4.50957111     6     659    0    0    0 
C -75.66563103 -16.63067845 5.46875446     1     658    660    661    662
H -75.39097577 -16.22264901 7.49506219     6     659    0    0    0
H -76.57973061 -18.51859752 5.61295062     6     659    0    0    0
C -73.15403961 -17.20736674 4.34388953     2     659    663    664    665
H -71.98576597 -18.18637225 5.64632286     6     662    0    0    0
H -73.28420239 -18.37125369 2.58640895     6     662    0    0    0
C -71.57714333 -14.82585118 3.57101616     2     662    666   667   668
H -72.64816460 -13.66556821 2.28098277     6     665    0    0    0
H -71.04117193 -13.50860423 5.10822969     6     665    0    0    0
C -69.09146273 -15.67053242 2.49940725     2     665   669   670   671
H -68.26303204 -16.98727799 3.78839103     6    668    0    0    0
H -69.34086741 -16.42222329 0.61448495     6    668    0    0    0
C -67.17728533 -13.35923548 2.33087561     2    668   672   673   674
H -67.79140894 -11.77019974 1.32925302     6    671    0    0    0
H -66.73972928 -12.53162815 4.21554765     6    671    0    0    0
C -64.70026226 -14.30406899 1.27563222     2    671   675   676   677
H -64.40931816 -16.13970271 1.97107602     6    674    0    0    0
H -64.87772336 -14.78809314 -0.72170832     6    674    0    0    0
C -62.42834675 -12.69452688 1.42168723     2    674   678   679   680
H -61.16262021 -13.21471115 -0.16294417     6    677    0    0    0
H -63.07181732 -10.85704101 1.00309507     6    677    0    0    0
C -61.10525423 -12.96964320 3.96715550     2    677   681   682   683
H -62.44743005 -12.87465984 5.59962459     6    680    0    0    0
H -60.34740916 -14.92715030 4.05152396     6    680    0    0    0
C -58.72105139 -11.16192348 4.16925796     2    680   684   685   686
H -59.40866307 -9.17071176 3.66543308     6    683    0    0    0
H -58.16831918 -11.26996058 6.15807202     6    683    0    0    0
C -56.43973221 -11.85579555 2.52188031     2    683   687   688   689
H -55.85221486 -13.81614342 2.65385815     6    686    0    0    0
H -57.26929965 -11.96654333 0.59325248     6    686    0    0    0
C -54.12696071 -10.19399464 2.73531298     2    686   690   691   692
H -54.55104658 -8.39388005 1.81977069     6    689    0    0    0
H -53.61834122 -10.04518099 4.65734472     6    689    0    0    0
C -51.83634309 -11.19260560 1.18852573     1    689   693   694   695
H -50.40154506 -9.77326188 1.03374075     6    692    0    0    0
H -52.24510663 -11.69095059 -0.72904625     6    692    0    0    0
H -51.00997674 -12.68576265 2.21686977     6    692    0    0    0
H -41.57629269 -20.09729489 9.54446454     6     697    0    0    0 
C -40.94872460 -19.79095007 11.45445431     1     696    698    699    700
H -38.91696224 -19.59157127 11.20713384     6     697    0    0    0
H -41.72882175 -18.11801124 12.35955280     6     697    0    0    0
C -41.55001925 -21.89113038 13.15254706     2     697    701    702    703
H -40.77584308 -21.49737203 15.12419361     6     700    0    0    0
H -43.41294051 -21.90875889 13.19408270     6     700    0    0    0
C -40.47605918 -24.34285476 12.08254175     2     700    704   705   706
H -38.38021571 -24.14877062 12.22417343     6     703    0    0    0
H -40.82940419 -25.77660917 13.42576897     6     703    0    0    0
C -41.34187829 -25.31754864 9.43033580     2     703   707   708   709
H -43.39105292 -25.37024768 9.39166105     6    706    0    0    0
H -40.79865957 -23.98466166 7.88871089     6    706    0    0    0
C -40.42985609 -27.94928876 8.89014829     2    706   710   711   712
H -38.46920269 -27.92095997 8.46173297     6    709    0    0    0
H -40.76488737 -29.20248835 10.42138170     6    709    0    0    0
C -41.82796369 -29.23167672 6.63137772     2    709   713   714   715
H -43.72365883 -29.95285650 7.24637227     6    712    0    0    0
H -42.14602505 -27.88964189 5.20216664     6    712    0    0    0
C -40.44092787 -31.56845284 5.59098612     2    712   716   717   718
H -38.64385238 -30.86527713 4.97100835     6    715    0    0    0
H -39.98386734 -32.99966845 7.15301041     6    715    0    0    0
C -41.97700612 -32.93955419 3.54894383     2    715   719   720   721
H -43.90562796 -33.18476170 4.17828278     6    718    0    0    0
H -41.98995605 -31.90143199 1.74890263     6    718    0    0    0
C -40.86905552 -35.55883502 2.88137396     2    718   722   723   724
H -38.87300923 -35.58360723 2.65295214     6    721    0    0    0
H -41.29448287 -36.79248269 4.49627779     6    721    0    0    0
C -42.06520021 -36.79558883 0.66381429     2    721   725   726   727
H -44.04012912 -36.72524960 0.98162223     6    724    0    0    0
H -41.65088180 -35.92013270 -1.12779686     6    724    0    0    0
C -41.62850862 -39.73337012 0.69476402     2    724   728   729   730
H -41.70405196 -40.42156006 2.56142485     6    727    0    0    0
H -42.90265965 -40.94318368 -0.45497917     6    727    0    0    0
C -38.94744552 -40.42427629 -0.34111199     1    727   731   732   733
H -38.92748837 -42.48417598 0.08163698     6    730    0    0    0
H -37.50116120 -39.39250512 0.71797877     6    730    0    0    0
H -38.64922035 -40.17497794 -2.35458877     6    730    0    0    0
H -58.03592529 -32.89693978 -21.01596859     6     735    0    0    0 
C -59.00614563 -34.19490070 -22.20509085     1     734    736    737    738
H -58.05428988 -34.23192638 -24.03909448     6     735    0    0    0
H -58.79726455 -36.09091078 -21.29502579     6     735    0    0    0
C -61.86359067 -33.66559233 -22.36686215     2     735    739    740    741
H -62.49904721 -31.71403909 -22.74114961     6     738    0    0    0
H -62.64782710 -35.20781639 -23.60607797     6     738    0    0    0
C -63.23014371 -34.21439681 -19.71678640     2     738    742   743   744
H -62.27326584 -35.94841786 -18.80737164     6     741    0    0    0
H -62.67121235 -32.61436430 -18.57312588     6     741    0    0    0
C -66.04577683 -34.64643093 -19.57875611     2     741   745   746   747
H -66.99020942 -32.86196628 -20.19943292     6    744    0    0    0
H -66.37591701 -36.01778778 -21.04895562     6    744    0    0    0
C -67.06216051 -35.60286885 -17.00388782     2    744   748   749   750
H -66.65579116 -34.24193284 -15.54615236     6    747    0    0    0
H -69.04868492 -36.04654318 -17.04656027     6    747    0    0    0
C -66.19601513 -38.31123848 -16.20378554     2    747   751   752   753
H -66.01915284 -39.13237016 -18.10035909     6    750    0    0    0
H -64.27741188 -38.16388590 -15.16214166     6    750    0    0    0
C -68.19920297 -39.92448201 -14.81457818     2    750   754   755   756
H -68.94163701 -38.96355574 -13.23097442     6    753    0    0    0
H -69.74120862 -40.37341520 -16.17378554     6    753    0    0    0
C -66.80856652 -42.29001109 -13.64730221     2    753   757   758   759
H -65.69809022 -43.10613704 -15.13478750     6    756    0    0    0
H -65.54605264 -41.68928461 -12.14277963     6    756    0    0    0
C -68.68251353 -44.15165477 -12.51871120     2    756   760   761   762
H -69.60079211 -43.26721585 -10.98587295     6    759    0    0    0
H -70.12437149 -44.67840494 -13.85537982     6    759    0    0    0
C -67.29435733 -46.49828535 -11.61930548     2    759   763   764   765
H -66.68482538 -47.59715761 -13.23305333     6    762    0    0    0
H -65.73666818 -45.92197143 -10.37693681     6    762    0    0    0
C -69.08845972 -48.31123384 -10.37852737     2    762   766   767   768
H -69.72327411 -47.65665419 -8.51841268     6    765    0    0    0
H -70.76942587 -48.51143682 -11.46478734     6    765    0    0    0
C -67.93439775 -50.82853476 -9.97865800     1    765   769   770   771
H -67.11169550 -51.30459101 -11.79832953     6    768    0    0    0
H -69.22641349 -52.39348361 -9.63330874     6    768    0    0    0
H -66.41643719 -51.03364041 -8.48882457     6    768    0    0    0
H -72.64739467 -34.62492236 31.78727488     6     773    0    0    0 
C -72.64764511 -36.46585052 32.66862186     1     772    774    775    776
H -72.19542400 -35.92041502 34.72066474     6     773    0    0    0
H -74.54456663 -37.13551712 32.62136013     6     773    0    0    0
C -70.73401170 -38.25875183 31.33277894     2     773    777    778    779
H -70.87860246 -40.06702000 32.33167402     6     776    0    0    0
H -71.49601104 -38.89024825 29.54480593     6     776    0    0    0
C -68.04671439 -37.46263956 31.76374543     2     776    780   781   782
H -67.93627612 -35.70115529 30.55622137     6     779    0    0    0
H -67.69779543 -36.96449509 33.65135858     6     779    0    0    0
C -66.03206489 -39.32595946 30.68681217     2     779   783   784   785
H -66.36125338 -41.09978232 31.71121968     6    782    0    0    0
H -66.35916638 -39.77732724 28.66934805     6    782    0    0    0
C -63.31637267 -38.46666698 31.12005363     2    782   786   787   788
H -63.07463294 -36.69239294 30.06348683     6    785    0    0    0
H -63.03121022 -38.00222011 33.08207703     6    785    0    0    0
C -61.44636654 -40.43913473 30.16154089     2    785   789   790   791
H -61.91117607 -42.31176333 30.77440062     6    788    0    0    0
H -61.66106766 -40.50455778 28.14745530     6    788    0    0    0
C -58.69829385 -39.90636522 30.87917674     2    788   792   793   794
H -58.28815272 -37.82233708 30.96080165     6    791    0    0    0
H -58.51608421 -40.75248620 32.76415750     6    791    0    0    0
C -56.77364388 -41.05212176 29.00447707     2    791   795   796   797
H -57.08699206 -43.09594068 28.85812209     6    794    0    0    0
H -57.02530286 -40.08756412 27.27364154     6    794    0    0    0
C -54.07458546 -40.98058431 30.11113486     2    794   798   799   800
H -53.24992145 -39.06949370 29.85678386     6    797    0    0    0
H -54.36923893 -41.40201647 32.07695808     6    797    0    0    0
C -52.48542462 -43.14266474 29.01668130     2    797   801   802   803
H -53.07944556 -45.01946568 29.54700631     6    800    0    0    0
H -52.96177555 -42.99336128 27.04961663     6    800    0    0    0
C -49.62419080 -42.78707087 29.36542315     2    800   804   805   806
H -49.04524335 -40.96016588 28.78449466     6    803    0    0    0
H -49.46604924 -42.87545164 31.46393851     6    803    0    0    0
C -47.94194122 -44.82235918 28.22875095     1    803   807   808   809
H -46.03565441 -44.65215297 28.92711245     6    806    0    0    0
H -47.98682228 -44.59059501 26.13108848     6    806    0    0    0
H -48.43962218 -46.73564166 28.93302029     6    806    0    0    0
H -75.79224146 -21.83079759 -0.15923363     6     811    0    0    0 
C -77.83845617 -21.71593689 0.62448899     1     810    812    813    814
H -78.36768439 -19.82425207 1.33524326     6     811    0    0    0
H -79.35833951 -22.06922085 -0.82260644     6     811    0    0    0
C -78.31686587 -23.69395213 2.66570593     2     811    815    816    817
H -76.98372215 -23.39882348 4.29105920     6     814    0    0    0
H -80.25154668 -23.54577162 3.36451699     6     814    0    0    0
C -77.84858372 -26.33194331 1.64978757     2     814    818   819   820
H -79.34952163 -26.56820322 0.32937266     6     817    0    0    0
H -76.05947218 -26.43077840 0.56118928     6     817    0    0    0
C -77.66484361 -28.47190302 3.59572526     2     817   821   822   823
H -77.35392411 -30.25089188 2.59165323     6    820    0    0    0
H -75.83951987 -28.17747053 4.61403702     6    820    0    0    0
C -79.93479589 -28.69121477 5.49408467     2    820   824   825   826
H -79.72204945 -27.03651837 6.82254014     6    823    0    0    0
H -81.66032459 -28.14610882 4.44129490     6    823    0    0    0
C -80.22702853 -31.47209730 6.51866063     2    823   827   828   829
H -80.19868402 -32.79540588 4.81772480     6    826    0    0    0
H -78.55894367 -31.92429285 7.62921079     6    826    0    0    0
C -82.69844427 -31.84369481 8.13043188     2    826   830   831   832
H -83.07855835 -30.30319238 9.29043694     6    829    0    0    0
H -84.32961267 -31.79889105 6.90959620     6    829    0    0    0
C -82.74994442 -34.29948684 9.69536415     2    829   833   834   835
H -82.25410925 -35.87862926 8.46131813     6    832    0    0    0
H -81.40798744 -34.15133515 11.13158129     6    832    0    0    0
C -85.32195452 -34.61856411 11.00105847     2    832   836   837   838
H -85.76152595 -32.89735940 12.19826270     6    835    0    0    0
H -86.72311580 -34.93901617 9.63988505     6    835    0    0    0
C -85.29173008 -36.86871464 12.92366428     2    835   839   840   841
H -84.95850126 -38.58667313 11.86128401     6    838    0    0    0
H -83.68591723 -36.91990518 14.31341950     6    838    0    0    0
C -87.70961450 -37.29918099 14.52613291     2    838   842   843   844
H -88.72666219 -35.52136763 14.81957439     6    841    0    0    0
H -89.22663671 -38.30922160 13.47657736     6    841    0    0    0
C -87.22325978 -38.49633600 17.18081735     1    841   845   846   847
H -86.36174295 -40.41028856 17.20222479     6    844    0    0    0
H -89.07859041 -38.81695191 18.18112284     6    844    0    0    0
H -85.89339163 -37.17060723 18.08038206     6    844    0    0    0
H -51.32722100 -1.14211372 2.77628854     6     849    0    0    0 
C -51.94070387 -0.56408912 4.74828604     1     848    850    851    852
H -50.23262249 -0.14126964 5.86268208     6     849    0    0    0
H -52.87453320 1.28816618 4.40768613     6     849    0    0    0
C -53.97928670 -2.19271399 5.98269199     2     849    853    854    855
H -53.74931504 -4.21041395 5.48391999     6     852    0    0    0
H -54.17686827 -1.79174663 7.95311334     6     852    0    0    0
C -56.70161668 -1.54519076 5.05389397     2     852    856   857   858
H -57.51125578 0.13169006 5.92899939     6     855    0    0    0
H -56.75291879 -1.25452454 3.01895456     6     855    0    0    0
C -58.53729080 -3.65189433 5.75271799     2     855   859   860   861
H -58.16007759 -5.32502605 4.67385064     6    858    0    0    0
H -58.24079557 -3.78044477 7.78910379     6    858    0    0    0
C -61.33866225 -2.95867370 5.24745308     2    858   862   863   864
H -61.63802196 -1.12742456 5.97245282     6    861    0    0    0
H -61.47783740 -2.61122523 3.33060652     6    861    0    0    0
C -63.37148841 -4.88544143 5.81899539     2    861   865   866   867
H -62.76523815 -6.71528583 5.03551071     6    864    0    0    0
H -63.40719321 -5.38013339 7.78571619     6    864    0    0    0
C -65.84101360 -4.28009307 4.37421513     2    864   868   869   870
H -67.04787503 -3.09967802 5.59081115     6    867    0    0    0
H -65.63604143 -3.45400014 2.49936457     6    867    0    0    0
C -67.33694538 -6.60437578 3.86004146     2    867   871   872   873
H -66.30397600 -7.86096176 2.73385059     6    870    0    0    0
H -67.48893879 -7.54136084 5.70593066     6    870    0    0    0
C -70.07442059 -6.15691471 2.96796315     2    870   874   875   876
H -71.33073353 -7.85171825 3.22365599     6    873    0    0    0
H -70.78892742 -4.78285758 4.29259037     6    873    0    0    0
C -70.25494769 -4.94742478 0.25332755     2    873   877   878   879
H -69.48985843 -3.05120365 0.23178603     6    876    0    0    0
H -69.10029783 -6.05742520 -1.17473906     6    876    0    0    0
C -73.00954115 -4.71451631 -0.69698166     2    876   880   881   882
H -74.19491692 -6.46516509 -0.72076248     6    879    0    0    0
H -74.04851791 -3.53289809 0.70985093     6    879    0    0    0
C -72.97653831 -3.81136842 -3.49366121     1    879   883   884   885
H -72.82454795 -5.31450025 -4.92181673     6    882    0    0    0
H -71.52003863 -2.46069051 -3.82277759     6    882    0    0    0
H -74.83208561 -2.87105940 -3.79880867     6    882    0    0    0
H -69.67102504 -33.38201556 13.95265408     6     887    0    0    0 
C -71.66048013 -33.39486638 13.91464510     1     886    888    889    890
H -72.29456653 -34.92097006 12.55942844     6     887    0    0    0
H -72.20432616 -33.74625073 15.96060286     6     887    0    0    0
C -72.53978011 -30.91786541 12.66634426     2     887    891    892    893
H -74.53616949 -30.71581264 12.60666226     6     890    0    0    0
H -71.73421617 -29.31047245 13.65181451     6     890    0    0    0
C -71.68131550 -30.55334434 9.86554468     2     890    894   895   896
H -69.86123106 -31.49453176 9.82041629     6     893    0    0    0
H -72.77277833 -31.86162222 8.48584342     6     893    0    0    0
C -71.25932693 -27.75879513 9.18281717     2     893   897   898   899
H -72.97357225 -26.72165434 9.41851303     6    896    0    0    0
H -69.99507607 -26.84512687 10.44079151     6    896    0    0    0
C -70.01389208 -27.58066719 6.66235784     2    896   900   901   902
H -67.93674093 -27.65091499 6.94381498     6    899    0    0    0
H -70.71270707 -29.09190932 5.50580378     6    899    0    0    0
C -70.47297014 -25.04361733 5.23333992     2    899   903   904   905
H -72.54395980 -24.72806300 5.00150214     6    902    0    0    0
H -69.37656707 -23.51295491 6.00908233     6    902    0    0    0
C -69.54692750 -25.57753196 2.48741930     2    902   906   907   908
H -68.04727407 -27.05975424 2.55295674     6    905    0    0    0
H -71.00878766 -26.50046155 1.31651531     6    905    0    0    0
C -68.86622049 -23.00635209 1.25302712     2    905   909   910   911
H -70.32502715 -21.72606749 1.59316933     6    908    0    0    0
H -67.19007871 -22.52170168 2.15986253     6    908    0    0    0
C -68.23225630 -22.92214407 -1.55836724     2    908   912   913   914
H -66.63273836 -24.04237182 -1.62005411     6    911    0    0    0
H -69.68791770 -23.74662017 -2.55352435     6    911    0    0    0
C -67.53535374 -20.36332403 -2.44559378     2    911   915   916   917
H -69.34037874 -19.24425935 -2.52920182     6    914    0    0    0
H -66.23177748 -19.48383697 -1.11300290     6    914    0    0    0
C -66.28149414 -20.48463338 -5.13323425     2    914   918   919   920
H -64.52728151 -21.47389917 -4.82595239     6    917    0    0    0
H -67.51396671 -21.44094291 -6.32469748     6    917    0    0    0
C -65.71669983 -17.98107078 -6.45796312     1    917   921   922   923
H -64.60813492 -16.84421628 -5.03765605     6    920    0    0    0
H -67.47400969 -16.94599108 -6.98979417     6    920    0    0    0
H -64.58666666 -18.05576245 -8.17387177     6    920    0    0    0
H -72.49068748 -7.42993821 10.81143970     6     925    0    0    0 
C -74.09067565 -6.46460940 11.67447495     1     924    926    927    928
H -73.52629052 -6.32712919 13.63516393     6     925    0    0    0
H -74.01024296 -4.63748043 10.81762209     6     925    0    0    0
C -76.22579971 -8.06922366 10.76168935     2     925    929    930    931
H -76.30810347 -9.83221766 11.93208954     6     928    0    0    0
H -77.89406849 -7.12500900 11.19156743     6     928    0    0    0
C -76.12178665 -8.51633213 7.94838881     2     928    932   933   934
H -76.10464530 -6.73665030 6.94228192     6     931    0    0    0
H -74.38562734 -9.51152055 7.38929964     6     931    0    0    0
C -78.42888611 -10.19105225 7.03230300     2     931   935   936   937
H -78.00600480 -12.07821449 7.63905324     6    934    0    0    0
H -79.99573429 -9.32581282 7.89543500     6    934    0    0    0
C -78.58447523 -10.39051878 4.26123294     2    934   938   939   940
H -78.93694114 -8.45711808 3.55445487     6    937    0    0    0
H -76.85491822 -11.06773950 3.45968798     6    937    0    0    0
C -80.87298160 -11.92307740 3.45242033     2    937   941   942   943
H -80.99301713 -13.76044046 4.52395384     6    940    0    0    0
H -82.53953947 -10.92347945 3.87718312     6    940    0    0    0
C -81.07903234 -12.54459098 0.46800850     2    940   944   945   946
H -79.23952596 -13.30331806 0.15398866     6    943    0    0    0
H -82.51873589 -13.86982023 0.14511310     6    943    0    0    0
C -81.56843785 -10.17662505 -1.04018005     2    943   947   948   949
H -83.24095805 -8.96355092 -0.46879362     6    946    0    0    0
H -79.87846605 -9.22896701 -0.76571118     6    946    0    0    0
C -82.00707864 -10.67934557 -3.71268184     2    946   950   951   952
H -80.42414414 -11.86205786 -4.55107981     6    949    0    0    0
H -83.65042922 -11.76914802 -3.77840733     6    949    0    0    0
C -82.29857796 -8.16645565 -5.23315946     2    949   953   954   955
H -83.37626690 -6.72246939 -4.40693889     6    952    0    0    0
H -80.28329866 -7.50967109 -5.39344728     6    952    0    0    0
C -83.17519234 -8.71455343 -7.88570934     2    952   956   957   958
H -81.99967665 -10.20496826 -8.58261727     6    955    0    0    0
H -85.09072408 -9.60237511 -7.80303374     6    955    0    0    0
C -83.15879121 -6.31612466 -9.53747209     1    955   959   960   961
H -83.50349834 -6.56471656 -11.51055741     6    958    0    0    0
H -81.25376895 -5.59195899 -9.33102025     6    958    0    0    0
H -84.54466403 -4.83115721 -8.90317379     6    958    0    0    0
H -60.44220658 -45.85728945 0.12021950     6     963    0    0    0 
C -59.56245044 -44.01603096 0.16899127     1     962    964    965    966
H -57.79414922 -43.87369163 -0.95669692     6     963    0    0    0
H -60.80595354 -42.49375285 -0.53001038     6     963    0    0    0
C -58.89065566 -43.56695562 2.72278715     2     963    967    968    969
H -58.34371496 -41.54414926 2.82836698     6     966    0    0    0
H -60.48213021 -43.75792680 3.95871073     6     966    0    0    0
C -56.57362174 -45.09951925 3.52237572     2     966    970   971   972
H -56.85778975 -47.11699551 3.05233925     6     969    0    0    0
H -55.06996751 -44.38814094 2.37035931     6     969    0    0    0
C -55.81257963 -44.86275404 6.29736849     2     969   973   974   975
H -55.67977695 -42.78471573 6.81313236     6    972    0    0    0
H -57.27868362 -45.55508064 7.60442775     6    972    0    0    0
C -53.26622776 -45.94140542 6.82718775     2    972   976   977   978
H -53.24572058 -47.95307348 6.38472287     6    975    0    0    0
H -51.92754039 -45.06366308 5.61935014     6    975    0    0    0
C -52.26845466 -45.64933784 9.52382965     2    975   979   980   981
H -52.68336443 -43.81210871 10.30740847     6    978    0    0    0
H -53.19869482 -46.83988290 11.01608306     6    978    0    0    0
C -49.37678649 -45.80005195 9.50206556     2    978   982   983   984
H -48.62823866 -47.68743950 9.01511826     6    981    0    0    0
H -48.62018816 -44.57120640 8.08211203     6    981    0    0    0
C -48.24776229 -45.22261203 12.02804805     2    981   985   986   987
H -49.63799990 -44.08219998 13.04497527     6    984    0    0    0
H -48.12580034 -46.96588367 13.02713924     6    984    0    0    0
C -45.58675650 -43.91997710 11.88677870     2    984   988   989   990
H -44.47416077 -44.33006564 13.60239785     6    987    0    0    0
H -44.46974771 -44.62947167 10.42335319     6    987    0    0    0
C -45.87226384 -41.05225832 11.18076060     2    987   991   992   993
H -46.80591497 -40.97200084 9.37095426     6    990    0    0    0
H -46.89294477 -40.04495858 12.71106158     6    990    0    0    0
C -43.32880039 -39.65762499 11.24735800     2    990   994   995   996
H -42.42545250 -39.63097489 13.19106527     6    993    0    0    0
H -41.99030632 -41.09563415 10.36139173     6    993    0    0    0
C -43.56842552 -37.17602966 9.89779382     1    993   997   998   999
H -44.78780061 -37.47930122 8.26753303     6    996    0    0    0
H -41.72310770 -36.39110417 9.30501632     6    996    0    0    0
H -44.54377912 -35.82149011 11.08595163     6    996    0    0    0
H -77.15038042 -55.98677590 3.51267240     6     1001    0    0    0 
C -76.25202784 -54.80495874 2.15504281     1     1000    1002    1003    1004
H -77.21592435 -54.93598724 0.26069122     6     1001    0    0    0
H -76.44839837 -52.85778620 2.94467686     6     1001    0    0    0
C -73.61430950 -55.62798072 1.86370515     2     1001    1005    1006    1007
H -72.53897979 -55.63111871 3.65449785     6     1004    0    0    0
H -73.62738144 -57.54887899 1.31912855     6     1004    0    0    0
C -72.07272740 -53.98819856 0.10747922     2     1004    1008   1009   1010
H -73.11060402 -53.86757150 -1.63133927     6     1007    0    0    0
H -72.04604269 -51.93752396 0.82527870     6     1007    0    0    0
C -69.32167963 -54.98137213 -0.21169000     2     1007   1011   1012   1013
H -68.18420664 -54.90854419 1.54258866     6    1010    0    0    0
H -69.31757181 -56.83952830 -0.99778698     6    1010    0    0    0
C -67.84143406 -53.34972609 -2.12708465     2    1010   1014   1015   1016
H -69.04181055 -52.97817183 -3.79496667     6    1013    0    0    0
H -67.65345694 -51.28191705 -1.52688850     6    1013    0    0    0
C -65.22889992 -54.33728501 -2.87248378     2    1013   1017   1018   1019
H -64.38904878 -55.34026439 -1.21922965     6    1016    0    0    0
H -65.44688900 -55.71346271 -4.33687418     6    1016    0    0    0
C -63.21026154 -52.51398344 -3.68545165     2    1016   1020   1021   1022
H -63.75661207 -52.15322775 -5.64116404     6    1019    0    0    0
H -63.24659717 -50.79360648 -2.51484130     6    1019    0    0    0
C -60.59097334 -53.75127989 -3.77182660     2    1019   1023   1024   1025
H -60.24384270 -54.87296978 -2.01138769     6    1022    0    0    0
H -60.45149396 -55.19652917 -5.38642436     6    1022    0    0    0
C -58.47013609 -51.89724989 -4.19011155     2    1022   1026   1027   1028
H -58.34121921 -51.32120988 -6.26080491     6    1025    0    0    0
H -58.48055503 -50.09737318 -3.14088795     6    1025    0    0    0
C -55.86073898 -53.11464674 -3.90531032     2    1025   1029   1030   1031
H -55.74581662 -53.68662922 -1.85047185     6    1028    0    0    0
H -55.27919623 -54.67488457 -5.17236146     6    1028    0    0    0
C -53.73795619 -51.14741185 -4.31844533     2    1028   1032   1033   1034
H -53.60482644 -50.88040401 -6.26222848     6    1031    0    0    0
H -54.64371998 -49.36673926 -3.53184513     6    1031    0    0    0
C -51.30447279 -51.50352938 -2.90233868     1    1031   1035   1036   1037
H -50.14675526 -49.86768729 -3.18168205     6    1034    0    0    0
H -50.49422593 -53.34454112 -3.41390839     6    1034    0    0    0
H -51.67898351 -51.40719742 -0.73878253     6    1034    0    0    0
H -69.06506860 -27.37665432 29.42566417     6     1039    0    0    0 
C -70.85715968 -27.22877744 28.45947909     1     1038    1040    1041    1042
H -71.98702279 -25.91380795 29.52451333     6     1039    0    0    0
H -70.66657967 -26.57235460 26.46606011     6     1039    0    0    0
C -71.77242221 -30.01478668 28.21048844     2     1039    1043    1044    1045
H -70.23697227 -30.93446987 27.19261356     6     1042    0    0    0
H -71.87059093 -30.71087995 30.20862974     6     1042    0    0    0
C -74.12498623 -30.54973693 26.71075321     2     1042    1046   1047   1048
H -73.85935358 -29.53832762 24.97104878     6     1045    0    0    0
H -73.97049125 -32.43654723 25.88505139     6     1045    0    0    0
C -76.67136598 -29.72114278 27.89531265     2     1045   1049   1050   1051
H -77.03918019 -30.62975462 29.73789420     6    1048    0    0    0
H -76.34571332 -27.67935398 28.47101965     6    1048    0    0    0
C -78.79261285 -29.95899041 26.07234396     2    1048   1052   1053   1054
H -78.35441118 -29.14987432 24.21119962     6    1051    0    0    0
H -79.23416292 -31.88740297 25.60175426     6    1051    0    0    0
C -81.32783139 -28.65010525 26.85414187     2    1051   1055   1056   1057
H -82.20113988 -30.16575832 28.06735860     6    1054    0    0    0
H -80.97976617 -26.76751184 27.68096558     6    1054    0    0    0
C -82.81542954 -28.25549658 24.44113707     2    1054   1058   1059   1060
H -81.74396391 -27.44109760 22.85432795     6    1057    0    0    0
H -83.42711955 -30.11973749 23.77967680     6    1057    0    0    0
C -85.08413447 -26.57500602 25.14030491     2    1057   1061   1062   1063
H -86.01657809 -27.27130267 26.76381802     6    1060    0    0    0
H -84.39739768 -24.73408418 25.72423240     6    1060    0    0    0
C -86.99854258 -26.41400165 23.18165349     2    1060   1064   1065   1066
H -86.16838870 -25.53199948 21.41965415     6    1063    0    0    0
H -87.57699877 -28.32401754 22.65895508     6    1063    0    0    0
C -89.30596370 -24.84138619 24.10112465     2    1063   1067   1068   1069
H -90.47673020 -26.04228415 25.10250166     6    1066    0    0    0
H -88.76684280 -23.40505106 25.64200378     6    1066    0    0    0
C -90.52640818 -23.30192360 22.01376898     2    1066   1070   1071   1072
H -89.07220439 -22.48644178 20.81147493     6    1069    0    0    0
H -91.52054006 -24.48525943 20.86466315     6    1069    0    0    0
C -91.84067074 -21.00406463 23.22727787     1    1069   1073   1074   1075
H -92.93184229 -19.84990439 21.80863739     6    1072    0    0    0
H -90.41697572 -19.84697038 24.04655455     6    1072    0    0    0
[...]
 1619      H     -67.9373933100   -40.7039983700    40.5154481600
 1620      H     -68.1932689800   -39.0146358100    37.4781968800
 1621      C     -64.5042790500   -39.0709780000    39.3964775900
 1622      H     -63.6675764500   -37.3363035900    38.7404703900
 1623      H     -63.7724426200   -39.0060084000    41.4460596500
 1624      C     -63.4847297200   -41.3396079900    38.0984937200
 1625      H     -64.5949761800   -42.9990280000    38.8116266100
 1626      H     -63.8469047600   -40.9474390000    36.1303005600
 1627      C     -60.6672529300   -41.9283133000    38.6072750400
 1628      H     -59.3172604900   -40.6352060700    37.8984765100
 1629      H     -60.3092245200   -42.1061722000    40.6552670700
 1630      C     -59.9396039300   -44.3030761700    37.0238344500
 1631      H     -60.9585653800   -45.9877663500    37.6842832300
 1632      H     -60.7371766800   -44.0785094400    35.0247719500
 1633      C     -56.9289140100   -44.7913130200    36.9248155400
 1634      H     -56.2021076700   -43.0140471000    35.8977549400
 1635      H     -56.1774725800   -44.6953820000    38.7758042800
 1636      C     -56.1736854900   -47.1128025700    35.5485611300
 1637      H     -56.7357970100   -48.7703226100    36.6620073000
 1638      H     -57.2216114500   -47.2500734900    33.7007404600
 1639      C     -53.2862573100   -47.2514732300    35.3256733200
 1640      H     -52.4966883600   -45.3793264000    35.0822222100
 1641      H     -52.4302855600   -47.6208483600    37.1442529600
 1642      C     -52.2553544200   -49.2646676000    33.6196223800
 1643      H     -52.5106890400   -51.0351629100    34.4961729900
 1644      H     -50.2362177900   -48.8665455300    33.5424375800
 1645      H     -53.0838426700   -49.2605847400    31.8591919500
 1646      H     -77.5386419400   -52.6376089200    24.0386338500
 1647      C     -76.8150873700   -54.5946088000    24.3004857300
 1648      H     -76.4182643200   -54.9795817800    26.2570645000
 1649      H     -78.2167517800   -56.0772469100    23.7401704700
 1650      C     -74.4540250200   -55.0666131600    22.6773489000
 1651      H     -74.1473074300   -57.1147240300    22.5545233300
 1652      H     -74.4044785400   -54.1361576100    20.8057799200
 1653      C     -72.3466851100   -53.7440398600    24.0262612100
 1654      H     -72.5637527400   -51.5690824200    24.2310086400
 1655      H     -72.2629828400   -54.2521875900    26.0435032000
 1656      C     -69.6801997000   -53.9775774000    22.6480261400
 1657      H     -69.0436688900   -55.9044854200    22.4034157200
 1658      H     -70.0692462200   -53.2534411100    20.7668141900
 1659      C     -67.6911649900   -52.3097077400    23.9605415600
 1660      H     -68.3773983600   -50.4437287400    23.8778074000
 1661      H     -67.5303017000   -52.7431421900    25.9891508500
 1662      C     -65.0356049400   -52.7121648500    22.7631466000
 1663      H     -64.4011689800   -54.6871477500    22.8251155600
 1664      H     -65.1099793800   -51.7461810400    20.9715418500
 1665      C     -62.7842033800   -51.5970371300    24.1823962400
 1666      H     -63.2577424200   -49.5882028800    24.5471190100
 1667      H     -62.4446123700   -52.5402683300    25.9985279200
 1668      C     -60.3713807900   -51.5357308300    22.5567006700
 1669      H     -59.8809594700   -53.5193644500    22.0107959500
 1670      H     -60.6386726200   -50.4139438400    20.8506268800
 1671      C     -58.1623925400   -50.5941875500    24.1577801000
 1672      H     -58.4418917100   -48.6969042300    24.5480252900
 1673      H     -58.3484919800   -51.4264457100    26.0539354800
 1674      C     -55.5822549000   -50.9223052300    23.2303369800
 1675      H     -55.0688678300   -52.8985723800    22.8394007000
 1676      H     -55.2599738300   -50.0685838600    21.4006816800
 1677      C     -53.6150088900   -50.1706417900    25.1191954300
 1678      H     -53.8475268300   -48.2083781000    25.6663719200
 1679      H     -53.6803941900   -51.4199514500    26.8598684400
 1680      C     -50.8664379100   -50.6054620500    24.2845303500
 1681      H     -49.6257348300   -49.9700754200    25.6420745500
 1682      H     -50.5893216800   -49.6146749400    22.4019662100
 1683      H     -50.7319516300   -52.5867876300    23.9272109000
 1684      H     -72.5063002100   -50.7631177900     9.0119956900
 1685      C     -73.3256997000   -49.7518607900     7.4853848500
 1686      H     -73.0562813500   -50.4239877100     5.6187825500
 1687      H     -75.3886444400   -49.9992032400     7.6102862000
 1688      C     -72.7490268600   -47.0013886800     7.5383747100
 1689      H     -73.9918309900   -46.1700069500     6.0437303800
 1690      H     -73.6380093500   -46.2020505800     9.2415520000
 1691      C     -70.0139571800   -46.4343971900     7.3693202800
 1692      H     -68.8561506800   -47.8234199300     8.3135307000
 1693      H     -69.3551950000   -46.7500479200     5.4238209900
 1694      C     -69.2584641100   -43.8539392700     8.2693244300
 1695      H     -67.2935622300   -43.7671016900     7.9843339500
 1696      H     -70.1256043200   -42.4341635900     7.1122780500
 1697      C     -69.7077062400   -43.5012351000    11.1424869500
 1698      H     -71.7264407700   -43.6074801300    11.6353005700
 1699      H     -68.9623482200   -45.0319634100    12.1456481400
 1700      C     -68.6834001600   -41.0329491100    12.2889970700
 1701      H     -66.7345874300   -40.8264097500    11.8269485000
 1702      H     -69.9296868200   -39.5650087400    11.4134274600
 1703      C     -68.9377598200   -41.1314563100    15.2341200600
 1704      H     -70.9095069700   -41.4931786100    15.6304699300
 1705      H     -68.1338752300   -42.7932459300    15.7748035400
 1706      C     -67.4838798300   -38.8284160000    16.3938531400
 1707      H     -65.4967387600   -39.0742543900    16.7843137300
 1708      H     -67.6348845200   -37.2375855000    15.0542607100
 1709      C     -68.7930800100   -38.1595529700    18.8863450100
 1710      H     -70.8352511100   -37.8719161600    18.5596774300
 1711      H     -68.6517526900   -39.6736188500    20.3433549100
 1712      C     -67.6432402300   -35.8754705400    20.1446196000
 1713      H     -65.6326990500   -36.2383302500    20.3718717200
 1714      H     -67.6064252100   -34.3362563400    18.8689610000
 1715      C     -69.0854355600   -35.0100231400    22.6530166900
 1716      H     -68.2826428500   -33.0644011800    22.7552906400
 1717      H     -71.0429489300   -34.5214456400    22.4634639300
 1718      C     -68.5060704000   -36.5097946000    25.0249149800
 1719      H     -68.7353447700   -35.3952328100    26.6977059800
 1720      H     -66.6075585700   -37.3250458300    25.0534505400
 1721      H     -69.7923141600   -38.2162898000    25.1358604100
 1722      H     -45.3836966300   -48.4799588700    -0.1407559000
 1723      C     -45.8711946300   -47.7395264700     1.7271225900
 1724      H     -47.4808676500   -48.7444427300     2.3985952800
 1725      H     -44.3539524400   -48.4674169100     2.8974857000
 1726      C     -46.2927789600   -44.8777671700     1.7605225000
 1727      H     -46.5135345200   -44.2423515000     3.7795124600
 1728      H     -44.5383787700   -44.1248952500     1.1373124400
 1729      C     -48.3729683400   -44.1225883500     0.0768636900
 1730      H     -47.8362580200   -44.2734409800    -1.8768656100
 1731      H     -49.8907630600   -45.5121035200     0.2180126500
 1732      C     -49.4401324300   -41.5680354800     0.7771675100
 1733      H     -50.3255383500   -41.7729732100     2.5824352800
 1734      H     -47.7830311400   -40.2164614800     0.8486878400
 1735      C     -51.5099012600   -40.5351473200    -1.1158689000
 1736      H     -50.7802604400   -40.0424427900    -2.9538160300
 1737      H     -52.6687044100   -42.0732615500    -1.8409151900
 1738      C     -53.2111397100   -38.4291928200     0.0323924700
 1739      H     -54.1294028000   -38.9817675200     1.9798615800
 1740      H     -52.2749905800   -36.7346975100     0.6415384800
 1741      C     -55.4031107200   -37.8864858900    -1.6231419400
 1742      H     -54.9252837100   -37.2379115100    -3.4438296200
 1743      H     -56.3477602900   -39.7381180700    -1.9362212900
 1744      C     -57.1584620300   -35.8939138200    -0.3152482800
 1745      H     -57.4857497400   -36.6489513000     1.6531420100
 1746      H     -56.2698561800   -34.0165797200    -0.0338696200
 1747      C     -59.6951864400   -35.5488305100    -1.7145180100
 1748      H     -59.5057566200   -35.4125296300    -3.8350860100
 1749      H     -60.8486129500   -37.3445890100    -1.3473798000
 1750      C     -61.2306033600   -33.1097770100    -1.0372701400
 1751      H     -62.1074431400   -33.0132261900     0.7794846000
 1752      H     -60.1887897700   -31.4152920400    -1.3867051900
 1753      C     -63.3850914200   -32.7252277800    -2.8545109300
 1754      H     -62.6900769300   -32.4822358300    -4.7573700300
 1755      H     -64.4877825400   -34.3581316100    -2.8481678500
 1756      C     -64.8230477500   -30.3239077800    -2.1524595600
 1757      H     -63.7823797500   -28.6416685200    -2.5665531200
 1758      H     -65.6451994500   -30.3714049500    -0.2735482300
 1759      H     -66.3900574700   -30.1682065200    -3.4474055700
 1760      H     -47.0118071800   -18.8831711600   -12.7307457100
 1761      C     -45.8724684000   -20.3982594900   -11.6837906100
 1762      H     -44.0103068400   -19.5522540000   -11.4002111400
 1763      H     -46.4443620000   -20.5015468600    -9.7593585400
 1764      C     -45.7075759200   -23.0263829000   -12.7036116500
 1765      H     -47.5720094500   -23.9532406200   -13.0207280700
 1766      H     -45.0241834500   -23.1135393500   -14.6471036400
 1767      C     -44.1337973300   -24.7100922700   -11.0813625600
 1768      H     -42.1864966600   -24.1196793400   -11.1318999200
 1769      H     -44.8730529500   -24.5419525700    -9.0874041400
 1770      C     -44.2995639900   -27.4939513400   -11.7714961300
 1771      H     -46.3141052400   -28.0957107800   -11.7380155600
 1772      H     -43.2956632700   -27.6546685800   -13.6282982900
 1773      C     -42.5792572200   -29.1089428100    -9.9700404800
 1774      H     -40.5757463100   -28.6388786300    -9.7864778600
 1775      H     -43.1660572900   -28.8652517600    -8.0212561700
 1776      C     -42.4618608600   -31.8450448000   -10.9629647200
 1777      H     -44.3082101600   -32.7320272800   -10.7762049000
 1778      H     -42.2266965200   -31.7559170400   -13.0210645800
 1779      C     -40.6968366100   -33.4526621700    -9.4392672300
 1780      H     -38.7293046600   -32.9033328200   -10.0013690300
 1781      H     -40.8343137700   -33.2768406900    -7.3633492000
 1782      C     -40.9787734300   -36.3591518600    -9.8704413500
 1783      H     -40.7727604400   -36.6634652100   -11.9317633000
 1784      H     -39.2572331200   -37.2505412300    -9.1013597700
 1785      C     -43.4167001900   -37.6305493500    -8.9264238000
 1786      H     -43.9348024600   -36.7909142500    -7.1117436800
 1787      H     -44.9519809800   -37.1417555500   -10.0472329500
 1788      C     -43.1980259000   -40.4653958600    -8.4148770600
 1789      H     -42.4039386000   -41.4110035600   -10.0897840400
 1790      H     -41.9132154000   -40.6222883000    -6.8161499600
 1791      C     -45.5178466700   -41.6836309500    -7.4023251800
 1792      H     -46.4681695900   -40.5673329800    -5.8282218800
 1793      H     -46.8371000400   -41.6446011900    -8.8196887600
 1794      C     -45.2791658700   -44.3153024700    -6.4180678200
 1795      H     -44.2679635600   -44.5696291100    -4.5971931000
 1796      H     -44.3524603700   -45.4961119400    -7.8276106800
 1797      H     -47.2544614700   -45.1486324800    -6.1326793400
 1798      H     -58.9900561500   -13.3946028500    28.3358642700
 1799      C     -60.8635508900   -13.0984081000    27.1629422000
 1800      H     -62.3434999800   -12.7455118600    28.5933205300
 1801      H     -60.9497102500   -11.3215120600    26.0643448300
 1802      C     -61.4149466000   -15.4452982200    25.5475041200
 1803      H     -60.1036196900   -15.5793494000    23.9358623300
 1804      H     -61.1121579800   -17.2724696800    26.5296319800
 1805      C     -64.1085333500   -15.5250486900    24.5056392400
 1806      H     -65.4478922100   -15.5076517100    26.0371568500
 1807      H     -64.4894184100   -13.7661179400    23.6290175600
 1808      C     -64.7327637200   -17.4140235000    22.4360855200
 1809      H     -63.4122402100   -17.1683925200    20.9298896000
 1810      H     -64.6182065400   -19.3520884400    23.2340600200
 1811      C     -67.4242367000   -17.0539057800    21.3017124800
 1812      H     -68.8317713500   -17.2522536400    22.7670414900
 1813      H     -67.4522649500   -15.1273499400    20.6540310500
 1814      C     -68.0220135000   -18.9354919000    19.1214961400
 1815      H     -66.5794167500   -18.8025373600    17.6704030800
 1816      H     -67.7777198600   -20.9145099400    19.7994568600
 1817      C     -70.6230582100   -18.6169677800    17.8064729200
 1818      H     -72.2156461600   -18.7758374500    19.0238084500
 1819      H     -70.9206053300   -16.6933410400    17.2127954200
 1820      C     -71.0673188600   -20.3939718200    15.6660783200
 1821      H     -69.3576970300   -20.7785000100    14.4372671200
 1822      H     -71.6225373600   -22.2334596400    16.2389153100
 1823      C     -73.0510097200   -19.5044491200    13.8508568600
 1824      H     -74.6007373800   -18.6286454900    14.8180367500
 1825      H     -72.2420944600   -18.1424934500    12.5044169400
 1826      C     -74.0810710800   -21.5709694100    12.0581357100
 1827      H     -75.2432722200   -20.4779663800    10.6677048600
 1828      H     -72.6784625100   -22.4874240200    10.9146472100
 1829      C     -76.0852024900   -23.4304413600    13.2798349400
 1830      H     -75.1270643700   -24.9452816600    14.0924385200
 1831      H     -76.9925204700   -22.2737550000    14.6969716600
 1832      C     -77.9475155700   -24.6441325300    11.3925779800
 1833      H     -79.6724628500   -25.5142725500    12.2190757500
 1834      H     -77.2420276800   -26.0143460300     9.9778569800
 1835      H     -78.7424467900   -23.0062954800    10.1528635000
 1836      H     -65.6549065600   -22.1067185100     6.4085958900
 1837      C     -64.5199991700   -21.7338679300     7.9468877800
 1838      H     -65.1322690400   -22.5347368300     9.7520249900
 1839      H     -62.7379235600   -22.5437590500     7.4292806300
 1840      C     -64.4052623300   -18.7934350100     8.3405918000
 1841      H     -62.6853303200   -18.2456125100     9.3173679700
 1842      H     -64.3622060000   -17.7761682200     6.5370766000
 1843      C     -66.8036100200   -17.9136399900     9.9032302100
 1844      H     -68.4442378100   -18.2813585500     8.8118490200
 1845      H     -66.7374313200   -18.9576351100    11.7386036600
 1846      C     -66.6110017200   -15.2252589500    10.4577457000
 1847      H     -64.8516437700   -14.7082640000    11.2585505800
 1848      H     -66.6227332200   -14.2490080300     8.5832797400
 1849      C     -68.7990731800   -14.2328424900    11.8975634500
 1850      H     -70.5818464900   -14.9937591200    11.0122172700
 1851      H     -68.7722259800   -14.9352027700    13.8561330900
 1852      C     -69.0079692700   -11.4109930200    12.3307545700
 1853      H     -69.3329637600   -10.4810590400    10.5742124400
 1854      H     -70.5686969100   -10.8965529000    13.5526046400
 1855      C     -66.5810046700   -10.0214062100    13.4485534200
 1856      H     -66.8824819500   -10.3980431600    15.4219815400
 1857      H     -64.6786884000   -10.7126979200    12.8825187400
 1858      C     -66.7529474100    -7.1825092300    12.9216611500
 1859      H     -66.2094535700    -6.9063883800    10.8635201700
 1860      H     -68.7567605200    -6.7737429400    13.0339387100
 1861      C     -65.1695507200    -5.5566412700    14.5886509700
 1862      H     -66.1530653900    -5.3172261200    16.4501267900
 1863      H     -63.4416808600    -6.6067971700    15.0970201300
 1864      C     -64.4814947900    -2.9800944400    13.5236614200
 1865      H     -64.0290579300    -3.0266896900    11.4756796500
 1866      H     -65.9737919000    -1.7399968600    13.8460637800
 1867      C     -62.5152843200    -1.7865697700    15.1424413400
 1868      H     -62.8656833700    -2.1276345800    17.2132566400
 1869      H     -60.7231224400    -2.6973601100    15.0408257500
 1870      C     -62.2770141100     0.9736284100    14.4885031800
 1871      H     -60.6532033800     1.8226859400    15.3649061400
 1872      H     -63.9505852100     1.9559029900    15.3091386000
 1873      H     -62.3017033400     1.1216335800    12.4652646300
 1874      H     -41.7494698100   -28.5828639800    22.3479514200
 1875      C     -43.4290156200   -28.3429811300    21.0650331700
 1876      H     -44.7542031800   -27.5634693000    22.4532080400
 1877      H     -42.9330623600   -26.8554142700    19.7046783900
 1878      C     -44.2827866800   -30.7144233400    19.7437946800
 1879      H     -42.6743399000   -31.2340942100    18.3970711100
 1880      H     -44.4606260700   -32.0538542300    21.1419032500
 1881      C     -46.7789733600   -30.6692736600    18.2595060600
 1882      H     -48.3324030400   -30.0177090900    19.5260281900
 1883      H     -46.5485889500   -29.2686505900    16.8784937800
 1884      C     -47.4575409600   -33.2264453500    16.9772540400
 1885      H     -45.9138421800   -34.0300030600    15.8721191200
 1886      H     -47.9242887400   -34.7180841200    18.3599869900
 1887      C     -49.6570060500   -33.1772499900    15.1223226300
 1888      H     -51.2496522400   -32.5003319100    15.9209048700
 1889      H     -49.0789273300   -32.0925267000    13.5374410000
 1890      C     -50.3324718900   -35.8586675700    14.2084928800
 1891      H     -49.0242272200   -36.2680481500    12.7335058400
 1892      H     -49.9145239000   -37.2771606200    15.6452830400
 1893      C     -53.1402547900   -36.1075550800    13.2442124100
 1894      H     -54.2109288800   -34.9672440100    14.5513546400
 1895      H     -53.1712657000   -35.2898834300    11.4464162700
 1896      C     -54.2181385800   -38.7397098300    13.2931299800
 1897      H     -52.8671775700   -39.9538332100    12.4153196400
 1898      H     -54.3761435300   -39.3247794100    15.2653867100
 1899      C     -56.6842524600   -38.8853618100    11.8611063000
 1900      H     -57.7658391700   -37.1541021500    12.1158582000
 1901      H     -55.9294310400   -39.1670088800     9.9746939800
 1902      C     -57.9418330200   -41.3155579100    12.9510300400
 1903      H     -56.5048167600   -42.8400812800    13.0946127700
 1904      H     -58.2167569800   -40.9347206700    14.9917857700
 1905      C     -60.6071621300   -42.1501196400    12.1809966400
 1906      H     -62.0783390900   -40.9236871400    13.0870540400
 1907      H     -60.8304019200   -42.0241037200    10.2042717800
 1908      C     -61.0702725700   -44.9195118700    13.0587846500
 1909      H     -63.0330496600   -45.5285086100    12.9737737100
 1910      H     -60.5327109600   -45.1296534100    15.0030500500
 1911      H     -60.0264924300   -46.3892396400    12.0079919800
 ----------------------------------------------------------------
 Nuclear Repulsion Energy =           0.00000000 hartrees
 There are       48 alpha and       48 beta electrons
 Total job time:  122.64s(wall), 241.91s(cpu) 
 Wed Jun 22 08:07:45 2022

        *************************************************************
        *                                                           *
        *  Thank you very much for using Q-Chem.  Have a nice day.  *
        *                                                           *
        *************************************************************


