                  Welcome to Q-Chem
     A Quantum Leap Into The Future Of Chemistry


 Q-Chem 5.4 (devel), Q-Chem, Inc., Pleasanton, CA (2021)

 E. Epifanovsky,  A. T. B. Gilbert,  Xintian Feng,  Joonho Lee,  Yuezhi Mao,  
 N. Mardirossian,  P. Pokhilko,  A. White,  M. Wormit,  M. P. Coons,  
 A. L. Dempwolff,  Zhengting Gan,  D. Hait,  P. R. Horn,  L. D. Jacobson,  
 I. Kaliman,  J. Kussmann,  A. W. Lange,  Ka Un Lao,  D. S. Levine,  Jie Liu,  
 S. C. McKenzie,  A. F. Morrison,  K. Nanda,  F. Plasser,  D. R. Rehn,  
 M. L. Vidal,  Zhi-Qiang You,  Ying Zhu,  B. Alam,  B. Albrecht,  
 A. Aldossary,  E. Alguire,  J. H. Andersen,  D. Barton,  K. Begam,  A. Behn,  
 Y. A. Bernard,  E. J. Berquist,  H. Burton,  A. Carreras,  K. Carter-Fenk,  
 R. Chakraborty,  A. D. Chien,  K. D. Closser,  V. Cofer-Shabica,  
 S. Dasgupta,  Jia Deng,  M. de Wergifosse,  M. Diedenhofen,  Hainam Do,  
 S. Ehlert,  Po-Tung Fang,  S. Fatehi,  Qingguo Feng,  T. Friedhoff,  
 J. Gayvert,  Qinghui Ge,  G. Gidofalvi,  M. Goldey,  J. Gomes,  
 C. Gonzalez-Espinoza,  S. Gulania,  A. Gunina,  M. W. D. Hanson-Heine,  
 P. H. P. Harbach,  A. W. Hauser,  M. F. Herbst,  M. Hernandez Vera,  
 M. Hodecker,  Z. C. Holden,  S. Houck,  Xunkun Huang,  Kerwin Hui,  
 B. C. Huynh,  M. Ivanov,  Hyunjun Ji,  Hanjie Jiang,  B. Kaduk,  S. Kaehler,  
 K. Khistyaev,  Jaehoon Kim,  P. Klunzinger,  Z. Koczor-Benda,  
 Joong Hoon Koh,  D. Kosenkov,  L. Koulias,  T. Kowalczyk,  C. M. Krauter,  
 K. Kue,  A. Kunitsa,  T. Kus,  A. Landau,  K. V. Lawler,  D. Lefrancois,  
 S. Lehtola,  Rain Li,  Yi-Pei Li,  Jiashu Liang,  M. Liebenthal,  
 Hung-Hsuan Lin,  You-Sheng Lin,  Fenglai Liu,  Kuan-Yu Liu,  
 M. Loipersberger,  A. Luenser,  A. Manjanath,  P. Manohar,  E. Mansoor,  
 S. F. Manzer,  Shan-Ping Mao,  A. V. Marenich,  T. Markovich,  S. Mason,  
 S. A. Maurer,  P. F. McLaughlin,  M. F. S. J. Menger,  J.-M. Mewes,  
 S. A. Mewes,  P. Morgante,  J. W. Mullinax,  K. J. Oosterbaan,  G. Paran,  
 Alexander C. Paul,  Suranjan K. Paul,  F. Pavosevic,  Zheng Pei,  S. Prager,  
 E. I. Proynov,  E. Ramos,  B. Rana,  A. E. Rask,  A. Rettig,  R. M. Richard,  
 F. Rob,  E. Rossomme,  T. Scheele,  M. Scheurer,  M. Schneider,  
 N. Sergueev,  S. M. Sharada,  W. Skomorowski,  D. W. Small,  C. J. Stein,  
 Yu-Chuan Su,  E. J. Sundstrom,  Zhen Tao,  J. Thirman,  T. Tsuchimochi,  
 N. M. Tubman,  S. P. Veccham,  O. Vydrov,  J. Wenzel,  J. Witte,  A. Yamada,  
 Kun Yao,  S. Yeganeh,  S. R. Yost,  A. Zech,  Igor Ying Zhang,  Xing Zhang,  
 Yu Zhang,  D. Zuev,  A. Aspuru-Guzik,  A. T. Bell,  N. A. Besley,  
 K. B. Bravaya,  B. R. Brooks,  D. Casanova,  Jeng-Da Chai,  S. Coriani,  
 C. J. Cramer,  A. E. DePrince, III,  R. A. DiStasio Jr.,  A. Dreuw,  
 B. D. Dunietz,  T. R. Furlani,  W. A. Goddard III,  S. Grimme,  
 S. Hammes-Schiffer,  T. Head-Gordon,  W. J. Hehre,  Chao-Ping Hsu,  
 T.-C. Jagau,  Yousung Jung,  A. Klamt,  Jing Kong,  D. S. Lambrecht,  
 WanZhen Liang,  N. J. Mayhall,  C. W. McCurdy,  J. B. Neaton,  
 C. Ochsenfeld,  J. A. Parkhill,  R. Peverati,  V. A. Rassolov,  Yihan Shao,  
 L. V. Slipchenko,  T. Stauch,  R. P. Steele,  J. E. Subotnik,  
 A. J. W. Thom,  A. Tkatchenko,  D. G. Truhlar,  T. Van Voorhis,  
 T. A. Wesolowski,  K. B. Whaley,  H. L. Woodcock III,  P. M. Zimmerman,  
 S. Faraji,  P. M. W. Gill,  M. Head-Gordon,  J. M. Herbert,  A. I. Krylov

 Additional authors for Version 5.4.1: 
 S. Kotaru,  Shaozhi Li,  Xiangyuan Li,  F. Matz,  A. Molle,  Haisheng Ren,  
 Yingli Su,  Hung-Yi Tsai,  C. Utku,  Fang Wang

 Contributors to earlier versions of Q-Chem not listed above: 
 R. D. Adamson,  B. Austin,  R. Baer,  J. Baker,  G. J. O. Beran,  
 K. Brandhorst,  S. T. Brown,  E. F. C. Byrd,  A. K. Chakraborty,  
 G. K. L. Chan,  Chun-Min Chang,  Yunqing Chen,  C.-L. Cheng,  
 Siu Hung Chien,  D. M. Chipman,  D. L. Crittenden,  H. Dachsel,  
 R. J. Doerksen,  A. D. Dutoi,  R. G. Edgar,  J. Fosso-Tande,  
 L. Fusti-Molnar,  D. Ghosh,  A. Ghysels,  A. Golubeva-Zadorozhnaya,  
 J. Gonthier,  M. S. Gordon,  S. R. Gwaltney,  G. Hawkins,  J. E. Herr,  
 A. Heyden,  S. Hirata,  E. G. Hohenstein,  G. Kedziora,  F. J. Keil,  
 C. Kelley,  Jihan Kim,  R. A. King,  R. Z. Khaliullin,  P. P. Korambath,  
 W. Kurlancheek,  A. Laurent,  A. M. Lee,  M. S. Lee,  S. V. Levchenko,  
 Ching Yeh Lin,  D. Liotard,  E. Livshits,  R. C. Lochan,  I. Lotan,  
 L. A. Martinez-Martinez,  P. E. Maslen,  N. Nair,  D. P. O'Neill,  
 D. Neuhauser,  E. Neuscamman,  C. M. Oana,  R. Olivares-Amaya,  R. Olson,  
 T. M. Perrine,  B. Peters,  P. A. Pieniazek,  A. Prociuk,  Y. M. Rhee,  
 J. Ritchie,  M. A. Rohrdanz,  E. Rosta,  N. J. Russ,  H. F. Schaefer III,  
 M. W. Schmidt,  N. E. Schultz,  S. Sharma,  N. Shenvi,  C. D. Sherrill,  
 A. C. Simmonett,  A. Sodt,  T. Stein,  D. Stuck,  K. S. Thanthiriwatte,  
 V. Vanovschi,  L. Vogt,  Tao Wang,  A. Warshel,  M. A. Watson,  
 C. F. Williams,  Q. Wu,  X. Xu,  Jun Yang,  W. Zhang,  Yan Zhao

 Please cite Q-Chem as follows:
 Y. Shao et al., Mol. Phys. 113, 184-215 (2015)
 DOI: 10.1080/00268976.2014.952696

 Q-Chem 5.4.1 for Intel X86 EM64T Linux

 Parts of Q-Chem use Armadillo 9.900.5 (Nocturnal Misbehaviour).
 http://arma.sourceforge.net/

 Q-Chem begins on Wed Jun 22 16:41:24 2022  

 Host: p09r14n13.grace.hpc.yale.internal
0

     Scratch files written to /home/tl686/scratch60/qchem_dev/scratch/qchem247514//
 Processing $rem in /home/tl686/qchem_dev/qchem/config/preferences:
 Processing $rem in /home/tl686/.qchemrc:
Applying user defined connections for MM calculations

 Checking the input file for inconsistencies... 	...done.

--------------------------------------------------------------
User input:
--------------------------------------------------------------
$molecule
0   1
 Fe 1474.64544793 68.91906879 60.28024715    -1  0   0   0   0
C 1475.22367672 66.95854609 57.35625666    -2  0   0   0   0 
C 1474.52370408 70.39958444 63.30196186    -2  0   0   0   0
C 1471.31944036 69.05752261 59.88632110    -2  0   0   0   0
C 1476.71145248 66.78762684 61.96291189    -2  0   0   0   0
C 1476.14220115 71.61437578 58.94040114    -2  0   0   0   0
O 1475.64321353 65.95434859 55.51219050    -3  0   0   0   0
O 1474.41452137 71.43858538 65.24877775    -3  0   0   0   0 
O 1468.99458014 69.20824096 59.68143153    -3  0   0   0   0
O 1477.94509249 65.31237852 62.87611133    -3  0   0   0   0 
O 1477.18682858 73.42684941 58.27488566    -3  0   0   0   0
H 1456.61456801 49.00080168 51.48687372      6     13    0    0    0 
C 1456.88843920 50.07245929 49.87203335     1     12    14    15    16
H 1455.29221420 50.12117063 48.63464502     6     13    0    0    0
H 1457.20242746 51.90544292 50.67546142     6     13    0    0    0
C 1459.14135862 49.20477260 48.42710283     2     13    17    18    19
H 1458.89808679 47.10479100 48.56036755     6     16    0    0    0
H 1459.03741955 49.56017827 46.42506719     6     16    0    0    0
C 1461.79027919 50.21318190 49.49290003     2     16    20   21   22
H 1461.70045328 52.15986090 49.05412664     6     19    0    0    0
H 1462.26714428 49.94830311 51.47622210     6     19    0    0    0
C 1463.72864218 48.69814440 47.86836493     2     19   23   24   25
H 1463.58603448 46.78272555 48.44091905     6    22    0    0    0
H 1463.28596617 48.78323177 45.97770713     6    22    0    0    0
C 1466.53300969 49.41780899 48.20254638     2    22   26   27   28
H 1466.81376923 51.40349826 47.94479066     6    25    0    0    0
H 1466.95163602 49.09427644 50.22367576     6    25    0    0    0
C 1468.04558824 47.62234021 46.59904162     2    25   29   30   31
H 1467.41954223 45.63431917 46.77034604     6    28    0    0    0
H 1467.57433995 48.16304505 44.72975723     6    28    0    0    0
C 1470.98207057 47.78972019 46.70498496     2    28   32   33   34
H 1471.63584906 47.29700711 44.90008736     6    31    0    0    0
H 1471.64985786 49.75669842 46.87871342     6    31    0    0    0
C 1472.29762142 45.88931210 48.48331234     2    31   35   36   37
H 1470.93706335 45.80854471 50.12644427     6    34    0    0    0
H 1472.38269662 43.91737523 47.80363308     6    34    0    0    0
C 1475.11190281 46.57654213 49.09091164     2    34   38   39   40
H 1475.93368200 46.63700378 47.26366392     6    37    0    0    0
H 1475.24379520 48.20404511 50.19460889     6    37    0    0    0
C 1476.64277498 44.44085440 50.35048874     2    37   41   42   43
H 1475.65510578 43.84732211 52.15548617     6    40    0    0    0
H 1476.51830350 42.88102951 49.01454812     6    40    0    0    0
C 1479.45562742 45.20648118 50.85353438     2    40   44   45   46
H 1480.23144484 45.72845220 49.08982463     6    43    0    0    0
H 1479.59654098 46.86238827 52.18484906     6    43    0    0    0
C 1480.91233184 42.96754733 51.82261630     1    43   47   48   49
H 1480.14160287 41.63885279 53.22904286     6    46    0    0    0
H 1482.78097581 43.43891846 52.56469863     6    46    0    0    0
H 1481.52466401 41.82808162 50.19817119     6    46    0    0    0
H 1482.20037833 60.66680869 56.79994920     6     51    0    0    0 
C 1480.35124726 61.51956807 57.11733139     1     50    52    53    54
H 1480.10750039 61.86194744 59.11904289     6     51    0    0    0
H 1480.42875590 63.32896658 56.34940026     6     51    0    0    0
C 1478.42915758 59.85372518 55.77615918     2     51    55    56    57
H 1476.54514586 60.44418852 56.01221381     6     54    0    0    0
H 1478.98846512 59.93518127 53.69737246     6     54    0    0    0
C 1478.53860276 57.04370985 56.70452885     2     54    58   59   60
H 1478.08054552 57.11367044 58.76973465     6     57    0    0    0
H 1477.00268413 56.02580676 55.96685630     6     57    0    0    0
C 1480.93817898 55.44991289 56.14516218     2     57   61   62   63
H 1480.53967536 54.77535478 54.24674548     6    60    0    0    0
H 1482.70417320 56.54153998 55.92318429     6    60    0    0    0
C 1481.34795414 52.95595394 57.73632186     2    60   64   65   66
H 1482.77034092 53.57245124 59.06853864     6    63    0    0    0
H 1479.67116558 52.29405795 58.86428196     6    63    0    0    0
C 1482.48794095 50.68770602 56.23518380     2    63   67   68   69
H 1482.80213215 49.12571915 57.37829585     6    66    0    0    0
H 1481.09207327 49.95703585 54.74540271     6    66    0    0    0
C 1485.08282041 51.16119841 54.98877158     2    66   70   71   72
H 1485.03029296 52.85065964 53.72137333     6    69    0    0    0
H 1486.41702321 51.66258649 56.55835833     6    69    0    0    0
C 1486.21827864 48.99260533 53.41599092     2    69   73   74   75
H 1486.83548249 47.40155056 54.48788597     6    72    0    0    0
H 1484.81849224 48.44423143 52.08506500     6    72    0    0    0
C 1488.60087586 49.79737049 51.92282936     2    72   76   77   78
H 1488.03441515 51.47763101 50.85811919     6    75    0    0    0
H 1490.11146609 50.41994211 53.23356462     6    75    0    0    0
C 1489.41111244 47.68396307 50.02087569     2    75   79   80   81
H 1490.56467619 46.20254773 50.94427713     6    78    0    0    0
H 1487.88072434 46.91439820 49.01669570     6    78    0    0    0
C 1491.17296805 49.11805892 48.11545898     2    78   82   83   84
H 1490.11646436 50.31785065 46.83259343     6    81    0    0    0
H 1492.48000639 50.41857513 49.11645570     6    81    0    0    0
C 1492.97080324 47.19918123 46.76170541     1    81   85   86   87
H 1494.32974040 48.23337309 45.57010443     6    84    0    0    0
H 1492.00491743 45.69143361 45.66796801     6    84    0    0    0
H 1493.93260888 45.97515572 48.13988393     6    84    0    0    0
H 1458.72418187 45.21832302 67.07367995     6     89    0    0    0 
C 1458.73532289 43.15726302 66.75995331     1     88    90    91    92
H 1460.11284178 42.67334423 68.10412611     6     89    0    0    0
H 1456.93362930 42.23997228 67.24742868     6     89    0    0    0
C 1459.54288873 42.48697612 64.03040914     2     89    93    94    95
H 1457.93711622 42.82808549 62.69448633     6     92    0    0    0
H 1460.76701347 44.00633349 63.42919846     6     92    0    0    0
C 1460.46136554 39.74501234 63.76225505     2     92    96   97   98
H 1461.33645692 39.36288180 65.64484381     6     95    0    0    0
H 1458.98957859 38.43911554 63.55186993     6     95    0    0    0
C 1462.27258476 39.35216285 61.59487610     2     95   99   100   101
H 1461.36202346 39.41747422 59.77224490     6    98    0    0    0
H 1463.69265146 40.89459012 61.62478808     6    98    0    0    0
C 1463.47481153 36.75780083 61.72765445     2    98   102   103   104
H 1464.58836157 36.60781073 63.40726209     6    101    0    0    0
H 1461.77484482 35.53349961 61.85984382     6    101    0    0    0
C 1465.00282647 36.12959566 59.36748065     2    101   105   106   107
H 1463.77557566 36.22858733 57.69554207     6    104    0    0    0
H 1466.55715414 37.45287374 59.05663128     6    104    0    0    0
C 1466.16883490 33.37654504 59.70731311     2    104   108   109   110
H 1467.16232721 33.32990466 61.55311536     6    107    0    0    0
H 1464.71339087 32.00692510 59.83016328     6    107    0    0    0
C 1468.02633704 32.77759126 57.55200941     2    107   111   112   113
H 1467.28934558 33.54685545 55.79248288     6    110    0    0    0
H 1469.75653943 33.86695603 57.76007168     6    110    0    0    0
C 1468.62783569 29.95351853 57.40099150     2    110   114   115   116
H 1469.72388120 29.24747303 59.05250648     6    113    0    0    0
H 1466.87196119 29.02336772 57.38762378     6    113    0    0    0
C 1470.00891708 29.54868950 54.90700482     2    113   117   118   119
H 1468.97497177 28.78355765 53.33351857     6    116    0    0    0
H 1470.83082261 31.18263100 54.08635816     6    116    0    0    0
C 1472.27334054 27.54197619 55.12695755     2    116   120   121   122
H 1472.75621339 26.93460631 53.27439828     6    119    0    0    0
H 1473.98506086 28.15694964 56.09767515     6    119    0    0    0
C 1471.34202720 24.99402187 56.30194198     1    119   123   124   125
H 1472.89231440 23.83234861 56.13390031     6    122    0    0    0
H 1469.79915641 24.01732200 55.42930285     6    122    0    0    0
H 1470.84978718 25.18855882 58.29480189     6    122    0    0    0
H 1453.10896174 42.40925857 71.08426421     6     127    0    0    0 
C 1454.17770888 43.37576631 72.61940426     1     126    128    129    130
H 1454.44059400 41.91002484 74.16000067     6     127    0    0    0
H 1456.10614828 43.45203955 71.97837501     6     127    0    0    0
C 1453.07442097 45.95865468 73.61072904     2     127    131    132    133
H 1452.93596927 47.37552539 72.12064532     6     130    0    0    0
H 1451.15650497 45.78328119 74.38366375     6     130    0    0    0
C 1454.73607237 47.11836255 75.71127229     2     130    134   135   136
H 1454.41627282 46.09538921 77.34089661     6     133    0    0    0
H 1456.62977091 46.70432051 75.09358131     6     133    0    0    0
C 1454.04455710 49.97539954 76.02967861     2     133   137   138   139
H 1451.92199979 50.05514006 75.98973722     6    136    0    0    0
H 1454.43273273 50.37579150 78.01307481     6    136    0    0    0
C 1455.54671969 51.85389747 74.38914776     2    136   140   141   142
H 1457.55376552 51.28835298 74.74960131     6    139    0    0    0
H 1455.31406172 51.73612334 72.36809311     6    139    0    0    0
C 1455.13976517 54.65801286 75.05579063     2    139   143   144   145
H 1453.31444874 55.04199583 74.64474366     6    142    0    0    0
H 1455.43875230 54.85228394 77.05229809     6    142    0    0    0
C 1457.07440055 56.24845569 73.48562213     2    142   146   147   148
H 1459.02621253 55.31957751 73.67871666     6    145    0    0    0
H 1456.64929942 56.04586872 71.51308720     6    145    0    0    0
C 1457.05363987 59.13530042 73.91814373     2    145   149   150   151
H 1455.11947979 59.73015151 74.06993407     6    148    0    0    0
H 1457.89684304 59.80894302 75.65033445     6    148    0    0    0
C 1458.47039678 60.65103390 71.80745992     2    148   152   153   154
H 1460.44283472 60.27259418 71.91236754     6    151    0    0    0
H 1457.89545541 59.95871153 69.93454891     6    151    0    0    0
C 1457.75172272 63.45918340 71.83482898     2    151   155   156   157
H 1457.99766965 64.15044361 69.91859779     6    154    0    0    0
H 1455.74331966 63.64392263 72.19360353     6    154    0    0    0
C 1459.31942773 65.17178929 73.39570231     2    154   158   159   160
H 1459.31630208 64.46277372 75.37016535     6    157    0    0    0
H 1461.29229175 65.07819576 72.95298198     6    157    0    0    0
C 1457.95165527 67.78027581 73.39256292     1    157   161   162   163
H 1458.90375894 68.72803164 74.93142517     6    160    0    0    0
H 1455.94321238 67.50531601 73.87678362     6    160    0    0    0
H 1458.16180091 68.88581788 71.70087923     6    160    0    0    0
H 1461.49838121 39.60954348 71.81666747     6     165    0    0    0 
C 1461.96410408 39.36996524 73.79170355     1     164    166    167    168
H 1460.86405420 37.76513346 74.50803752     6     165    0    0    0
H 1463.98766097 38.63882050 73.87425948     6     165    0    0    0
C 1461.29545832 41.74199526 75.22226257     2     165    169    170    171
H 1462.28556030 43.29355965 74.34715754     6     168    0    0    0
H 1459.30862106 41.97179241 74.89863019     6     168    0    0    0
C 1462.07194363 41.58508467 78.12374975     2     168    172   173   174
H 1461.65991723 39.66209522 78.91398492     6     171    0    0    0
H 1464.06472155 41.97198986 78.29498325     6     171    0    0    0
C 1460.49334496 43.51741172 79.63613402     2     171   175   176   177
H 1461.07249130 45.52923893 79.37971804     6    174    0    0    0
H 1458.55421384 43.25147860 78.83442392     6    174    0    0    0
C 1460.37262410 42.86509150 82.42190580     2    174   178   179   180
H 1458.53814064 41.77423468 82.68805900     6    177    0    0    0
H 1461.72583556 41.50458408 83.01991918     6    177    0    0    0
C 1460.40934865 45.26596797 84.06414808     2    177   181   182   183
H 1461.61387358 46.74939676 83.43842656     6    180    0    0    0
H 1458.68802280 46.25792826 83.69077235     6    180    0    0    0
C 1460.86898458 44.57298609 86.82737515     2    180   184   185   186
H 1459.20837828 43.66477606 87.52654601     6    183    0    0    0
H 1462.29831397 43.16525250 86.92205892     6    183    0    0    0
C 1461.49090342 46.92900729 88.49522297     2    183   187   188   189
H 1463.09743266 47.95696649 87.76590069     6    186    0    0    0
H 1460.04911838 48.37513598 88.40930360     6    186    0    0    0
C 1462.18156271 46.27804556 91.31544499     2    186   190   191   192
H 1460.68101998 45.36062004 92.55577589     6    189    0    0    0
H 1463.55016836 44.82522682 91.23801669     6    189    0    0    0
C 1463.05289399 48.50181452 92.93221650     2    189   193   194   195
H 1463.56897529 50.18719720 91.83912829     6    192    0    0    0
H 1461.30998181 49.00309571 94.10668275     6    192    0    0    0
C 1465.24937973 48.21419814 94.59688080     2    192   196   197   198
H 1464.65822487 46.70500685 95.99197142     6    195    0    0    0
H 1466.78086136 47.63021293 93.40219113     6    195    0    0    0
C 1465.96626427 50.43440201 96.33985707     1    195   199   200   201
H 1467.39084946 49.89928526 97.70156963     6    198    0    0    0
H 1464.43359949 51.29570454 97.32416708     6    198    0    0    0
H 1467.07339511 51.91368315 95.25716504     6    198    0    0    0
H 1480.55569957 44.49289548 78.81421341     6     203    0    0    0 
C 1481.89246924 43.73948150 77.38301528     1     202    204    205    206
H 1482.89460725 42.14416156 78.38129050     6     203    0    0    0
H 1480.65761901 42.81505152 76.02843554     6     203    0    0    0
C 1483.43453047 45.75369623 76.05030711     2     203    207    208    209
H 1484.13950756 44.82001585 74.34855987     6     206    0    0    0
H 1482.08251414 47.21087679 75.55273339     6     206    0    0    0
C 1485.57492854 46.72258416 77.61104458     2     206    210   211   212
H 1486.30782588 48.24118569 76.47075479     6     209    0    0    0
H 1484.98869007 47.52587983 79.43859382     6     209    0    0    0
C 1487.58649664 44.72857105 78.14945619     2     209   213   214   215
H 1486.98936644 43.75914065 79.73432667     6    212    0    0    0
H 1487.70354210 43.20379630 76.80095867     6    212    0    0    0
C 1490.24471113 45.61483278 78.84973960     2    212   216   217   218
H 1491.65856881 44.22459842 78.95948856     6    215    0    0    0
H 1490.69338328 46.74977014 77.16281127     6    215    0    0    0
C 1490.17239536 47.19026966 81.43125416     2    215   219   220   221
H 1488.55227850 48.49736269 81.37520745     6    218    0    0    0
H 1489.81343440 45.80608745 83.03464199     6    218    0    0    0
C 1492.64008450 48.49491680 81.56718021     2    218   222   223   224
H 1494.08212498 46.98944724 81.71997860     6    221    0    0    0
H 1493.04921137 49.60641455 79.74838676     6    221    0    0    0
C 1493.07508502 50.18085894 83.92418199     2    221   225   226   227
H 1491.63801098 51.62445614 83.80269860     6    224    0    0    0
H 1492.65756366 49.11642383 85.69869983     6    224    0    0    0
C 1495.65395900 51.23928236 84.09756043     2    224   228   229   230
H 1496.97718523 49.68867117 84.07590032     6    227    0    0    0
H 1496.05742815 52.26383649 82.25672109     6    227    0    0    0
C 1496.20381015 53.14166913 86.34634468     2    227   231   232   233
H 1494.81591979 54.59164765 86.11865827     6    230    0    0    0
H 1495.94138202 52.31048485 88.27372561     6    230    0    0    0
C 1498.96129202 54.06433507 86.21492783     2    230   234   235   236
H 1500.12100354 52.57774496 86.98751707     6    233    0    0    0
H 1499.26743266 53.94216346 84.13814816     6    233    0    0    0
C 1499.84413608 56.65040387 87.41006804     1    233   237   238   239
H 1501.86801946 56.88899199 87.03782921     6    236    0    0    0
H 1499.77670564 56.68810670 89.37306149     6    236    0    0    0
H 1498.67750922 58.13095784 86.62223325     6    236    0    0    0
H 1492.28196627 41.59462450 51.44481581     6     241    0    0    0 
C 1491.51886196 40.21575397 52.61834064     1     240    242    243    244
H 1493.26335096 39.86821285 53.78114035     6     241    0    0    0
H 1489.85430098 41.05323089 53.49076971     6     241    0    0    0
C 1490.83639514 38.02908047 50.86741926     2     241    245    246    247
H 1492.36184129 37.86594954 49.53665031     6     244    0    0    0
H 1490.91607751 36.28867404 51.92985050     6     244    0    0    0
C 1488.25505928 38.08410044 49.68523334     2     244    248   249   250
H 1488.08091741 36.39187341 48.72680647     6     247    0    0    0
H 1486.88532210 38.17814474 51.13867729     6     247    0    0    0
C 1488.00798379 40.29603836 47.86900709     2     247   251   252   253
H 1487.89557083 42.04183610 48.96420143     6    250    0    0    0
H 1489.60047868 40.50695305 46.72692469     6    250    0    0    0
C 1485.68149535 40.02522689 46.18218143     2    250   254   255   256
H 1486.03460286 38.24680952 45.15196947     6    253    0    0    0
H 1484.14264961 39.51829795 47.45071819     6    253    0    0    0
C 1484.89979096 42.47040537 44.70557328     2    253   257   258   259
H 1483.15219361 42.21704110 43.68280152     6    256    0    0    0
H 1484.41538122 43.81505101 46.11436560     6    256    0    0    0
C 1486.66979939 43.71542700 42.84334862     2    256   260   261   262
H 1488.33717823 44.25212940 43.60362889     6    259    0    0    0
H 1487.28319790 42.27902562 41.54238706     6    259    0    0    0
C 1485.36701382 45.78470505 41.17842667     2    259   263   264   265
H 1483.90292216 45.01404238 39.90701643     6    262    0    0    0
H 1484.38365839 47.22325745 42.25436060     6    262    0    0    0
C 1487.17190669 47.44114981 39.69018064     2    262   266   267   268
H 1486.89459303 49.53042352 40.06170005     6    265    0    0    0
H 1489.08363681 47.07532512 40.53817890     6    265    0    0    0
C 1487.23704489 46.99233388 36.91481029     2    265   269   270   271
H 1487.60137021 45.08795733 36.24787876     6    268    0    0    0
H 1485.40603161 47.36797763 36.28405226     6    268    0    0    0
C 1489.23388407 48.78599775 35.87009450     2    268   272   273   274
H 1489.15301627 50.78333073 36.59719988     6    271    0    0    0
H 1491.01739881 47.92849634 36.59708153     6    271    0    0    0
C 1489.42583211 48.78256475 32.86429963     1    271   275   276   277
H 1488.41491458 47.09419504 32.03451574     6    274    0    0    0
H 1491.39785283 48.71032255 32.40504232     6    274    0    0    0
H 1488.33894981 50.20222023 32.21574823     6    274    0    0    0
H 1481.61421063 33.74636660 66.16105817     6     279    0    0    0 
C 1480.80251234 35.54148518 66.10293908     1     278    280    281    282
H 1480.45247621 35.71969927 64.10829256     6     279    0    0    0
H 1479.05108132 35.43970592 67.25453293     6     279    0    0    0
C 1482.50776102 37.67177370 67.04610041     2     279    283    284    285
H 1481.42223848 39.42921205 66.73502037     6     282    0    0    0
H 1482.71266572 37.82214534 69.06963581     6     282    0    0    0
C 1485.28730957 37.67655808 65.94574514     2     282    286   287   288
H 1486.07443187 36.05593329 67.06884553     6     285    0    0    0
H 1484.95955586 37.34506144 63.99883940     6     285    0    0    0
C 1486.80105844 39.96132477 66.66150990     2     285   289   290   291
H 1486.02450139 41.63422170 65.70945834     6    288    0    0    0
H 1486.81070481 40.37369555 68.64706868     6    288    0    0    0
C 1489.52241574 39.61405844 65.68845548     2    288   292   293   294
H 1490.11969208 37.77237091 66.32235502     6    291    0    0    0
H 1489.51975223 39.46635815 63.54447664     6    291    0    0    0
C 1491.26577037 41.76710446 66.29719537     2    291   295   296   297
H 1490.45621560 43.62519536 65.68730298     6    294    0    0    0
H 1491.33864444 41.85088342 68.43867957     6    294    0    0    0
C 1493.93315240 41.75958093 65.39916969     2    294   298   299   300
H 1494.55991195 39.72723900 65.57648696     6    297    0    0    0
H 1494.43661405 41.61722460 63.33781637     6    297    0    0    0
C 1495.65398510 43.42441526 67.14163003     2    297   301   302   303
H 1494.82494263 45.18225683 67.32296703     6    300    0    0    0
H 1495.39403759 42.58130106 69.09860703     6    300    0    0    0
C 1498.36747285 43.59028663 66.37762477     2    300   304   305   306
H 1499.10989248 41.65078632 66.37773942     6    303    0    0    0
H 1498.30988602 44.19807248 64.50232165     6    303    0    0    0
C 1499.91050872 45.45320912 67.96410591     2    303   307   308   309
H 1499.65855043 47.37608067 67.25877783     6    306    0    0    0
H 1499.38676865 45.51687371 69.89150018     6    306    0    0    0
C 1502.78945181 44.86336653 67.77825307     2    306   310   311   312
H 1503.25301383 42.79037574 68.16551757     6    309    0    0    0
H 1503.45494327 45.26205785 65.69214038     6    309    0    0    0
C 1504.40789931 46.53734301 69.52010736     1    309   313   314   315
H 1503.81545604 45.88993257 71.47663701     6    312    0    0    0
H 1503.88380403 48.65157796 69.31535874     6    312    0    0    0
H 1506.39935371 45.96993927 69.26973486     6    312    0    0    0
H 1463.84552844 49.58608761 63.18596206     6     317    0    0    0 
C 1463.77736580 49.63148730 61.09041897     1     316    318    319    320
H 1465.64534160 49.09173120 60.28276421     6     317    0    0    0
H 1462.43763971 48.24051554 60.76915955     6     317    0    0    0
C 1462.60276171 52.11793046 60.28022655     2     317    321    322    323
H 1462.51168115 52.37277206 58.25275818     6     320    0    0    0
H 1460.73785329 52.16800771 60.98865121     6     320    0    0    0
C 1464.14284975 54.23891343 61.29162895     2     320    324   325   326
H 1464.94340874 53.65399089 63.03779739     6     323    0    0    0
H 1465.87633967 54.53856757 59.94618369     6     323    0    0    0
C 1462.86092779 56.78029423 61.60101688     2     323   327   328   329
H 1462.10065820 57.30995265 59.74825325     6    326    0    0    0
H 1461.36717295 56.76879515 63.02585702     6    326    0    0    0
C 1464.77178623 58.69484107 62.48986878     2    326   330   331   332
H 1465.97376990 57.76704002 63.80916866     6    329    0    0    0
H 1466.13710675 59.11475289 61.02505115     6    329    0    0    0
C 1463.72637290 61.34422608 63.48379647     2    329   333   334   335
H 1462.33449893 60.97142554 65.03237054     6    332    0    0    0
H 1465.30911865 62.39422846 64.34923505     6    332    0    0    0
C 1462.25868757 62.67846117 61.40890162     2    332   336   337   338
H 1463.30943312 62.95279456 59.71868076     6    335    0    0    0
H 1460.68386207 61.57091622 60.92559354     6    335    0    0    0
C 1461.21014850 65.21149006 62.41443482     2    335   339   340   341
H 1459.88627514 66.13757733 61.11809408     6    338    0    0    0
H 1460.01179180 65.03639684 64.22533535     6    338    0    0    0
C 1463.37065800 67.18775648 62.83036621     2    338   342   343   344
H 1464.67211958 66.74050595 64.38514804     6    341    0    0    0
H 1464.40634999 67.47979711 61.06081294     6    341    0    0    0
C 1462.28141306 69.70039730 63.84391347     2    341   345   346   347
H 1463.56255979 71.28508246 63.37790100     6    344    0    0    0
H 1460.75524214 70.11050592 62.54176012     6    344    0    0    0
C 1461.38369959 69.64273542 66.66697970     2    344   348   349   350
H 1460.24511980 67.89178986 67.01499657     6    347    0    0    0
H 1463.06253847 69.54014442 67.95451975     6    347    0    0    0
C 1459.69041629 72.01301391 67.31733757     1    347   351   352   353
H 1458.34400934 72.43513990 65.96220373     6    350    0    0    0
H 1460.82917387 73.75845255 67.40617443     6    350    0    0    0
H 1458.71268656 71.67351881 69.16509568     6    350    0    0    0
H 1489.40810995 37.95682623 57.60123446     6     355    0    0    0 
C 1487.29456127 37.75020148 57.84792030     1     354    356    357    358
H 1486.62629325 36.58075312 56.26794848     6     355    0    0    0
H 1486.92013190 36.84031346 59.64955455     6     355    0    0    0
C 1486.02538151 40.43978155 57.85856479     2     355    359    360    361
H 1486.39091711 41.56406955 59.53048493     6     358    0    0    0
H 1486.41958830 41.65813140 56.26451966     6     358    0    0    0
C 1483.11429685 39.92841312 57.88158499     2     358    362   363   364
H 1482.50487632 39.21154890 56.11317700     6     361    0    0    0
H 1482.55805495 38.68923571 59.43594177     6     361    0    0    0
C 1481.42633847 42.03992592 58.43983685     2     361   365   366   367
H 1482.23986122 43.19391431 59.92462881     6    364    0    0    0
H 1481.19211386 43.47036404 57.02292622     6    364    0    0    0
C 1478.64452684 41.20259512 59.02777434     2    364   368   369   370
H 1477.61553633 41.32823309 57.15954189     6    367    0    0    0
H 1478.70684233 39.32555560 59.75838116     6    367    0    0    0
C 1477.16926168 43.17434739 60.64997314     2    367   371   372   373
H 1478.33181530 43.52725256 62.42360672     6    370    0    0    0
H 1476.94953273 45.15683791 59.93000157     6    370    0    0    0
C 1474.58204189 42.07756148 61.36476329     2    370   374   375   376
H 1473.49546129 41.50995496 59.67134523     6    373    0    0    0
H 1474.91469098 40.48303766 62.56776079     6    373    0    0    0
C 1472.94713368 44.02690290 62.94847726     2    373   377   378   379
H 1474.08046355 45.02409480 64.32638897     6    376    0    0    0
H 1472.69621561 45.46465888 61.39679220     6    376    0    0    0
C 1470.46735299 43.05189079 64.04789926     2    376   380   381   382
H 1469.26426109 42.22236678 62.49946119     6    379    0    0    0
H 1470.75736399 41.53090475 65.32805776     6    379    0    0    0
C 1468.84621123 45.04352905 65.53504032     2    379   383   384   385
H 1469.63656137 45.43201042 67.38278611     6    382    0    0    0
H 1468.50315130 46.59338702 64.32159087     6    382    0    0    0
C 1466.23792936 43.98797596 66.14034426     2    382   386   387   388
H 1465.27039421 45.32519304 67.38266874     6    385    0    0    0
H 1465.13309250 43.59306701 64.42977804     6    385    0    0    0
C 1466.46760798 41.43131762 67.55625322     1    385   389   390   391
H 1467.75244247 41.58637948 69.13689389     6    388    0    0    0
H 1467.12357731 40.02163783 66.19305129     6    388    0    0    0
H 1464.65707225 40.56796974 68.25161168     6    388    0    0    0
H 1469.05308581 88.24273363 48.74407358     6     393    0    0    0 
C 1470.47308367 87.10449723 49.74300545     1     392    394    395    396
H 1471.70425005 88.48493700 50.58336394     6     393    0    0    0
H 1469.40440473 86.15983201 51.26554078     6     393    0    0    0
C 1471.59306716 85.25477062 48.03046541     2     393    397    398    399
H 1470.16937151 84.33164294 47.11414719     6     396    0    0    0
H 1472.31172286 86.36023405 46.40516181     6     396    0    0    0
C 1473.49323530 83.41824559 49.02051843     2     396    400   401   402
H 1475.20586613 84.56699027 49.75180998     6     399    0    0    0
H 1472.76869790 82.10685577 50.54998654     6     399    0    0    0
C 1474.43274436 81.71535435 46.87955741     2     399   403   404   405
H 1472.69251525 80.93342940 46.01885359     6    402    0    0    0
H 1475.32332397 83.02280915 45.44605969     6    402    0    0    0
C 1476.45375442 79.58814953 47.47143945     2    402   406   407   408
H 1478.02297771 80.51198664 48.60375686     6    405    0    0    0
H 1475.38919272 78.04737336 48.50004654     6    405    0    0    0
C 1477.25964031 78.21629262 45.03876967     2    405   409   410   411
H 1475.62099849 77.22681688 44.19085413     6    408    0    0    0
H 1478.10598201 79.68367534 44.01473715     6    408    0    0    0
C 1479.47129018 76.25380319 45.30201631     2    408   412   413   414
H 1481.12141376 77.28752340 45.96672733     6    411    0    0    0
H 1478.80533395 74.90215750 46.76491615     6    411    0    0    0
C 1480.26908245 74.95563245 42.78920962     2    411   415   416   417
H 1478.96031673 73.78823349 41.94207134     6    414    0    0    0
H 1480.39540922 76.29396698 41.19189320     6    414    0    0    0
C 1482.65920928 73.32719552 43.03762975     2    414   418   419   420
H 1484.33465839 74.41920460 43.85387797     6    417    0    0    0
H 1482.28035364 72.12141666 44.55404211     6    417    0    0    0
C 1483.19962134 71.86519569 40.54548469     2    417   421   422   423
H 1481.43973006 70.75875545 40.25924192     6    420    0    0    0
H 1483.21902193 72.99833635 38.86827917     6    420    0    0    0
C 1485.55444179 70.20623407 40.70442358     2    420   424   425   426
H 1486.43018432 70.03746613 38.66353541     6    423    0    0    0
H 1486.97786102 71.22820321 41.93844561     6    423    0    0    0
C 1485.32255576 67.58728192 41.94901467     1    423   427   428   429
H 1487.08886556 66.57876570 41.74730875     6    426    0    0    0
H 1484.07473182 66.24105800 40.80497970     6    426    0    0    0
H 1484.70112440 67.74850717 44.05995417     6    426    0    0    0
H 1476.68589045 55.28117861 39.50176807     6     431    0    0    0 
C 1474.73647835 55.47176212 40.14725378     1     430    432    433    434
H 1473.72929811 54.28298191 38.86915483     6     431    0    0    0
H 1474.65969493 54.27910122 41.84977749     6     431    0    0    0
C 1474.03916723 58.16446130 40.65464395     2     431    435    436    437
H 1475.37874713 58.75250874 42.11042737     6     434    0    0    0
H 1474.55854244 59.26727201 39.06966333     6     434    0    0    0
C 1471.31128162 58.69098505 41.38601010     2     434    438   439   440
H 1470.31969695 58.38617424 39.67952969     6     437    0    0    0
H 1470.65820485 57.15553594 42.72837737     6     437    0    0    0
C 1470.90673327 61.45805383 42.36668049     2     437   441   442   443
H 1469.20054335 61.53420791 43.46712308     6    440    0    0    0
H 1472.54799167 61.90882882 43.67444911     6    440    0    0    0
C 1470.95058100 63.51521947 40.43428253     2    440   444   445   446
H 1472.67497042 64.05218257 39.69008922     6    443    0    0    0
H 1469.86425024 62.85114591 38.83484141     6    443    0    0    0
C 1470.04272271 66.09119103 41.36711501     2    443   447   448   449
H 1468.20679615 65.91181168 42.17702288     6    446    0    0    0
H 1471.36541031 66.49530051 42.96470592     6    446    0    0    0
C 1470.31308411 68.07362442 39.42606994     2    446   450   451   452
H 1472.29058183 68.18457619 38.72719498     6    449    0    0    0
H 1469.36040058 67.37893300 37.77207468     6    449    0    0    0
C 1468.93032845 70.42235556 40.31412467     2    449   453   454   455
H 1466.90051452 70.08264964 40.45151373     6    452    0    0    0
H 1469.74126388 70.80757269 42.20243052     6    452    0    0    0
C 1469.15368663 72.80315623 38.51474447     2    452   456   457   458
H 1471.06066164 73.48722647 38.51507663     6    455    0    0    0
H 1468.89282001 72.04376564 36.64579428     6    455    0    0    0
C 1467.17428438 74.83911826 38.69521919     2    455   459   460   461
H 1467.39233273 75.78014825 36.83636282     6    458    0    0    0
H 1465.27342642 74.18402334 38.75304034     6    458    0    0    0
C 1467.74731742 76.54042222 40.96401118     2    458   462   463   464
H 1467.39527897 75.33003530 42.66016163     6    461    0    0    0
H 1469.69444425 77.23365023 40.97932468     6    461    0    0    0
C 1465.67461847 78.61192385 41.15649651     1    461   465   466   467
H 1463.77231934 77.76428637 41.22610013     6    464    0    0    0
H 1465.90935215 79.83086822 39.44769053     6    464    0    0    0
H 1465.74569728 79.81566681 42.76878813     6    464    0    0    0
H 1470.49204440 33.30048104 67.62856122     6     469    0    0    0 
C 1469.80963029 34.99781751 66.63842790     1     468    470    471    472
H 1468.29280496 34.44620589 65.33792824     6     469    0    0    0
H 1469.32146281 36.48541093 68.01916840     6     469    0    0    0
C 1472.05207008 36.16977161 65.11905077     2     469    473    474    475
H 1471.44541680 37.75396999 64.06753663     6     472    0    0    0
H 1473.59860739 36.58900596 66.55917798     6     472    0    0    0
C 1473.13077557 34.07357211 63.24548729     2     472    476   477   478
H 1473.79932575 32.55656749 64.37541947     6     475    0    0    0
H 1471.62015088 32.99208940 62.21686853     6     475    0    0    0
C 1475.09172679 35.08680450 61.34289298     2     475   479   480   481
H 1474.19496917 36.70456396 60.31546077     6    478    0    0    0
H 1476.57521625 36.07781867 62.24966662     6    478    0    0    0
C 1475.79705838 33.09595514 59.33189863     2    478   482   483   484
H 1476.88175892 31.60734185 60.37370853     6    481    0    0    0
H 1474.12914900 32.25000914 58.31386019     6    481    0    0    0
C 1477.52220629 34.35660067 57.39011817     2    481   485   486   487
H 1476.18406169 35.47804820 56.20962700     6    484    0    0    0
H 1479.01167637 35.66896625 58.09121984     6    484    0    0    0
C 1478.73732114 32.59381810 55.53469030     2    484   488   489   490
H 1479.95660019 31.11043263 56.44119061     6    487    0    0    0
H 1477.33828790 31.62832650 54.56807662     6    487    0    0    0
C 1480.01194501 33.92787929 53.20687400     2    487   491   492   493
H 1478.53818165 35.18421616 52.43166375     6    490    0    0    0
H 1481.37274104 35.27049532 53.76695888     6    490    0    0    0
C 1481.31474750 31.96173489 51.50123934     2    490   494   495   496
H 1482.01003959 30.52270361 52.61331050     6    493    0    0    0
H 1479.87719129 31.11905782 50.21144220     6    493    0    0    0
C 1483.53086004 32.94544238 49.92236899     2    493   497   498   499
H 1482.88520233 34.21556069 48.43918465     6    496    0    0    0
H 1484.61909594 34.15579074 51.25596198     6    496    0    0    0
C 1485.19863335 30.70878143 48.84063024     2    496   500   501   502
H 1486.55323032 30.10389533 50.18157439     6    499    0    0    0
H 1484.06488902 29.04800526 48.29733008     6    499    0    0    0
C 1486.42427975 31.58407859 46.28609862     1    499   503   504   505
H 1485.07760088 32.71745095 45.21675362     6    502    0    0    0
H 1486.95284104 29.97325656 45.18332962     6    502    0    0    0
H 1488.26625851 32.44341334 46.54079378     6    502    0    0    0
H 1502.09101056 45.71054449 44.41832387     6     507    0    0    0 
C 1501.19542392 46.63488643 42.82368584     1     506    508    509    510
H 1502.52058755 47.28106222 41.42482858     6     507    0    0    0
H 1499.91864412 45.46650711 41.74479788     6     507    0    0    0
C 1499.73251964 49.04241862 43.79481856     2     507    511    512    513
H 1499.05973627 48.58280789 45.66236003     6     510    0    0    0
H 1500.89489905 50.67695001 44.01344039     6     510    0    0    0
C 1497.60729631 50.06572342 41.89878842     2     510    514   515   516
H 1498.70634744 50.75589398 40.26208997     6     513    0    0    0
H 1496.38067424 48.58820733 41.40972176     6     513    0    0    0
C 1495.97167904 52.24326989 42.71866782     2     513   517   518   519
H 1495.16289094 51.74578430 44.61207669     6    516    0    0    0
H 1497.02329170 54.01640304 43.02706173     6    516    0    0    0
C 1493.64698032 52.77760075 41.01671312     2    516   520   521   522
H 1493.86395648 53.67291843 39.24748357     6    519    0    0    0
H 1492.76410293 50.93700572 40.77032539     6    519    0    0    0
C 1491.84510133 54.66274726 42.19846138     2    519   523   524   525
H 1490.79516311 53.90953188 43.66639674     6    522    0    0    0
H 1492.86568388 56.14618682 43.15387742     6    522    0    0    0
C 1489.80551849 55.71512645 40.30598056     2    522   526   527   528
H 1490.37391651 56.77216943 38.73514087     6    525    0    0    0
H 1488.91384043 53.95069183 39.55368042     6    525    0    0    0
C 1487.87491156 57.49811187 41.65521908     2    525   529   530   531
H 1486.88611310 56.42112181 43.18972903     6    528    0    0    0
H 1488.80634740 59.22352976 42.60232907     6    528    0    0    0
C 1485.78014082 58.55246079 39.93750324     2    528   532   533   534
H 1486.68975780 59.82927484 38.52043360     6    531    0    0    0
H 1485.08557284 56.87711627 38.84460278     6    531    0    0    0
C 1483.53880897 59.82858288 41.43179533     2    531   535   536   537
H 1483.01946601 58.41758071 42.71766949     6    534    0    0    0
H 1484.32430975 61.35039667 42.54825875     6    534    0    0    0
C 1481.46018840 60.80174067 39.78552308     2    534   538   539   540
H 1482.31039503 62.06544548 38.28185272     6    537    0    0    0
H 1480.51498919 59.24657357 38.94019111     6    537    0    0    0
C 1479.52074660 62.39149745 41.44034211     1    537   541   542   543
H 1478.14119317 63.17138938 40.23348298     6    540    0    0    0
H 1480.48585772 64.01789726 42.35042334     6    540    0    0    0
H 1478.53546439 61.24543605 42.85755232     6    540    0    0    0
H 1471.98963874 78.67295921 55.73328085     6     545    0    0    0 
C 1472.71564023 78.10604935 57.50152359     1     544    546    547    548
H 1474.52678314 77.09602546 57.31039451     6     545    0    0    0
H 1473.35267410 79.83723530 58.51834407     6     545    0    0    0
C 1470.72025091 76.72124967 58.93045621     2     545    549    550    551
H 1468.94199038 77.75630686 58.62345719     6     548    0    0    0
H 1470.16357029 75.02409351 57.86121557     6     548    0    0    0
C 1471.26811624 76.24135006 61.77750203     2     548    552   553   554
H 1472.90115999 74.92569465 61.94479431     6     551    0    0    0
H 1471.91725124 77.85370432 62.69923994     6     551    0    0    0
C 1469.03125321 74.96315234 63.26217052     2     551   555   556   557
H 1467.26942891 75.91204019 62.81774464     6    554    0    0    0
H 1469.01917975 72.85209947 63.07725211     6    554    0    0    0
C 1469.59675024 75.36127689 66.11732801     2    554   558   559   560
H 1471.33626257 74.61271654 67.02897265     6    557    0    0    0
H 1469.71626486 77.42304466 66.49449166     6    557    0    0    0
C 1467.15607631 74.81420996 67.72320787     2    557   561   562   563
H 1465.72055592 76.13531182 67.03216068     6    560    0    0    0
H 1466.35830158 72.96348635 67.26862677     6    560    0    0    0
C 1467.46885396 75.25011097 70.62163969     2    560   564   565   566
H 1468.93239572 73.94104298 71.23795241     6    563    0    0    0
H 1467.94131625 77.05469725 70.98756907     6    563    0    0    0
C 1464.92680557 74.65376244 71.93102062     2    563   567   568   569
H 1463.74088358 76.36708323 71.64453099     6    566    0    0    0
H 1463.86199378 73.20954063 70.85355221     6    566    0    0    0
C 1465.33714836 74.25991393 74.88768877     2    566   570   571   572
H 1466.76888884 72.86633066 75.21396102     6    569    0    0    0
H 1465.91594658 75.97383174 75.77607654     6    569    0    0    0
C 1463.01769399 73.00944255 76.11622337     2    569   573   574   575
H 1461.53153724 74.44853134 76.24193924     6    572    0    0    0
H 1462.27576908 71.77619082 74.73865920     6    572    0    0    0
C 1463.60230499 71.78470450 78.72904515     2    572   576   577   578
H 1464.35677612 73.32955859 79.98050042     6    575    0    0    0
H 1461.61685884 71.49801857 79.27838436     6    575    0    0    0
C 1464.90835541 69.32315135 78.70504782     1    575   579   580   581
H 1464.28578065 67.88808134 77.26030425     6    578    0    0    0
H 1464.87611928 68.36066009 80.51640821     6    578    0    0    0
H 1466.94563728 69.30567848 78.37483707     6    578    0    0    0
H 1471.70971325 46.84414240 72.20390513     6     583    0    0    0 
C 1470.54662302 45.03664474 72.70706286     1     582    584    585    586
H 1470.51562826 43.85361946 71.01781965     6     583    0    0    0
H 1471.49150945 43.87715004 74.10331370     6     583    0    0    0
C 1467.90458486 45.89820439 73.55035507     2     583    587    588    589
H 1466.71754642 46.42263527 71.78672842     6     586    0    0    0
H 1466.71423864 44.43308044 74.29391431     6     586    0    0    0
C 1468.09212462 48.03288820 75.59382611     2     586    590   591   592
H 1468.74181727 47.22395463 77.32207895     6     589    0    0    0
H 1469.54785080 49.43797649 75.02470433     6     589    0    0    0
C 1465.41946196 49.31063894 76.04195574     2     589   593   594   595
H 1465.27132815 51.18410544 75.06627837     6    592    0    0    0
H 1463.80132878 48.26327565 75.27601612     6    592    0    0    0
C 1464.94754556 49.98258429 78.75122600     2    592   596   597   598
H 1465.21918922 48.26740863 79.79934193     6    595    0    0    0
H 1466.42356728 51.22458847 79.53746738     6    595    0    0    0
C 1462.31640573 51.12319445 79.14734521     2    595   599   600   601
H 1462.06548297 52.84607646 78.01389068     6    598    0    0    0
H 1460.90299477 49.74568148 78.98380548     6    598    0    0    0
C 1462.30133932 52.33849376 81.76602404     2    598   602   603   604
H 1462.60903238 51.07918672 83.28955947     6    601    0    0    0
H 1463.57852300 53.97819234 81.73378796     6    601    0    0    0
C 1459.63733996 53.37383540 82.54758939     2    601   605   606   607
H 1458.98480326 54.98053549 81.42634419     6    604    0    0    0
H 1458.13366816 52.08148020 82.11929593     6    604    0    0    0
C 1459.40579630 54.11141289 85.30521874     2    604   608   609   610
H 1459.80099596 52.49613846 86.55360853     6    607    0    0    0
H 1460.90108576 55.43699686 85.81968406     6    607    0    0    0
C 1456.72643014 55.06017564 85.82305754     2    607   611   612   613
H 1455.87246598 55.76403289 84.00271343     6    610    0    0    0
H 1455.31977885 53.60052295 86.38321678     6    610    0    0    0
C 1456.68722300 57.20181292 87.79015293     2    610   614   615   616
H 1457.54399565 58.92048762 87.17200258     6    613    0    0    0
H 1454.74104306 57.50446093 88.00789847     6    613    0    0    0
C 1457.90917319 56.50536688 90.30365390     1    613   617   618   619
H 1457.97196920 58.11617818 91.49747998     6    616    0    0    0
H 1459.65233353 55.49654834 90.14774167     6    616    0    0    0
H 1456.74253290 55.27268417 91.50576898     6    616    0    0    0
H 1495.79732677 73.52444051 60.55635748     6     621    0    0    0 
C 1493.81580666 72.71587770 60.72473365     1     620    622    623    624
H 1492.54771737 74.10041176 61.54226766     6     621    0    0    0
H 1493.14014567 72.06998006 58.83165979     6     621    0    0    0
C 1494.04775485 70.52742460 62.54228062     2     621    625    626    627
H 1492.18745896 69.89201027 63.15787762     6     624    0    0    0
H 1495.11115392 69.12181087 61.68222594     6     624    0    0    0
C 1495.25427721 71.33059330 65.19388904     2     624    628   629   630
H 1497.15836073 71.98392465 64.97262055     6     627    0    0    0
H 1494.31219887 72.95242274 66.03174707     6     627    0    0    0
C 1495.43833931 68.94894748 66.97705406     2     627   631   632   633
H 1493.46134891 68.27679876 67.25440838     6    630    0    0    0
H 1496.60480366 67.51342315 66.13421787     6    630    0    0    0
C 1496.15689806 69.77578116 69.68280616     2    630   634   635   636
H 1497.87955094 71.08554142 69.67276285     6    633    0    0    0
H 1494.87210037 71.17383598 70.48453526     6    633    0    0    0
C 1496.51018387 67.63394266 71.66458153     2    633   637   638   639
H 1494.62279486 67.04113112 72.36527789     6    636    0    0    0
H 1497.66198315 66.03612799 70.99892771     6    636    0    0    0
C 1497.95176402 68.75269545 74.02291554     2    636   640   641   642
H 1499.92332739 69.09034745 73.35991555     6    639    0    0    0
H 1497.32056962 70.67873632 74.34538019     6    639    0    0    0
C 1497.77883890 66.92076433 76.34493209     2    639   643   644   645
H 1495.76405669 66.80857084 76.91175322     6    642    0    0    0
H 1498.37784301 65.12847383 75.64959718     6    642    0    0    0
C 1499.67212718 67.60234616 78.50584189     2    642   646   647   648
H 1501.67668019 67.87179218 77.82163827     6    645    0    0    0
H 1499.17977405 69.45399357 79.40183506     6    645    0    0    0
C 1499.53463203 65.38968155 80.45735017     2    645   649   650   651
H 1497.63603551 64.67054888 80.94278107     6    648    0    0    0
H 1500.52264169 63.77574790 79.55921871     6    648    0    0    0
C 1501.00312988 66.12310841 82.80082039     2    648   652   653   654
H 1502.86453101 66.80592987 82.37695904     6    651    0    0    0
H 1499.75727047 67.57858555 83.50590898     6    651    0    0    0
C 1500.79393433 63.83022535 84.53139144     1    651   655   656   657
H 1499.37782224 64.18643913 85.96208507     6    654    0    0    0
H 1502.56143920 63.57852789 85.44585755     6    654    0    0    0
H 1500.35106466 62.09193579 83.60345934     6    654    0    0    0
H 1477.25631362 49.94295757 74.25581118     6     659    0    0    0 
C 1475.90490193 51.62782548 74.59808988     1     658    660    661    662
H 1476.95945328 53.34349071 74.19068490     6     659    0    0    0
H 1474.39579268 51.60927279 73.11189287     6     659    0    0    0
C 1474.85047748 51.01966954 77.27519555     2     659    663    664    665
H 1473.90012881 49.30384304 77.09735452     6     662    0    0    0
H 1476.26895379 50.69635546 78.61664013     6     662    0    0    0
C 1473.12622455 53.03497193 78.44285281     2     662    666   667   668
H 1471.92241241 52.20976907 79.83332495     6     665    0    0    0
H 1474.16278470 54.48620762 79.49348581     6     665    0    0    0
C 1471.38650816 54.51744030 76.64262904     2     665   669   670   671
H 1472.36518039 55.63225361 75.17910133     6    668    0    0    0
H 1470.37007235 53.25431402 75.39215849     6    668    0    0    0
C 1469.42119063 56.22806928 78.07909193     2    668   672   673   674
H 1468.14929896 55.07982783 79.19527792     6    671    0    0    0
H 1470.43932889 57.38018226 79.51011834     6    671    0    0    0
C 1467.91250161 58.15471128 76.35606528     2    671   675   676   677
H 1469.21331745 59.39904827 75.64084254     6    674    0    0    0
H 1467.32095165 57.06132017 74.66124737     6    674    0    0    0
C 1465.69336980 59.50543566 77.89187697     2    674   678   679   680
H 1464.28270489 60.57279121 76.87151008     6    677    0    0    0
H 1464.66582905 58.04407880 78.95640441     6    677    0    0    0
C 1466.58962211 61.40761607 79.72367389     2    677   681   682   683
H 1468.44822975 61.06136714 80.41367109     6    680    0    0    0
H 1466.77774139 63.21293043 78.80373384     6    680    0    0    0
C 1464.79673953 61.60783781 82.14288919     2    680   684   685   686
H 1464.48457642 59.79177429 82.94872145     6    683    0    0    0
H 1465.64473441 63.04710309 83.45524337     6    683    0    0    0
C 1462.15078977 62.70914661 81.72907413     2    683   687   688   689
H 1462.42397509 64.67135564 81.07095635     6    686    0    0    0
H 1461.26925410 61.78220109 79.99941266     6    686    0    0    0
C 1460.64831147 62.75316171 84.16708239     2    686   690   691   692
H 1460.26747699 60.96375674 84.82707745     6    689    0    0    0
H 1461.76926723 63.45275143 85.73901277     6    689    0    0    0
C 1458.27807929 64.37309381 83.81214333     1    689   693   694   695
H 1457.20720654 64.34198389 85.56944730     6    692    0    0    0
H 1457.05801637 63.57990295 82.24086324     6    692    0    0    0
H 1458.98581357 66.19385875 83.47875281     6    692    0    0    0
H 1472.18373232 88.75259667 70.81747631     6     697    0    0    0 
C 1472.97920435 86.79345597 70.71835544     1     696    698    699    700
H 1474.80389965 86.85923488 70.18229838     6     697    0    0    0
H 1472.80110447 86.11712784 72.62626569     6     697    0    0    0
C 1471.63791915 84.87107227 68.89431222     2     697    701    702    703
H 1472.80541294 83.20999293 69.20295235     6     700    0    0    0
H 1469.80589849 84.34082981 69.39685845     6     700    0    0    0
C 1471.50458618 85.68556047 66.22922348     2     700    704   705   706
H 1470.68315397 87.50890904 66.42504107     6     703    0    0    0
H 1473.32048082 85.85636027 65.28638488     6     703    0    0    0
C 1469.66877824 84.18448022 64.52512930     2     703   707   708   709
H 1470.47849209 82.23093233 64.30230169     6    706    0    0    0
H 1467.84874955 83.79136575 65.30966186     6    706    0    0    0
C 1469.53227332 85.41800231 61.90934279     2    706   710   711   712
H 1469.21204432 87.44982719 61.99295659     6    709    0    0    0
H 1471.29222524 85.26315004 60.76617663     6    709    0    0    0
C 1467.23386735 84.21409400 60.54233761     2    709   713   714   715
H 1467.41785887 82.19193783 60.60376547     6    712    0    0    0
H 1465.52382777 84.85370654 61.49850600     6    712    0    0    0
C 1466.98596791 85.12988182 57.77791935     2    712   716   717   718
H 1466.54805766 86.97775654 57.49824686     6    715    0    0    0
H 1468.76935412 84.95007394 56.94322282     6    715    0    0    0
C 1464.91709867 83.70344773 56.32981229     2    715   719   720   721
H 1465.45992738 81.75055629 55.95662573     6    718    0    0    0
H 1463.25734759 83.89864820 57.39999135     6    718    0    0    0
C 1464.10998987 84.92173690 53.71115478     2    718   722   723   724
H 1464.28710708 87.01661372 53.70656621     6    721    0    0    0
H 1465.38996464 84.62521301 52.22550696     6    721    0    0    0
C 1461.59769884 83.54893878 52.89610845     2    721   725   726   727
H 1461.86964674 81.51986421 52.97590934     6    724    0    0    0
H 1460.00735901 84.04169527 54.18449543     6    724    0    0    0
C 1460.75506609 83.99450898 50.12492222     2    724   728   729   730
H 1462.29613503 83.70884399 48.76620873     6    727    0    0    0
H 1459.00302898 82.94473272 49.45082485     6    727    0    0    0
C 1460.05951623 86.73599916 49.86556859     1    727   731   732   733
H 1459.34074413 87.05523004 47.90392933     6    730    0    0    0
H 1461.67064806 88.06528920 50.13725019     6    730    0    0    0
H 1458.60531638 87.33564025 51.18877281     6    730    0    0    0
H 1462.11622848 45.97788570 54.55661663     6     735    0    0    0 
C 1462.24807347 44.32990397 53.34473608     1     734    736    737    738
H 1460.50051581 43.39757292 53.40253582     6     735    0    0    0
H 1463.00183531 44.72211823 51.45766158     6     735    0    0    0
C 1464.13098461 42.54549434 54.75080170     2     735    739    740    741
H 1463.57261000 42.38230952 56.74162970     6     738    0    0    0
H 1463.83423499 40.63368004 54.21545277     6     738    0    0    0
C 1466.85744573 43.73371549 54.80617128     2     738    742   743   744
H 1467.33046696 44.27678986 52.85692666     6     741    0    0    0
H 1466.84228463 45.52263336 55.72617409     6     741    0    0    0
C 1468.74932403 41.96281628 56.13328524     2     741   745   746   747
H 1469.80250917 43.15197384 57.28494425     6    744    0    0    0
H 1467.91386985 40.81845979 57.67364335     6    744    0    0    0
C 1470.29244616 40.09892097 54.55092775     2    744   748   749   750
H 1471.94089095 40.99601777 53.74841037     6    747    0    0    0
H 1471.16406104 38.93342222 55.99752037     6    747    0    0    0
C 1468.94899462 38.44672934 52.51573340     2    747   751   752   753
H 1467.17292781 37.60222045 53.34313953     6    750    0    0    0
H 1468.14405687 39.76673825 51.23082657     6    750    0    0    0
C 1470.55405084 36.24625435 51.18160608     2    750   754   755   756
H 1470.98515996 34.92682517 52.67786862     6    753    0    0    0
H 1469.27843054 35.28208726 49.83476241     6    753    0    0    0
C 1472.69776785 37.28784586 49.51749368     2    753   757   758   759
H 1472.02164437 38.43832176 47.90095166     6    756    0    0    0
H 1474.06812425 38.31184921 50.71085116     6    756    0    0    0
C 1473.92228205 34.92478620 48.27432240     2    756   760   761   762
H 1474.37592284 33.44600986 49.68591379     6    759    0    0    0
H 1472.49213596 34.25779167 46.88291119     6    759    0    0    0
C 1476.38919621 35.89248045 47.00304022     2    759   763   764   765
H 1476.00754506 37.61308557 45.85388306     6    762    0    0    0
H 1477.95023404 36.34760511 48.23431306     6    762    0    0    0
C 1477.29637199 33.96198056 45.28083135     2    762   766   767   768
H 1477.99363993 32.51693713 46.47168706     6    765    0    0    0
H 1475.68772642 33.28194958 44.24573625     6    765    0    0    0
C 1479.36795773 34.84019205 43.46606338     1    765   769   770   771
H 1478.79136161 36.74315958 42.88486345     6    768    0    0    0
H 1479.40780972 33.57612799 42.02185265     6    768    0    0    0
H 1481.15266942 34.96444293 44.35141423     6    768    0    0    0
H 1506.09219989 65.83465478 75.30954312     6     773    0    0    0 
C 1507.95987914 66.28331112 74.57067673     1     772    774    775    776
H 1508.75095061 68.23952258 74.79460764     6     773    0    0    0
H 1509.26229994 65.00473655 75.56041053     6     773    0    0    0
C 1508.02248536 65.51428782 71.80968435     2     773    777    778    779
H 1509.70917638 66.41546547 71.02091581     6     776    0    0    0
H 1507.98675297 63.36443647 71.51045772     6     776    0    0    0
C 1505.86111225 66.71579111 70.26424402     2     776    780   781   782
H 1504.15458937 66.07482085 71.13659356     6     779    0    0    0
H 1505.67904424 68.67280283 70.47201357     6     779    0    0    0
C 1506.09722700 66.10427726 67.45512934     2     779   783   784   785
H 1507.92089455 67.06352985 66.77221037     6    782    0    0    0
H 1505.98987518 64.13218964 67.06307335     6    782    0    0    0
C 1503.72678786 67.47398424 66.06639590     2    782   786   787   788
H 1501.90728794 66.52865231 66.46582704     6    785    0    0    0
H 1503.29911752 69.44452757 66.64961664     6    785    0    0    0
C 1504.12289758 67.55491135 63.06300655     2    785   789   790   791
H 1505.89053763 68.45989667 62.63784979     6    788    0    0    0
H 1504.39970005 65.61650290 62.52038275     6    788    0    0    0
C 1501.96330077 68.77494415 61.45051706     2    788   792   793   794
H 1500.20202389 67.97626513 61.91330451     6    791    0    0    0
H 1501.82199189 70.84799920 61.51003983     6    791    0    0    0
C 1502.48945617 68.52100979 58.53868639     2    791   795   796   797
H 1504.29627886 69.22765611 57.90843245     6    794    0    0    0
H 1502.79778404 66.53141272 58.30269686     6    794    0    0    0
C 1500.35844555 69.60946699 56.84081598     2    794   798   799   800
H 1498.50077550 69.32701441 57.58018014     6    797    0    0    0
H 1500.68638118 71.60925793 56.63453575     6    797    0    0    0
C 1500.52649971 68.39951788 54.27051287     2    797   801   802   803
H 1502.50821999 68.23382334 53.80393503     6    800    0    0    0
H 1500.15397620 66.33566692 54.40512533     6    800    0    0    0
C 1498.89047753 69.56433551 52.27413327     2    800   804   805   806
H 1496.97491618 69.86912918 53.18490124     6    803    0    0    0
H 1499.53813089 71.51693482 51.89516630     6    803    0    0    0
C 1498.55771599 67.92070049 49.88454402     1    803   807   808   809
H 1497.69964675 69.06438578 48.38526401     6    806    0    0    0
H 1497.26178420 66.29600996 50.04994153     6    806    0    0    0
H 1500.35618465 67.25547319 49.14612027     6    806    0    0    0
H 1475.95349942 46.93332371 70.32374086     6     811    0    0    0 
C 1477.56301758 45.74745668 70.69480493     1     810    812    813    814
H 1477.76441003 45.40232820 72.72585283     6     811    0    0    0
H 1477.08163143 43.99281857 69.75272194     6     811    0    0    0
C 1479.91490578 47.28849428 69.63428615     2     811    815    816    817
H 1479.60271127 49.36512272 69.69909438     6     814    0    0    0
H 1481.63730771 46.94366994 70.78766026     6     814    0    0    0
C 1480.46380279 46.71047494 66.88986986     2     814    818   819   820
H 1480.76010195 44.71766732 66.91826552     6     817    0    0    0
H 1478.81763805 47.21142635 65.69520694     6     817    0    0    0
C 1482.73258606 48.12145666 65.98474409     2     817   821   822   823
H 1482.16221942 50.07133634 65.61032973     6    820    0    0    0
H 1484.18723997 48.05374957 67.40540178     6    820    0    0    0
C 1483.77605587 47.05640073 63.40152852     2    820   824   825   826
H 1483.86257577 45.00942411 63.62093012     6    823    0    0    0
H 1482.56458923 47.40294940 61.87404001     6    823    0    0    0
C 1486.47877708 47.93268849 62.99088978     2    823   827   828   829
H 1486.37623014 49.83402691 62.30508037     6    826    0    0    0
H 1487.79157526 47.79865832 64.65524561     6    826    0    0    0
C 1487.88565295 46.44591771 60.84118952     2    826   830   831   832
H 1488.48203808 44.58943559 61.71060588     6    829    0    0    0
H 1486.66914684 45.84329884 59.23781966     6    829    0    0    0
C 1490.23494551 47.71965789 59.72238852     2    829   833   834   835
H 1489.57903326 49.33611919 58.86645636     6    832    0    0    0
H 1491.30876589 48.47637752 61.23862486     6    832    0    0    0
C 1491.79842500 45.96858923 57.91760521     2    832   836   837   838
H 1491.64616910 43.94345927 58.56573496     6    835    0    0    0
H 1491.00026177 45.85504576 56.08120416     6    835    0    0    0
C 1494.58076452 46.86414739 57.51135909     2    835   839   840   841
H 1494.74369783 48.90302089 57.45294305     6    838    0    0    0
H 1495.91024843 46.21867109 59.04449193     6    838    0    0    0
C 1495.46701936 46.03538189 54.95355278     2    838   842   843   844
H 1495.55338463 43.90369791 54.95606087     6    841    0    0    0
H 1494.23740501 46.60804694 53.33335935     6    841    0    0    0
C 1498.12996931 46.99974116 54.16390735     1    841   845   846   847
H 1498.08414383 49.11235164 53.85681758     6    844    0    0    0
H 1498.40177783 46.20558465 52.34709970     6    844    0    0    0
H 1499.52745503 46.54975691 55.51614473     6    844    0    0    0
H 1468.00496714 60.38339129 91.13891449     6     849    0    0    0 
C 1467.70927917 59.33352642 89.30403977     1     848    850    851    852
H 1465.70171670 59.38467803 89.06883038     6     849    0    0    0
H 1468.57444375 60.31593677 87.82607545     6     849    0    0    0
C 1469.01171509 56.72940716 89.54073236     2     849    853    854    855
H 1471.01268848 57.18818114 89.79098476     6     852    0    0    0
H 1468.29619644 55.78285127 91.15512962     6     852    0    0    0
C 1468.60803022 54.96094273 87.07897153     2     852    856   857   858
H 1466.59968762 54.79919661 86.80020694     6     855    0    0    0
H 1469.29395202 56.02488124 85.37750204     6     855    0    0    0
C 1469.82872013 52.27091076 87.40065159     2     855   859   860   861
H 1471.67311261 52.26103470 87.76685904     6    858    0    0    0
H 1468.81432835 51.17543964 88.88552856     6    858    0    0    0
C 1469.55800840 50.52831166 84.87991270     2    858   862   863   864
H 1467.71488694 50.34256743 84.20409861     6    861    0    0    0
H 1470.58075463 51.70108652 83.43053954     6    861    0    0    0
C 1470.52526033 47.83320009 85.25996463     2    861   865   866   867
H 1472.46820270 47.85123630 86.08473708     6    864    0    0    0
H 1469.48514605 46.88744620 86.74544670     6    864    0    0    0
C 1470.70060085 46.44104068 82.83780257     2    864   868   869   870
H 1469.04126967 46.70592762 81.59590905     6    867    0    0    0
H 1472.25016912 47.22826876 81.71218171     6    867    0    0    0
C 1471.36751281 43.59943650 82.82421489     2    867   871   872   873
H 1473.01704160 43.33677378 84.05035932     6    870    0    0    0
H 1469.81034866 42.58390542 83.76263229     6    870    0    0    0
C 1471.58728529 42.70797391 80.04354123     2    870   874   875   876
H 1469.83960239 43.47985589 79.17398541     6    873    0    0    0
H 1473.07048333 43.76561133 79.06977440     6    873    0    0    0
C 1471.79854015 39.90230516 79.77510267     2    873   877   878   879
H 1472.89342450 39.12252854 81.35259965     6    876    0    0    0
H 1470.03578731 38.75502549 79.87189655     6    876    0    0    0
C 1473.23164731 39.52793997 77.17391742     2    876   880   881   882
H 1472.25994643 40.15296580 75.40521768     6    879    0    0    0
H 1474.86772257 40.51410271 77.18902353     6    879    0    0    0
C 1473.84551822 36.87427339 76.75161120     1    879   883   884   885
H 1472.16838934 35.75009770 77.00076078     6    882    0    0    0
H 1475.24926107 36.18712299 78.21105646     6    882    0    0    0
H 1474.67908254 36.68894920 74.81936064     6    882    0    0    0
H 1485.15754329 57.72715538 60.68350389     6     887    0    0    0 
C 1485.34672959 57.54835493 62.70155132     1     886    888    889    890
H 1485.89282737 55.59919347 62.90468644     6     887    0    0    0
H 1486.88899047 58.62043494 63.47762256     6     887    0    0    0
C 1482.87553039 58.41744093 63.93305605     2     887    891    892    893
H 1483.33317619 58.84236189 65.89621868     6     890    0    0    0
H 1482.10631459 60.09425065 63.14722714     6     890    0    0    0
C 1480.92582266 56.21615020 63.80997129     2     890    894   895   896
H 1480.18920537 55.88799192 61.90879438     6     893    0    0    0
H 1481.92108876 54.55763579 64.25997092     6     893    0    0    0
C 1478.74881826 56.73331343 65.61882654     2     893   897   898   899
H 1479.36693011 57.06948305 67.63484834     6    896    0    0    0
H 1477.92256331 58.65176080 64.90684078     6    896    0    0    0
C 1476.90318874 54.65179546 65.65068349     2    896   900   901   902
H 1476.36717715 54.07204462 63.71325559     6    899    0    0    0
H 1477.81753196 52.82614167 66.25732705     6    899    0    0    0
C 1474.65302729 55.42680910 67.10663630     2    899   903   904   905
H 1475.09611876 56.34799464 68.94230830     6    902    0    0    0
H 1473.50743391 56.78850185 66.20600355     6    902    0    0    0
C 1472.89298335 53.17354024 67.50330463     2    902   906   907   908
H 1472.40277958 52.50023751 65.53599870     6    905    0    0    0
H 1473.75924664 51.55267191 68.38460795     6    905    0    0    0
C 1470.43153701 54.06597658 68.74731082     2    905   909   910   911
H 1470.87180045 54.85553534 70.64114343     6    908    0    0    0
H 1469.76692708 55.68190012 67.61016856     6    908    0    0    0
C 1468.20284339 52.20780944 68.76454006     2    908   912   913   914
H 1468.17609088 51.42845092 66.97550613     6    911    0    0    0
H 1468.57056258 50.66783296 70.08634513     6    911    0    0    0
C 1465.56789525 53.41544092 69.12129903     2    911   915   916   917
H 1465.44514441 54.60521114 70.76994636     6    914    0    0    0
H 1465.49579079 54.60113230 67.43717763     6    914    0    0    0
C 1463.34110152 51.48863089 69.22782559     2    914   918   919   920
H 1463.86097120 49.75955380 68.05395536     6    917    0    0    0
H 1463.22434354 50.76114285 71.11712060     6    917    0    0    0
C 1460.88716424 52.73891204 68.22374919     1    917   921   922   923
H 1461.16827064 53.51642983 66.40301331     6    920    0    0    0
H 1460.30213278 54.58960966 69.05027404     6    920    0    0    0
H 1459.20350411 51.48387939 68.05708770     6    920    0    0    0
H 1483.96016720 65.37445091 90.86355804     6     925    0    0    0 
C 1483.60872246 63.38927445 90.55897914     1     924    926    927    928
H 1484.21900153 63.00935449 88.58043440     6     925    0    0    0
H 1484.92459272 62.24899188 91.64768664     6     925    0    0    0
C 1480.82255862 62.56259724 90.92691420     2     925    929    930    931
H 1480.24098094 63.38706293 92.82555314     6     928    0    0    0
H 1479.71213294 63.75896981 89.53816649     6     928    0    0    0
C 1480.32716571 59.73448359 90.59850934     2     928    932   933   934
H 1481.74105685 58.71027772 91.73395044     6     931    0    0    0
H 1478.50510466 59.16939485 91.42968157     6     931    0    0    0
C 1480.10951010 58.98476533 87.85992040     2     931   935   936   937
H 1478.48918964 59.77564390 86.82940199     6    934    0    0    0
H 1481.86914450 59.50018948 87.00324700     6    934    0    0    0
C 1480.02141234 56.12946971 87.69919454     2    934   938   939   940
H 1481.67182676 55.23147159 88.71954329     6    937    0    0    0
H 1478.38919560 55.55713785 88.68215304     6    937    0    0    0
C 1479.73802324 55.25393976 85.01211729     2    937   941   942   943
H 1478.07100863 56.22602992 84.27499990     6    940    0    0    0
H 1481.29785787 55.70255490 83.69944962     6    940    0    0    0
C 1479.46194735 52.36685628 84.62905884     2    940   944   945   946
H 1478.33008231 51.47206479 86.09643604     6    943    0    0    0
H 1478.48757605 52.16214034 82.90837762     6    943    0    0    0
C 1481.81651456 50.64798867 84.69433677     2    943   947   948   949
H 1483.04616225 51.00183449 83.07966409     6    946    0    0    0
H 1483.02129838 51.30619080 86.28624404     6    946    0    0    0
C 1481.09436835 47.72707568 84.82806698     2    946   950   951   952
H 1479.79213886 47.52919775 86.29593677     6    949    0    0    0
H 1479.86188216 47.16082056 83.18769061     6    949    0    0    0
C 1483.49979136 46.11144142 85.21637827     2    949   953   954   955
H 1483.05707587 44.01592270 84.91018375     6    952    0    0    0
H 1484.87018530 46.55905579 83.72190680     6    952    0    0    0
C 1484.67049614 46.35765443 88.01062292     2    952   956   957   958
H 1486.42311202 45.29631235 87.97786041     6    955    0    0    0
H 1484.92317680 48.36036329 88.25975795     6    955    0    0    0
C 1482.82685929 45.35122218 90.08503354     1    955   959   960   961
H 1483.85140055 45.41365937 91.86591712     6    958    0    0    0
H 1482.75288522 43.33806208 89.73098137     6    958    0    0    0
H 1480.91934107 46.14010777 89.86684014     6    958    0    0    0
H 1473.59403586 54.51415113 48.79640128     6     963    0    0    0 
C 1475.05177787 55.50933675 49.84721772     1     962    964    965    966
H 1474.49536632 55.16456584 51.76904968     6     963    0    0    0
H 1476.43073822 53.97306895 49.58539491     6     963    0    0    0
C 1475.72649245 58.23669699 49.11332683     2     963    967    968    969
H 1477.29403491 59.00162486 50.22866218     6     966    0    0    0
H 1476.26799714 58.17100916 47.11794483     6     966    0    0    0
C 1473.37926476 59.83214938 49.56368938     2     966    970   971   972
H 1471.73757141 59.24121728 48.32131044     6     969    0    0    0
H 1472.76163109 59.60855893 51.57935547     6     969    0    0    0
C 1474.27455340 62.64359049 49.37892178     2     969   973   974   975
H 1475.81318105 63.18184925 50.72507709     6    972    0    0    0
H 1475.13802774 62.60010877 47.58182130     6    972    0    0    0
C 1472.35662783 64.74121183 49.40864775     2    972   976   977   978
H 1470.62607393 64.45341843 48.32706984     6    975    0    0    0
H 1471.97331670 65.01619223 51.31873234     6    975    0    0    0
C 1473.30586795 67.22457387 48.37975494     2    975   979   980   981
H 1474.93171085 67.61764242 49.47097840     6    978    0    0    0
H 1473.80401462 67.04564461 46.40341196     6    978    0    0    0
C 1471.50469918 69.61617210 48.80243311     2    978   982   983   984
H 1469.70547366 69.15064784 47.89915340     6    981    0    0    0
H 1471.07940978 70.19715833 50.64480216     6    981    0    0    0
C 1472.53146538 71.89396794 47.33816092     2    981   985   986   987
H 1474.37666172 72.37284928 47.85932487     6    984    0    0    0
H 1472.92485678 71.36875140 45.34716038     6    984    0    0    0
C 1470.81728735 74.21648158 47.27141139     2    984   988   989   990
H 1471.65831951 75.74647242 46.11084443     6    987    0    0    0
H 1469.19740402 73.44228182 46.29965791     6    987    0    0    0
C 1470.04152487 75.07735835 49.91890477     2    987   991   992   993
H 1468.84957591 73.50746742 50.78929727     6    990    0    0    0
H 1471.63998307 75.55680642 50.98393631     6    990    0    0    0
C 1468.14618166 77.37134507 49.84068945     2    990   994   995   996
H 1469.46879296 79.03364157 49.53523686     6    993    0    0    0
H 1466.93603211 77.37190767 48.25288869     6    993    0    0    0
C 1466.75710962 77.80944471 52.32225723     1    993   997   998   999
H 1465.28306170 76.41315919 52.84557145     6    996    0    0    0
H 1465.72909484 79.52072459 52.17707385     6    996    0    0    0
H 1468.01459042 78.20993668 53.88477750     6    996    0    0    0
H 1478.95130998 42.13940116 37.29989469     6     1001    0    0    0 
C 1477.80784874 40.95848323 38.66218736     1     1000    1002    1003    1004
H 1477.18692465 39.25191984 37.44216332     6     1001    0    0    0
H 1479.25787887 40.13085273 39.97357894     6     1001    0    0    0
C 1475.76903473 42.20892283 40.27360184     2     1001    1005    1006    1007
H 1474.90320885 40.78316244 41.47160759     6     1004    0    0    0
H 1476.33272892 43.68515663 41.56142175     6     1004    0    0    0
C 1473.70923023 43.23987189 38.51180776     2     1004    1008   1009   1010
H 1474.63933758 44.16486708 36.87120762     6     1007    0    0    0
H 1472.58901069 41.72521661 37.69635353     6     1007    0    0    0
C 1472.05391518 45.12838574 39.88994740     2     1007   1011   1012   1013
H 1470.84931846 44.19758600 41.26622952     6    1010    0    0    0
H 1473.25657390 46.70469630 40.70146379     6    1010    0    0    0
C 1470.24417400 46.56195824 38.05452293     2    1010   1014   1015   1016
H 1470.88936583 46.42066416 36.03438008     6    1013    0    0    0
H 1468.53444265 45.50912861 37.94231159     6    1013    0    0    0
C 1469.79593610 49.24689481 38.89287543     2    1013   1017   1018   1019
H 1469.47576038 49.43266185 41.01495630     6    1016    0    0    0
H 1471.54726982 50.15840812 38.79013337     6    1016    0    0    0
C 1467.63174790 50.62611941 37.42853358     2    1016   1020   1021   1022
H 1468.43729432 50.94547146 35.49624893     6    1019    0    0    0
H 1465.78602352 49.56209525 37.36959075     6    1019    0    0    0
C 1466.99305709 53.26253731 38.53514099     2    1019   1023   1024   1025
H 1468.61932342 54.20453153 39.27912852     6    1022    0    0    0
H 1466.07875647 54.43226656 37.03985177     6    1022    0    0    0
C 1464.89090213 52.83975751 40.59369847     2    1022   1026   1027   1028
H 1463.31431580 51.63107550 39.81949775     6    1025    0    0    0
H 1465.60787798 51.68642690 42.03402447     6    1025    0    0    0
C 1463.96881119 55.31199552 41.69696799     2    1025   1029   1030   1031
H 1465.33054601 55.76469371 43.20532239     6    1028    0    0    0
H 1464.06653003 56.93943706 40.29272898     6    1028    0    0    0
C 1461.41943465 55.11607995 43.02521991     2    1028   1032   1033   1034
H 1460.01360927 54.57487379 41.52750170     6    1031    0    0    0
H 1461.49361809 53.63000122 44.46300685     6    1031    0    0    0
C 1460.59792311 57.66398534 44.16283280     1    1031   1035   1036   1037
H 1458.68149305 57.38300830 45.01656266     6    1034    0    0    0
H 1460.44042801 59.15165087 42.82018162     6    1034    0    0    0
H 1461.91745692 58.23124600 45.61921186     6    1034    0    0    0
H 1494.62871629 62.50510665 56.83319258     6     1039    0    0    0 
C 1495.47676234 63.52233028 58.44220696     1     1038    1040    1041    1042
H 1497.04881395 64.55224131 57.31653734     6     1039    0    0    0
H 1494.21547661 65.03155258 59.21745261     6     1039    0    0    0
C 1496.36415200 61.61571556 60.33877032     2     1039    1043    1044    1045
H 1494.68070905 60.91779215 61.25526807     6     1042    0    0    0
H 1497.45898694 60.07146237 59.32194308     6     1042    0    0    0
C 1498.04158762 62.61831739 62.51710671     2     1042    1046   1047   1048
H 1499.75898881 63.25945447 61.85113015     6     1045    0    0    0
H 1497.23218722 64.28744827 63.30851721     6     1045    0    0    0
C 1498.56281998 60.58798421 64.63555983     2     1045   1049   1050   1051
H 1496.81858079 59.64905011 65.23217545     6    1048    0    0    0
H 1499.75312474 59.21023851 63.67707996     6    1048    0    0    0
C 1500.07768288 61.73428362 66.92421573     2    1048   1052   1053   1054
H 1501.75586684 62.34011561 66.19918057     6    1051    0    0    0
H 1499.10515736 63.20003730 67.69658313     6    1051    0    0    0
C 1500.75048280 59.67767201 68.85163484     2    1051   1055   1056   1057
H 1498.96870004 58.92784834 69.59629094     6    1054    0    0    0
H 1501.47353070 57.91467204 67.84412996     6    1054    0    0    0
C 1502.36211324 60.49381550 71.21000624     2    1054   1058   1059   1060
H 1504.24422591 61.27627038 70.80466708     6    1057    0    0    0
H 1501.39885055 62.12530360 71.86003331     6    1057    0    0    0
C 1502.46923319 58.65301921 73.37783625     2    1057   1061   1062   1063
H 1500.72317880 57.74547704 73.94395528     6    1060    0    0    0
H 1503.76117363 57.06247020 73.00251795     6    1060    0    0    0
C 1503.64500375 59.91016108 75.71754373     2    1060   1064   1065   1066
H 1505.53836315 60.47812928 75.10700981     6    1063    0    0    0
H 1502.62604707 61.47679286 76.42707391     6    1063    0    0    0
C 1503.97282637 57.98782025 77.88612011     2    1063   1067   1068   1069
H 1502.05683018 57.29303484 78.31455208     6    1066    0    0    0
H 1505.29163651 56.46484644 77.30848822     6    1066    0    0    0
C 1504.96939991 59.36230013 80.16358656     2    1066   1070   1071   1072
H 1506.51458373 60.72419993 79.75288183     6    1069    0    0    0
[...]
 1762      H    1455.0290744300    53.6183441200    63.8819745700
 1763      H    1458.1691011000    54.5043728000    63.2834406600
 1764      C    1455.2052247000    56.4849417200    61.0839144900
 1765      H    1456.4930235600    56.8420075800    59.4885493100
 1766      H    1453.3954485900    55.8163194500    60.2307634500
 1767      C    1455.2545917900    58.9458299600    62.6085963900
 1768      H    1454.1132276400    58.7003904200    64.3093874900
 1769      H    1457.1909803900    58.9945974400    63.1691492000
 1770      C    1454.7760110700    61.4765574600    61.1698259400
 1771      H    1456.1948414100    61.9492016400    59.7139213200
 1772      H    1452.9416829800    61.0843196600    60.1548952400
 1773      C    1454.2652845100    63.3638737400    63.2717379500
 1774      H    1452.9404682900    62.6309455000    64.5328931600
 1775      H    1456.1104533500    63.7486552700    64.1196347200
 1776      C    1452.9216578400    65.4958595600    61.9719904600
 1777      H    1453.5583932700    65.8162772300    60.1956528600
 1778      H    1450.9258879700    65.1875228800    61.6057093900
 1779      C    1452.9508711400    68.0029785800    63.5478116600
 1780      H    1451.8454020200    67.3436685300    65.1616112200
 1781      H    1454.8581062300    68.3271811000    64.4024763700
 1782      C    1451.8333773100    70.3535194800    62.2001066900
 1783      H    1450.3132554100    69.5897836000    60.8390060800
 1784      H    1451.1209766200    71.6979394400    63.5106428500
 1785      C    1453.6288042800    71.5711873700    60.3192671800
 1786      H    1455.0880475000    72.5991204100    61.2096664000
 1787      H    1454.4013798200    69.9182909700    59.3705013500
 1788      C    1452.2319210200    73.2311852900    58.3586879900
 1789      H    1450.3724445300    72.6026487500    58.0843661800
 1790      H    1451.7609180400    75.1276682500    59.1074448200
 1791      C    1453.5572818200    73.3291976100    55.8672134900
 1792      H    1455.3383094000    74.1038151800    55.6755004000
 1793      H    1453.9184324300    71.3728856600    55.1990524300
 1794      C    1451.8386981700    74.8351981100    54.1110138900
 1795      H    1451.2688115600    76.8084538300    54.8362394400
 1796      H    1450.0906857400    73.7788632200    53.7468694800
 1797      H    1452.5968941300    75.2613533500    52.2067566600
 1798      H    1494.2463926800    78.2820763800    82.3027641500
 1799      C    1494.0648659200    78.1252858900    80.3110661800
 1800      H    1492.1569207800    78.8603018600    79.9545507100
 1801      H    1495.2789024400    79.3977347200    79.1282638300
 1802      C    1493.9582685100    75.3006973900    80.1253803900
 1803      H    1495.7818575700    74.5045281000    79.6644174200
 1804      H    1493.4949840100    74.3944139700    81.8726199100
 1805      C    1492.0426683200    74.3535739500    78.0896006300
 1806      H    1490.2962818600    75.3787826700    78.4851890600
 1807      H    1492.8576159600    74.5794873100    76.1557447100
 1808      C    1491.3790166900    71.5058777600    78.3216207100
 1809      H    1492.9773386000    70.4283928800    78.6412297700
 1810      H    1490.2590845000    71.2892874200    79.9874424600
 1811      C    1489.8278282600    70.3555605600    76.1356120500
 1812      H    1487.9453130000    71.3964799900    76.0164363500
 1813      H    1490.7325782500    70.6420984700    74.3571386000
 1814      C    1489.5383445100    67.6182324300    76.7065874700
 1815      H    1491.5391678100    66.8134699700    76.6584581300
 1816      H    1488.8713210300    67.4676596000    78.5920133900
 1817      C    1487.6106528400    66.3472302000    74.8566584300
 1818      H    1486.0117900200    67.5926298600    74.4104557300
 1819      H    1488.4650792800    66.3399006100    73.0941851100
 1820      C    1486.5618079800    63.6677393700    75.5215797900
 1821      H    1487.8759369200    62.1708546800    76.1650099400
 1822      H    1485.4919469500    63.9732538800    77.2292408800
 1823      C    1484.8627146400    62.4344896500    73.5247826400
 1824      H    1483.3626243000    63.6674384800    72.7795608400
 1825      H    1485.9616042300    62.0111134200    71.9184855000
 1826      C    1483.7019301000    59.9621835900    74.4940299700
 1827      H    1485.3325674200    58.8096626400    75.2616417100
 1828      H    1482.4882050700    60.2983477500    76.0044317900
 1829      C    1482.6419627900    58.2663910900    72.3502322400
 1830      H    1481.4220354900    59.2493391600    71.0338301300
 1831      H    1483.9741642500    57.5820371800    70.9749078800
 1832      C    1481.3749803000    55.8083588000    73.1717587600
 1833      H    1479.9812280500    56.2908443700    74.5763276100
 1834      H    1482.6708980800    54.3983510100    73.8730209200
 1835      H    1480.4410315500    55.1212903400    71.5074755900
 1836      H    1475.3382773200    63.2407644800    68.6706667600
 1837      C    1476.3891644000    62.5752282700    70.3407375400
 1838      H    1477.3504961700    60.9212713200    69.7237075400
 1839      H    1478.0202711600    63.6973683000    70.5055766200
 1840      C    1474.4431843100    62.3211723500    72.5940355800
 1841      H    1473.8165362000    64.2634027900    72.8984981700
 1842      H    1472.8152023000    61.1830270300    72.0527992400
 1843      C    1475.8471557900    61.3700859400    74.8929528000
 1844      H    1476.1100842300    59.2323729700    74.5418071200
 1845      H    1477.5594777500    62.5201795900    75.0137144200
 1846      C    1474.4884777800    61.6951060000    77.4713297800
 1847      H    1474.0154907600    63.7471306100    77.6268650800
 1848      H    1472.8263890700    60.4411376400    77.3837179500
 1849      C    1476.2215286300    61.1330839600    79.6711260400
 1850      H    1477.0366330400    59.2428195400    79.3736211600
 1851      H    1477.8670865600    62.4030110800    79.4863827200
 1852      C    1475.0211160000    61.4534743100    82.2256715100
 1853      H    1473.5477840000    60.0680734300    82.5470354900
 1854      H    1476.6718817300    61.3579084700    83.5156842700
 1855      C    1473.9770484300    64.1299469300    82.7555225200
 1856      H    1474.9878755800    65.5460199200    81.6176549900
 1857      H    1472.1294389200    64.2281913500    81.8000651800
 1858      C    1473.8290789000    64.7467095300    85.5124992100
 1859      H    1471.9151345600    65.5897267700    85.8737153200
 1860      H    1474.0538981900    63.1829869000    86.7496587700
 1861      C    1475.9417305300    66.7387854100    86.2108103100
 1862      H    1477.7833658600    66.3809194300    85.6136732500
 1863      H    1475.4852061500    68.4908027900    85.1563510500
 1864      C    1475.8354186200    67.4531979300    89.0461396800
 1865      H    1474.1080489900    68.5880334600    89.1954471000
 1866      H    1475.6851484400    65.8354617500    90.3225011400
 1867      C    1478.0290663100    69.3464091300    89.6570400500
 1868      H    1479.7731977700    68.3797629500    89.6611918400
 1869      H    1478.3536485200    70.6688007100    88.1310544500
 1870      C    1477.5589522000    70.9548313200    91.9500370400
 1871      H    1479.1539989400    72.0744728500    92.5648325600
 1872      H    1476.8775607700    69.7746854700    93.6100556600
 1873      H    1475.9916942600    72.2582405900    91.5763736000
 1874      H    1477.0826352800    88.5340241900    62.2181781400
 1875      C    1478.4754393600    87.6579232800    60.9056898300
 1876      H    1479.3243214900    89.2504012700    59.8921482600
 1877      H    1479.7881712500    86.5788149000    61.9161604200
 1878      C    1477.2821632000    85.8344936600    58.9620687300
 1879      H    1476.2833449600    84.4675622600    60.0203166100
 1880      H    1475.7365529200    86.8497578400    57.9371840800
 1881      C    1479.1659092700    84.7355965600    57.1053486700
 1882      H    1479.5096319700    86.2458364000    55.5703576100
 1883      H    1480.7531426200    84.0846513200    58.1842866700
 1884      C    1477.8848304400    82.4813469800    55.8809185200
 1885      H    1477.2813030200    81.2883458400    57.4379227600
 1886      H    1476.1638687400    82.9583349400    54.8039981700
 1887      C    1479.5106183900    80.8242484400    54.1542809800
 1888      H    1480.0521789900    81.7024980500    52.2544513700
 1889      H    1481.1846006800    80.7208343800    55.1454407200
 1890      C    1478.5186744200    78.1914385500    53.5855683600
 1891      H    1478.2224514200    77.1676683100    55.3734325400
 1892      H    1476.6424845500    78.6163235700    52.7849515500
 1893      C    1480.2615046700    76.5089072200    52.0501101000
 1894      H    1480.4797565900    77.5300652000    50.2723420200
 1895      H    1482.1601948300    76.3296796700    52.9970318200
 1896      C    1479.4597985000    73.7787502700    51.9935307500
 1897      H    1478.6726644600    73.0836748900    53.7083856400
 1898      H    1477.8501611300    73.7224937500    50.6963486800
 1899      C    1481.6683140000    72.1293174200    51.1685364600
 1900      H    1482.8566694900    72.9041535500    49.6844629100
 1901      H    1482.9384005300    72.3609066700    52.7196747300
 1902      C    1480.8564694800    69.2833974200    50.8623144900
 1903      H    1480.7904918100    68.5947125800    52.7943740900
 1904      H    1478.8988430100    69.0852807300    50.2557691900
 1905      C    1482.4213030500    67.8221418700    49.0373250800
 1906      H    1481.7726966900    68.6169454900    47.1443639500
 1907      H    1484.4315044800    68.3330363400    49.3064618100
 1908      C    1481.6881200900    64.9588264900    48.9747859200
 1909      H    1479.7971039000    64.6442697900    48.4138959700
 1910      H    1481.8018783500    63.8395220200    50.7327672500
 1911      H    1482.8311077600    63.9196947200    47.6103602500
 ----------------------------------------------------------------
 Nuclear Repulsion Energy =           0.00000000 hartrees
 There are     2498 alpha and     2498 beta electrons

 Total QAlloc Memory Limit   2000 MB
 Mega-Array Size       204 MB
 MEM_STATIC part       192 MB
   **** Step 1: MM calculation on the entire system **** 
 OPLSAA force field loaded.
Reading user-defined FF parameters...
 Reading user defined atom types.
 Found 3 user defined AtomTypes
finished.
Determining angles, torsions, etc. from user defined input
Determining VDW/Coulomb pairs... (useList = 0)

 Time req'd to get MM system information: 0.2 s (CPU) 0.2 s (wall)

 ------ MM Energies ------
   Ebond:           565.590589661815
   Eangle:          864.400940373106
   EUreyBrad:         0.000000000000
   Eimptors:          0.000000000000
   Etorsion:        241.975682794489
   Evdw:        1193494.703864875250
   Ecoulomb:        183.295321002866
   Etot:        1195349.966398707591 Kcal/mol (   1904.911434235082 hartree)
 -------------------------
 Time req'd to calc MM energy: 0.1 s (CPU) 0.1 s (wall)
 OPLSAA force field loaded.
Reading user-defined FF parameters...
 Reading user defined atom types.
 Found 3 user defined AtomTypes
finished.
 Time req'd to get MM system information: 0.0 s (CPU) 0.0 s (wall)
 Time req'd to calc MM gradient: 0.2 s (CPU) 0.2 s (wall)
   **** Step 2: MM calculation on the model system **** 
 Reading user defined atom types.
 Found 3 user defined AtomTypes
 ----------------------------------------------------------------
             Standard Nuclear Orientation (Bohr)
    I     Atom           X                Y                Z
 ----------------------------------------------------------------
    1      Fe   1474.6454479300    68.9190687900    60.2802471500
    2      C    1475.2236767200    66.9585460900    57.3562566600
    3      C    1474.5237040800    70.3995844400    63.3019618600
    4      C    1471.3194403600    69.0575226100    59.8863211000
    5      C    1476.7114524800    66.7876268400    61.9629118900
    6      C    1476.1422011500    71.6143757800    58.9404011400
    7      O    1475.6432135300    65.9543485900    55.5121905000
    8      O    1474.4145213700    71.4385853800    65.2487777500
    9      O    1468.9945801400    69.2082409600    59.6814315300
   10      O    1477.9450924900    65.3123785200    62.8761113300
   11      O    1477.1868285800    73.4268494100    58.2748856600
 ----------------------------------------------------------------
 Nuclear Repulsion Energy =         800.91215006 hartrees
 There are       48 alpha and       48 beta electrons
 OPLSAA force field loaded.
Reading user-defined FF parameters...
 Reading user defined atom types.
 Found 3 user defined AtomTypes
finished.
Determining VDW/Coulomb pairs... (useList = 0)

 No MM bonds in system. Return all possible pairs.
 Time req'd to get MM system information: 0.0 s (CPU) 0.0 s (wall)

 ------ MM Energies ------
   Ebond:             0.000000000000
   Eangle:            0.000000000000
   EUreyBrad:         0.000000000000
   Eimptors:          0.000000000000
   Etorsion:          0.000000000000
   Evdw:        1193953.439891691320
   Ecoulomb:         -6.487902465431
   Etot:        1193946.951989225810 Kcal/mol (   1902.675588444188 hartree)
 -------------------------
 Eold: 1904.9114342 mm_energy: 1902.6755884 Enew:    2.2358458
 Time req'd to calc MM energy: 0.0 s (CPU) 0.0 s (wall)
 OPLSAA force field loaded.
Reading user-defined FF parameters...
 Reading user defined atom types.
 Found 3 user defined AtomTypes
finished.
Determining VDW/Coulomb pairs... (useList = 0)

 No MM bonds in system. Return all possible pairs.
 Time req'd to get MM system information: 0.0 s (CPU) 0.0 s (wall)
 Number of fixed atoms: 0
 Time req'd to calc MM gradient: 0.0 s (CPU) 0.0 s (wall)
   **** Step 3: QM calculation on the model system **** 
 Requested basis set is def2-mSVP
 There are 80 shells and 174 basis functions

                       Distance Matrix (Bohrs)
             Fe(  1)   C (  2)   C (  3)   C (  4)   C (  5)   C (  6)
   C (  2)  3.567593
   C (  3)  3.367122  6.905224
   C (  4)  3.352115  5.103919  4.871862
   C (  5)  3.412152  4.843961  4.430072  6.207935
   C (  6)  3.361568  5.002994  4.808166  5.539972  5.723384
   O (  7)  5.702584  2.141262  9.038471  6.888957  6.591456  6.636078
   O (  8)  5.575624  9.111387  2.209420  6.633621  6.140376  6.543042
   O (  9)  5.689860  7.019203  6.715560  2.338733  8.403252  7.578067
   O ( 10)  5.534833  6.370617  6.145479  8.177054  2.128887  7.645613
   O ( 11)  5.549791  6.821788  6.444227  7.490927  7.609652  2.195272
             O (  7)   O (  8)   O (  9)   O ( 10)
   O (  8) 11.242227
   O (  9)  8.495570  8.083659
   O ( 10)  7.741970  7.458209 10.271095
   O ( 11)  8.115017  7.763637  9.321371  9.359000

 A cutoff of  1.0D-11 yielded   2490 shell pairs
 There are     12820 function pairs (     14670 Cartesian)
 Smallest overlap matrix eigenvalue = 2.29E-03
 Guess MOs from SCF MO coefficient file
 Reading MOs from coefficient file
 Reading MOs from coefficient file
 A restricted Kohn-Sham SCF calculation will be
 performed using Pulay DIIS extrapolation
 Exchange:  B88      Correlation:  P86
 Using SG-1 standard quadrature grid
 SCF converges when DIIS error is below 1.0E-08
 Using Q-Chem read-in guess as SCF_GUESS READ specified.

 using 2 threads for integral computing
 -------------------------------------------------------
 OpenMP Integral computing Module                
 Release: version 1.0, May 2013, Q-Chem Inc. Pittsburgh 
 -------------------------------------------------------
 ---------------------------------------
  Cycle       Energy         DIIS Error
 ---------------------------------------
    1   -1830.5099383448      2.69E-09
    2   -1830.5099383446      9.09E-09 Convergence criterion met
 ---------------------------------------
 SCF time:  CPU 2.65 s  wall 1.38 s
 E(QM + QM/MM):    -1830.5099383446 E(MM):    2.2358458 E(Tot): -1828.274092553656 
 SCF   energy in the final basis set = -1828.27409255
 Total energy in the final basis set = -1828.27409255

 --------------------------------------------------------------

                    Orbital Energies (a.u.)
 --------------------------------------------------------------

 Alpha MOs
 -- Occupied --
******** -29.6377 -25.5965 -25.5866 -25.5801 -18.9004 -18.8859 -18.8853
-18.8737 -18.8580 -10.0609 -10.0583 -10.0472 -10.0394 -10.0375  -3.3224
 -2.1554  -2.1381  -2.1241  -1.0882  -1.0801  -1.0561  -1.0480  -0.9925
 -0.5767  -0.5326  -0.5222  -0.5153  -0.5111  -0.4604  -0.4594  -0.4491
 -0.4457  -0.4400  -0.4351  -0.4295  -0.4206  -0.4148  -0.4146  -0.4042
 -0.3967  -0.3889  -0.3761  -0.3727  -0.2778  -0.2715  -0.2412  -0.2186
 -- Virtual --
 -0.0980  -0.0952  -0.0815  -0.0782  -0.0740  -0.0710  -0.0652  -0.0554
 -0.0518  -0.0394  -0.0187   0.0101   0.1868   0.2093   0.2262   0.2490
  0.2967   0.3353   0.3523   0.3996   0.4050   0.4134   0.4286   0.4394
  0.4457   0.4754   0.4866   0.5038   0.5305   0.5553   0.5600   0.5987
  0.6014   0.6289   0.6492   0.6602   0.7315   0.7434   0.7609   0.7644
  0.7999   0.8299   0.8394   0.8627   0.8877   0.9095   0.9450   0.9552
  0.9764   0.9839   0.9872   1.0072   1.0114   1.0275   1.0412   1.0638
  1.2168   1.2286   1.2695   1.3392   1.3892   1.3951   1.4087   1.4102
  1.4123   1.4156   1.4280   1.4425   1.4532   1.4681   1.4759   1.4866
  1.5216   1.5417   1.5479   1.5540   1.6102   1.6480   1.6691   1.6745
  1.6847   1.8213   1.8298   1.8352   1.8373   1.8390   1.8488   1.8579
  1.8605   1.8635   1.8723   1.8787   1.8845   1.9082   1.9150   1.9507
  2.3427   2.3890   2.4108   2.4459   2.4546   2.4698   2.4862   2.4981
  2.5286   2.5338   2.6361   2.6515   2.6618   2.6701   2.6869   2.8181
  2.8312   2.8917   2.9211   2.9829  13.2551  13.2851  13.3342  13.3540
 13.4335  24.9100  24.9327  24.9606  24.9666  25.0280
 --------------------------------------------------------------

          Ground-State Mulliken Net Atomic Charges

     Atom                 Charge (a.u.)
  ----------------------------------------
      1 Fe                   -0.509905
      2 C                     0.216382
      3 C                     0.192629
      4 C                     0.231314
      5 C                     0.192135
      6 C                     0.241784
      7 O                    -0.068302
      8 O                    -0.116552
      9 O                    -0.188574
     10 O                    -0.074984
     11 O                    -0.115928
  ----------------------------------------
  Sum of atomic charges =     0.000000

 -----------------------------------------------------------------
                    Cartesian Multipole Moments
 -----------------------------------------------------------------
    Charge (ESU x 10^10)
                -0.0000
    Dipole Moment (Debye)
         X       1.1542054372      Y      -0.6077958116      Z      -0.1649003490
       Tot       1.3148376573
    Quadrupole Moments (Debye-Ang)
        XX    1729.4185     XY    -432.5994     YY    -113.3621
        XZ     -91.9282     YZ     -24.7298     ZZ     -78.4306
    Octopole Moments (Debye-Ang^2)
       XXX 1940113.1739    XXY -307670.6779    XYY  -86966.1778
       YYY   -9990.7446    XXZ  -45351.1943    XYZ  -17967.5594
       YYZ   -3787.0145    XZZ  -60038.6742    YZZ   -3440.3588
       ZZZ   -7008.0920
    Hexadecapole Moments (Debye-Ang^3)
      XXXX ************   XXXY ************   XXYY ************
      XYYY ************   YYYY -671354.8100   XXXZ ************
      XXYZ ************   XYYZ ************   YYYZ -324110.8466
      XXZZ ************   XYZZ ************   YYZZ -217146.6918
      XZZZ ************   YZZZ -273751.6239   ZZZZ -437553.9278
 -----------------------------------------------------------------
 Calculating MO derivatives via CPSCF
 Full subspace dimension requested for CIS/TDDFT
 MAX_CIS_SUBSPACE fits in available memory
    1     0    36    0.0401142  
    2     0    36    0.0066782  
    3     0    36    0.0007732  
