                  Welcome to Q-Chem
     A Quantum Leap Into The Future Of Chemistry


 Q-Chem 5.4 (devel), Q-Chem, Inc., Pleasanton, CA (2021)

 E. Epifanovsky,  A. T. B. Gilbert,  Xintian Feng,  Joonho Lee,  Yuezhi Mao,  
 N. Mardirossian,  P. Pokhilko,  A. White,  M. Wormit,  M. P. Coons,  
 A. L. Dempwolff,  Zhengting Gan,  D. Hait,  P. R. Horn,  L. D. Jacobson,  
 I. Kaliman,  J. Kussmann,  A. W. Lange,  Ka Un Lao,  D. S. Levine,  Jie Liu,  
 S. C. McKenzie,  A. F. Morrison,  K. Nanda,  F. Plasser,  D. R. Rehn,  
 M. L. Vidal,  Zhi-Qiang You,  Ying Zhu,  B. Alam,  B. Albrecht,  
 A. Aldossary,  E. Alguire,  J. H. Andersen,  D. Barton,  K. Begam,  A. Behn,  
 Y. A. Bernard,  E. J. Berquist,  H. Burton,  A. Carreras,  K. Carter-Fenk,  
 R. Chakraborty,  A. D. Chien,  K. D. Closser,  V. Cofer-Shabica,  
 S. Dasgupta,  Jia Deng,  M. de Wergifosse,  M. Diedenhofen,  Hainam Do,  
 S. Ehlert,  Po-Tung Fang,  S. Fatehi,  Qingguo Feng,  T. Friedhoff,  
 J. Gayvert,  Qinghui Ge,  G. Gidofalvi,  M. Goldey,  J. Gomes,  
 C. Gonzalez-Espinoza,  S. Gulania,  A. Gunina,  M. W. D. Hanson-Heine,  
 P. H. P. Harbach,  A. W. Hauser,  M. F. Herbst,  M. Hernandez Vera,  
 M. Hodecker,  Z. C. Holden,  S. Houck,  Xunkun Huang,  Kerwin Hui,  
 B. C. Huynh,  M. Ivanov,  Hyunjun Ji,  Hanjie Jiang,  B. Kaduk,  S. Kaehler,  
 K. Khistyaev,  Jaehoon Kim,  P. Klunzinger,  Z. Koczor-Benda,  
 Joong Hoon Koh,  D. Kosenkov,  L. Koulias,  T. Kowalczyk,  C. M. Krauter,  
 K. Kue,  A. Kunitsa,  T. Kus,  A. Landau,  K. V. Lawler,  D. Lefrancois,  
 S. Lehtola,  Rain Li,  Yi-Pei Li,  Jiashu Liang,  M. Liebenthal,  
 Hung-Hsuan Lin,  You-Sheng Lin,  Fenglai Liu,  Kuan-Yu Liu,  
 M. Loipersberger,  A. Luenser,  A. Manjanath,  P. Manohar,  E. Mansoor,  
 S. F. Manzer,  Shan-Ping Mao,  A. V. Marenich,  T. Markovich,  S. Mason,  
 S. A. Maurer,  P. F. McLaughlin,  M. F. S. J. Menger,  J.-M. Mewes,  
 S. A. Mewes,  P. Morgante,  J. W. Mullinax,  K. J. Oosterbaan,  G. Paran,  
 Alexander C. Paul,  Suranjan K. Paul,  F. Pavosevic,  Zheng Pei,  S. Prager,  
 E. I. Proynov,  E. Ramos,  B. Rana,  A. E. Rask,  A. Rettig,  R. M. Richard,  
 F. Rob,  E. Rossomme,  T. Scheele,  M. Scheurer,  M. Schneider,  
 N. Sergueev,  S. M. Sharada,  W. Skomorowski,  D. W. Small,  C. J. Stein,  
 Yu-Chuan Su,  E. J. Sundstrom,  Zhen Tao,  J. Thirman,  T. Tsuchimochi,  
 N. M. Tubman,  S. P. Veccham,  O. Vydrov,  J. Wenzel,  J. Witte,  A. Yamada,  
 Kun Yao,  S. Yeganeh,  S. R. Yost,  A. Zech,  Igor Ying Zhang,  Xing Zhang,  
 Yu Zhang,  D. Zuev,  A. Aspuru-Guzik,  A. T. Bell,  N. A. Besley,  
 K. B. Bravaya,  B. R. Brooks,  D. Casanova,  Jeng-Da Chai,  S. Coriani,  
 C. J. Cramer,  A. E. DePrince, III,  R. A. DiStasio Jr.,  A. Dreuw,  
 B. D. Dunietz,  T. R. Furlani,  W. A. Goddard III,  S. Grimme,  
 S. Hammes-Schiffer,  T. Head-Gordon,  W. J. Hehre,  Chao-Ping Hsu,  
 T.-C. Jagau,  Yousung Jung,  A. Klamt,  Jing Kong,  D. S. Lambrecht,  
 WanZhen Liang,  N. J. Mayhall,  C. W. McCurdy,  J. B. Neaton,  
 C. Ochsenfeld,  J. A. Parkhill,  R. Peverati,  V. A. Rassolov,  Yihan Shao,  
 L. V. Slipchenko,  T. Stauch,  R. P. Steele,  J. E. Subotnik,  
 A. J. W. Thom,  A. Tkatchenko,  D. G. Truhlar,  T. Van Voorhis,  
 T. A. Wesolowski,  K. B. Whaley,  H. L. Woodcock III,  P. M. Zimmerman,  
 S. Faraji,  P. M. W. Gill,  M. Head-Gordon,  J. M. Herbert,  A. I. Krylov

 Additional authors for Version 5.4.1: 
 S. Kotaru,  Shaozhi Li,  Xiangyuan Li,  F. Matz,  A. Molle,  Haisheng Ren,  
 Yingli Su,  Hung-Yi Tsai,  C. Utku,  Fang Wang

 Contributors to earlier versions of Q-Chem not listed above: 
 R. D. Adamson,  B. Austin,  R. Baer,  J. Baker,  G. J. O. Beran,  
 K. Brandhorst,  S. T. Brown,  E. F. C. Byrd,  A. K. Chakraborty,  
 G. K. L. Chan,  Chun-Min Chang,  Yunqing Chen,  C.-L. Cheng,  
 Siu Hung Chien,  D. M. Chipman,  D. L. Crittenden,  H. Dachsel,  
 R. J. Doerksen,  A. D. Dutoi,  R. G. Edgar,  J. Fosso-Tande,  
 L. Fusti-Molnar,  D. Ghosh,  A. Ghysels,  A. Golubeva-Zadorozhnaya,  
 J. Gonthier,  M. S. Gordon,  S. R. Gwaltney,  G. Hawkins,  J. E. Herr,  
 A. Heyden,  S. Hirata,  E. G. Hohenstein,  G. Kedziora,  F. J. Keil,  
 C. Kelley,  Jihan Kim,  R. A. King,  R. Z. Khaliullin,  P. P. Korambath,  
 W. Kurlancheek,  A. Laurent,  A. M. Lee,  M. S. Lee,  S. V. Levchenko,  
 Ching Yeh Lin,  D. Liotard,  E. Livshits,  R. C. Lochan,  I. Lotan,  
 L. A. Martinez-Martinez,  P. E. Maslen,  N. Nair,  D. P. O'Neill,  
 D. Neuhauser,  E. Neuscamman,  C. M. Oana,  R. Olivares-Amaya,  R. Olson,  
 T. M. Perrine,  B. Peters,  P. A. Pieniazek,  A. Prociuk,  Y. M. Rhee,  
 J. Ritchie,  M. A. Rohrdanz,  E. Rosta,  N. J. Russ,  H. F. Schaefer III,  
 M. W. Schmidt,  N. E. Schultz,  S. Sharma,  N. Shenvi,  C. D. Sherrill,  
 A. C. Simmonett,  A. Sodt,  T. Stein,  D. Stuck,  K. S. Thanthiriwatte,  
 V. Vanovschi,  L. Vogt,  Tao Wang,  A. Warshel,  M. A. Watson,  
 C. F. Williams,  Q. Wu,  X. Xu,  Jun Yang,  W. Zhang,  Yan Zhao

 Please cite Q-Chem as follows:
 Y. Shao et al., Mol. Phys. 113, 184-215 (2015)
 DOI: 10.1080/00268976.2014.952696

 Q-Chem 5.4.1 for Intel X86 EM64T Linux

 Parts of Q-Chem use Armadillo 9.900.5 (Nocturnal Misbehaviour).
 http://arma.sourceforge.net/

 Q-Chem begins on Sun Jul  3 09:42:05 2022  

 Host: p09r14n10.grace.hpc.yale.internal
0

     Scratch files written to /home/tl686/scratch60/qchem_dev/scratch/qchem37014//
 Processing $rem in /home/tl686/qchem_dev/qchem/config/preferences:
 Processing $rem in /home/tl686/.qchemrc:
Applying user defined connections for MM calculations

 Checking the input file for inconsistencies... 	...done.

--------------------------------------------------------------
User input:
--------------------------------------------------------------
$molecule
0   1
Fe 1477.56437193 68.67872160 60.61664498    -1  0   0   0   0
C 1477.72797670 67.16452625 57.47948033    -2  0   0   0   0 
C 1476.76952694 69.52259429 63.93310539    -2  0   0   0   0
C 1474.45675905 69.52158714 59.86484957    -2  0   0   0   0
C 1478.43126266 65.57146921 61.58280345    -2  0   0   0   0
C 1480.26841946 70.80545333 60.00103828    -2  0   0   0   0
O 1477.99428694 65.89874285 55.76629916    -3  0   0   0   0
O 1476.04033357 69.88159929 66.00980035    -3  0   0   0   0 
O 1472.30854952 69.74334667 59.38767580    -3  0   0   0   0
O 1478.90952943 63.52700057 62.37330066    -3  0   0   0   0 
O 1482.18346195 71.87720010 59.71855001    -3  0   0   0   0
H 1455.61571141 51.35949395 51.30588617      6     13    0    0    0 
C 1456.26410004 51.75228009 49.32657981     1     12    14    15    16
H 1454.58705704 51.44954717 48.28915677     6     13    0    0    0
H 1456.90177213 53.62532000 49.36524095     6     13    0    0    0
C 1458.42223721 49.86466823 48.64936122     2     13    17    18    19
H 1457.68585662 47.93690768 48.75269375     6     16    0    0    0
H 1458.67332842 49.83608635 46.54342568     6     16    0    0    0
C 1460.95347188 50.15816850 49.99235874     2     16    20   21   22
H 1461.33661067 52.10100694 49.36133256     6     19    0    0    0
H 1460.66611556 50.05199901 52.00054098     6     19    0    0    0
C 1462.98197155 48.10785994 49.39294201     2     19   23   24   25
H 1462.76102695 46.32381625 50.39334162     6    22    0    0    0
H 1462.80778818 47.71966697 47.27038702     6    22    0    0    0
C 1465.66028583 48.82892518 49.83633060     2    22   26   27   28
H 1466.14856100 50.81705794 49.10507286     6    25    0    0    0
H 1466.08854032 48.90737419 51.81561222     6    25    0    0    0
C 1467.59597836 46.95918464 48.64534790     2    25   29   30   31
H 1467.26516575 45.06789412 49.38634080     6    28    0    0    0
H 1467.55663342 46.80427660 46.62738808     6    28    0    0    0
C 1470.25852589 47.86266216 49.17678783     2    28   32   33   34
H 1470.44548268 49.72756618 48.18864152     6    31    0    0    0
H 1470.59168930 48.29058464 51.15954173     6    31    0    0    0
C 1472.18219293 46.12305017 47.85587930     2    31   35   36   37
H 1471.62375963 44.18729602 48.27811521     6    34    0    0    0
H 1472.23806888 46.43417468 45.89045398     6    34    0    0    0
C 1474.99053439 46.48392926 48.86064084     2    34   38   39   40
H 1475.54989153 48.39913910 48.06998569     6    37    0    0    0
H 1475.07184613 46.85463236 50.95953445     6    37    0    0    0
C 1476.89801790 44.29838878 48.18506743     2    37   41   42   43
H 1476.35307551 42.69473499 49.12469956     6    40    0    0    0
H 1476.86059652 43.78525586 46.24038470     6    40    0    0    0
C 1479.47544282 45.06276405 49.11474896     2    40   44   45   46
H 1480.29316818 46.56004279 47.93558522     6    43    0    0    0
H 1479.36276467 45.73919307 50.98961047     6    43    0    0    0
C 1481.51298865 43.07572045 48.83689132     1    43   47   48   49
H 1481.11701427 41.51267130 50.19988017     6    46    0    0    0
H 1483.23003909 44.14046605 49.30326093     6    46    0    0    0
H 1481.73676042 42.33834357 46.88682908     6    46    0    0    0
H 1482.91088689 59.45419315 56.03300061     6     51    0    0    0 
C 1481.30548580 60.59562528 56.73575070     1     50    52    53    54
H 1481.34044815 61.33771501 58.68776454     6     51    0    0    0
H 1481.33337656 62.30744701 55.43944862     6     51    0    0    0
C 1478.70108819 59.30926031 56.39565627     2     51    55    56    57
H 1477.21615634 60.35303849 57.40669646     6     54    0    0    0
H 1477.99773743 59.54695580 54.41129557     6     54    0    0    0
C 1478.55821270 56.57811268 57.32321216     2     54    58   59   60
H 1479.41430414 56.37159058 59.16271935     6     57    0    0    0
H 1476.67618924 56.19740059 57.74311157     6     57    0    0    0
C 1479.78646029 54.63525413 55.55337291     2     57   61   62   63
H 1479.13144851 54.83027000 53.59530083     6    60    0    0    0
H 1481.85137158 55.01197488 55.50438961     6    60    0    0    0
C 1479.28164411 51.98023844 56.27231915     2    60   64   65   66
H 1479.89772792 51.62967789 58.24108059     6    63    0    0    0
H 1477.24988689 51.68395727 56.26877477     6    63    0    0    0
C 1480.62561108 50.11644671 54.55385583     2    63   67   68   69
H 1479.92268386 48.27597282 55.18891838     6    66    0    0    0
H 1480.02058271 50.36834157 52.68839347     6    66    0    0    0
C 1483.51315616 50.27026246 54.82373306     2    66   70   71   72
H 1484.43209798 52.20744578 54.76537259     6    69    0    0    0
H 1484.10920810 49.62651059 56.65446100     6    69    0    0    0
C 1484.98891326 48.68104260 52.94876915     2    69   73   74   75
H 1484.48343416 46.83108337 53.20251479     6    72    0    0    0
H 1484.33590525 49.17048721 51.11885570     6    72    0    0    0
C 1487.77466911 49.13996891 53.33602472     2    72   76   77   78
H 1488.41892720 51.01584678 52.72698502     6    75    0    0    0
H 1488.34065007 49.35146320 55.29231424     6    75    0    0    0
C 1489.42404859 47.36475468 51.88833479     2    75   79   80   81
H 1489.62450885 45.63924189 52.95245890     6    78    0    0    0
H 1488.24604727 46.78595647 50.26378998     6    78    0    0    0
C 1492.00959128 48.42676927 51.15696757     2    78   82   83   84
H 1491.85813691 49.99208814 49.91478818     6    81    0    0    0
H 1493.00197249 49.12692202 52.75820181     6    81    0    0    0
C 1493.50555390 46.36290011 50.02100946     1    81   85   86   87
H 1495.38096463 46.90585250 49.44862094     6    84    0    0    0
H 1492.78715710 45.47547429 48.32439966     6    84    0    0    0
H 1493.91061419 44.84122559 51.35397890     6    84    0    0    0
H 1458.94180595 45.20657669 66.95181934     6     89    0    0    0 
C 1458.81444843 43.25987811 66.48002376     1     88    90    91    92
H 1459.27425838 41.99786884 68.10992270     6     89    0    0    0
H 1456.95853510 42.78253606 65.79827272     6     89    0    0    0
C 1460.46607937 42.63419911 64.18445560     2     89    93    94    95
H 1459.70256610 43.22499064 62.40827576     6     92    0    0    0
H 1462.27533239 43.70580004 64.23535911     6     92    0    0    0
C 1461.14537901 39.73596501 64.20663248     2     92    96   97   98
H 1462.04243369 39.17854042 65.89714805     6     95    0    0    0
H 1459.38675820 38.55787914 63.80612611     6     95    0    0    0
C 1462.80247863 39.28784672 61.91657759     2     95   99   100   101
H 1461.87834341 40.26124201 60.33836840     6    98    0    0    0
H 1464.56001165 40.20728378 62.19607860     6    98    0    0    0
C 1463.42272738 36.52152509 61.42884210     2    98   102   103   104
H 1464.53400676 35.66095630 63.01986225     6    101    0    0    0
H 1461.74116485 35.44348499 61.21118770     6    101    0    0    0
C 1464.71732586 36.23582928 58.88901572     2    101   105   106   107
H 1463.49980279 36.78222381 57.34527350     6    104    0    0    0
H 1466.27225488 37.45882785 58.61507233     6    104    0    0    0
C 1465.72541016 33.59018391 58.75696244     2    104   108   109   110
H 1466.91339342 33.16798686 60.27007884     6    107    0    0    0
H 1463.99741014 32.53524409 58.82531813     6    107    0    0    0
C 1467.00578519 32.86777357 56.30209562     2    107   111   112   113
H 1465.68262290 32.62293685 54.73071167     6    110    0    0    0
H 1468.22359487 34.45600250 55.57150577     6    110    0    0    0
C 1468.42754894 30.46971353 56.55411629     2    110   114   115   116
H 1469.76008128 30.94228247 57.97521738     6    113    0    0    0
H 1467.44907473 28.81055572 57.41939634     6    113    0    0    0
C 1469.54695832 29.66928313 54.03532809     2    113   117   118   119
H 1468.13781396 29.45676774 52.51416663     6    116    0    0    0
H 1470.61797090 31.33304651 53.48172187     6    116    0    0    0
C 1471.31756271 27.36477451 54.39984404     2    116   120   121   122
H 1472.53088134 27.25418189 52.70191150     6    119    0    0    0
H 1472.53788620 27.45260241 56.12502344     6    119    0    0    0
C 1469.66845790 24.91613275 54.24572331     1    119   123   124   125
H 1471.04172545 23.41336006 54.80310612     6    122    0    0    0
H 1469.01736109 24.69285235 52.35309756     6    122    0    0    0
H 1468.37719237 25.01327890 55.76854849     6    122    0    0    0
H 1451.33664452 43.03052404 70.42334618     6     127    0    0    0 
C 1451.84102448 43.08921459 72.41690423     1     126    128    129    130
H 1450.42228036 42.04765888 73.43711672     6     127    0    0    0
H 1453.64716461 42.10941140 72.72413382     6     127    0    0    0
C 1452.07050501 45.83964135 73.11709446     2     127    131    132    133
H 1453.86828818 46.39156141 72.40524192     6     130    0    0    0
H 1450.81609350 47.11398877 72.09646493     6     130    0    0    0
C 1452.18470231 46.57008528 75.88037807     2     130    134   135   136
H 1450.57641472 45.55630477 76.75463071     6     133    0    0    0
H 1453.73560797 45.56626175 76.73906810     6     133    0    0    0
C 1452.40562239 49.47865607 76.28388503     2     133   137   138   139
H 1450.90120262 50.22622766 75.20918805     6    136    0    0    0
H 1451.79612571 49.92098423 78.27492716     6    136    0    0    0
C 1455.02216765 50.72757846 75.45716999     2    136   140   141   142
H 1456.48535833 50.38985694 76.91149698     6    139    0    0    0
H 1455.83919589 49.79110058 73.92759702     6    139    0    0    0
C 1454.64279353 53.49186608 75.03785475     2    139   143   144   145
H 1453.84151135 53.86669571 73.27736052     6    142    0    0    0
H 1453.47009745 54.46968692 76.42100963     6    142    0    0    0
C 1457.13145568 54.88318551 74.96294122     2    142   146   147   148
H 1457.68081877 54.63237019 76.97326101     6    145    0    0    0
H 1458.58680142 53.90419322 73.95858493     6    145    0    0    0
C 1457.00144178 57.66256166 74.09210068     2    145   149   150   151
H 1455.98906329 57.66651960 72.42563345     6    148    0    0    0
H 1455.94458399 58.58821332 75.49072857     6    148    0    0    0
C 1459.38942186 59.10768131 73.79458989     2    148   152   153   154
H 1460.25966877 59.12721312 75.68809267     6    151    0    0    0
H 1460.76201400 58.04032679 72.65802365     6    151    0    0    0
C 1459.05616421 61.79071759 72.60990002     2    151   155   156   157
H 1460.80288471 62.82171613 72.19651589     6    154    0    0    0
H 1458.01152360 61.45630017 70.92668055     6    154    0    0    0
C 1457.37243137 63.79512912 74.18985942     2    154   158   159   160
H 1455.92614984 62.74902499 75.16966547     6    157    0    0    0
H 1458.67116923 64.63185971 75.69328140     6    157    0    0    0
C 1455.80546303 65.70314498 72.57899106     1    157   161   162   163
H 1455.08215191 67.24054822 73.78324790     6    160    0    0    0
H 1454.04275448 64.80967807 71.89183480     6    160    0    0    0
H 1456.93871246 66.39006686 70.93975777     6    160    0    0    0
H 1456.34175826 38.86665441 72.64271198     6     165    0    0    0 
C 1457.93855459 38.81351211 74.03968650     1     164    166    167    168
H 1457.70422620 37.31700231 75.44857520     6     165    0    0    0
H 1459.74309123 38.50923295 73.27854270     6     165    0    0    0
C 1458.09526288 41.27679005 75.51398393     2     165    169    170    171
H 1457.98221403 42.90372817 74.17450297     6     168    0    0    0
H 1456.44825597 41.24320108 76.69126526     6     168    0    0    0
C 1460.38863734 41.55562612 77.45943873     2     168    172   173   174
H 1460.79732451 39.84189263 78.30931829     6     171    0    0    0
H 1461.93827943 42.42646955 76.52921266     6     171    0    0    0
C 1459.60411188 43.32647773 79.64137479     2     171   175   176   177
H 1459.14475156 45.08276511 78.79579586     6    174    0    0    0
H 1457.96589580 42.60527663 80.74244352     6    174    0    0    0
C 1461.67099129 43.76178254 81.77252154     2    174   178   179   180
H 1462.24419712 42.01499964 82.50568351     6    177    0    0    0
H 1463.36876151 44.67472776 80.97094274     6    177    0    0    0
C 1460.79325764 45.52348042 83.94390112     2    177   181   182   183
H 1460.04508174 47.37132704 83.33578012     6    180    0    0    0
H 1459.38075583 44.49046339 85.07077607     6    180    0    0    0
C 1463.08408554 45.89454679 85.85590040     2    180   184   185   186
H 1463.99238767 44.20229092 86.50898991     6    183    0    0    0
H 1464.66569505 47.02856479 84.90809259     6    183    0    0    0
C 1462.00055857 47.21837431 88.29875079     2    183   187   188   189
H 1460.97816431 48.82387475 87.69715223     6    186    0    0    0
H 1460.42547823 46.11911401 89.10347130     6    186    0    0    0
C 1463.89622828 47.88821589 90.27785456     2    186   190   191   192
H 1464.25351608 46.32104276 91.25330586     6    189    0    0    0
H 1465.73021356 48.45697991 89.67729586     6    189    0    0    0
C 1462.57618727 49.94314642 91.94701992     2    189   193   194   195
H 1462.17635923 51.40926094 90.63547608     6    192    0    0    0
H 1460.85005582 49.19995879 92.84388856     6    192    0    0    0
C 1464.17447193 50.77291350 94.25958807     2    192   196   197   198
H 1464.63872755 49.20210475 95.40592258     6    195    0    0    0
H 1465.95152553 51.51890061 93.76652262     6    195    0    0    0
C 1462.84346990 52.72626204 95.81991541     1    195   199   200   201
H 1464.17850332 53.12571011 97.39358604     6    198    0    0    0
H 1461.18905472 51.80215738 96.89856179     6    198    0    0    0
H 1462.21402696 54.45075591 94.92450687     6    198    0    0    0
H 1483.52076471 43.75302440 73.87502271     6     203    0    0    0 
C 1482.62306933 43.47868547 75.72553555     1     202    204    205    206
H 1482.67543356 45.30393347 76.61550464     6     203    0    0    0
H 1480.68088472 42.72130210 75.42843814     6     203    0    0    0
C 1484.01136300 41.61625475 77.55524185     2     203    207    208    209
H 1483.14144314 41.76888263 79.43949161     6     206    0    0    0
H 1483.65658818 39.80858153 76.59205363     6     206    0    0    0
C 1486.79571818 42.12770365 77.69973903     2     206    210   211   212
H 1487.93816201 40.33186273 77.78023425     6     209    0    0    0
H 1487.56475338 42.80129209 75.88387070     6     209    0    0    0
C 1487.69790561 43.95935469 79.71195800     2     209   213   214   215
H 1486.42668288 45.55686356 79.91605984     6    212    0    0    0
H 1487.51022757 42.84044860 81.39710863     6    212    0    0    0
C 1490.35857695 44.74134488 79.30462482     2    212   216   217   218
H 1491.64334345 43.33204140 78.45163308     6    215    0    0    0
H 1490.32684025 46.24825949 77.87370038     6    215    0    0    0
C 1491.58127468 45.72287217 81.77139543     2    215   219   220   221
H 1490.52187594 47.43191744 82.38685174     6    218    0    0    0
H 1491.24560730 44.30611757 83.18372199     6    218    0    0    0
C 1494.27259404 46.67118213 81.42394977     2    218   222   223   224
H 1495.64307720 45.14845256 81.01175765     6    221    0    0    0
H 1494.18731762 47.71570398 79.65822753     6    221    0    0    0
C 1495.16839367 48.24158182 83.65068833     2    221   225   226   227
H 1493.94746154 49.76504970 84.18679180     6    224    0    0    0
H 1495.24153609 46.93332061 85.23576359     6    224    0    0    0
C 1497.83692412 49.33430338 83.09357917     2    224   228   229   230
H 1499.30004221 47.90068966 82.45738596     6    227    0    0    0
H 1497.75690975 50.66682890 81.51445241     6    227    0    0    0
C 1498.86744354 50.50424411 85.64439356     2    227   231   232   233
H 1497.46384062 51.83827722 86.42069651     6    230    0    0    0
H 1498.99378474 48.94258860 86.95284436     6    230    0    0    0
C 1501.31449553 51.96972821 85.63597854     2    230   234   235   236
H 1502.76276618 50.76087951 84.96583813     6    233    0    0    0
H 1501.07081461 53.41843911 84.22782400     6    233    0    0    0
C 1501.95425841 53.35565263 88.18548586     1    233   237   238   239
H 1503.77713777 54.20735297 87.76086768     6    236    0    0    0
H 1502.06378858 52.11259100 89.79221782     6    236    0    0    0
H 1500.63736730 54.92843932 88.56208862     6    236    0    0    0
H 1494.35720501 38.95587338 46.92343545     6     241    0    0    0 
C 1493.87965675 37.15087062 47.97849272     1     240    242    243    244
H 1494.67239715 35.55558044 47.09517226     6     241    0    0    0
H 1494.81686148 37.16872078 49.87228395     6     241    0    0    0
C 1491.07624660 36.67364945 47.81094858     2     241    245    246    247
H 1490.56908650 36.46819840 45.78825247     6     244    0    0    0
H 1490.53271147 34.72090804 48.49090306     6     244    0    0    0
C 1489.36251633 38.66545987 49.02829365     2     244    248   249   250
H 1487.50525091 37.76404020 49.30186539     6     247    0    0    0
H 1490.00318018 39.19734174 50.86690535     6     247    0    0    0
C 1489.18124958 41.16535763 47.43073988     2     247   251   252   253
H 1488.59751372 42.81275190 48.57230060     6    250    0    0    0
H 1491.18550968 41.55324989 46.82652695     6    250    0    0    0
C 1487.43643986 40.78277594 45.26727724     2    250   254   255   256
H 1488.37638640 39.45468083 44.10166693     6    253    0    0    0
H 1485.61114094 40.06428760 45.67699282     6    253    0    0    0
C 1487.05217389 43.00039505 43.53011895     2    253   257   258   259
H 1485.64915394 42.47203523 42.14502286     6    256    0    0    0
H 1486.18836717 44.55303900 44.62414870     6    256    0    0    0
C 1489.42432658 43.78145874 42.08546070     2    256   260   261   262
H 1491.00814947 44.08030791 43.23748391     6    259    0    0    0
H 1489.99248652 42.13321672 40.92873325     6    259    0    0    0
C 1488.88749375 45.86072499 40.13285030     2    259   263   264   265
H 1487.24414927 45.30175045 39.05678043     6    262    0    0    0
H 1488.23152644 47.70072984 40.77521796     6    262    0    0    0
C 1490.97244744 46.45933246 38.23659052     2    262   266   267   268
H 1490.41489091 48.07823079 37.38585233     6    265    0    0    0
H 1492.64024840 47.07449892 38.99458602     6    265    0    0    0
C 1491.41285188 44.27913032 36.35085378     2    265   269   270   271
H 1492.11386460 42.67448365 37.46099318     6    268    0    0    0
H 1489.64787850 43.68018305 35.17452615     6    268    0    0    0
C 1493.21289774 45.06674097 34.24771465     2    268   272   273   274
H 1492.35829730 46.49810034 33.12003524     6    271    0    0    0
H 1494.97018674 45.92709843 34.72970829     6    271    0    0    0
C 1493.41862731 42.91905858 32.28067865     1    271   275   276   277
H 1493.78223801 41.32867831 33.21808658     6    274    0    0    0
H 1495.01767204 43.17868048 31.06370398     6    274    0    0    0
H 1491.71767909 42.59416423 31.02341223     6    274    0    0    0
H 1480.68121603 34.45561569 65.14110128     6     279    0    0    0 
C 1479.54256944 36.23938519 65.38325380     1     278    280    281    282
H 1479.10304901 37.15242092 63.54004730     6     279    0    0    0
H 1477.79741588 35.79789024 66.41671025     6     279    0    0    0
C 1481.40114162 38.03496931 66.36869405     2     279    283    284    285
H 1480.58267341 39.85095197 65.85471425     6     282    0    0    0
H 1481.66912178 38.06190817 68.47841522     6     282    0    0    0
C 1484.01958298 37.82764371 65.24005214     2     282    286   287   288
H 1484.86843432 36.01575298 65.12199061     6     285    0    0    0
H 1483.88066242 38.36062358 63.17811840     6     285    0    0    0
C 1485.91154560 39.72139437 66.56834431     2     285   289   290   291
H 1485.11891387 41.65199162 66.13095530     6    288    0    0    0
H 1485.69608929 39.58750901 68.72208053     6    288    0    0    0
C 1488.56603942 39.60533761 65.48690577     2    288   292   293   294
H 1489.27966374 37.66626725 65.76562507     6    291    0    0    0
H 1488.63285561 39.48367405 63.45621517     6    291    0    0    0
C 1490.36890255 41.66434450 66.42937544     2    291   295   296   297
H 1489.88763416 43.44238166 65.81808627     6    294    0    0    0
H 1490.25126334 41.83329146 68.42924388     6    294    0    0    0
C 1493.21970295 40.92308478 65.85273752     2    294   298   299   300
H 1493.46697191 39.00508931 66.55382077     6    297    0    0    0
H 1493.51967861 40.88866080 63.81518700     6    297    0    0    0
C 1495.06322152 42.71634225 67.06159837     2    297   301   302   303
H 1494.49534687 44.51495914 66.03668436     6    300    0    0    0
H 1494.54250770 42.99194974 68.94600646     6    300    0    0    0
C 1497.77777385 42.41965990 66.55158212     2    300   304   305   306
H 1498.15081625 40.78845696 67.64500882     6    303    0    0    0
H 1498.18804716 41.80705765 64.59250564     6    303    0    0    0
C 1499.34686340 44.66590444 67.14229451     2    303   307   308   309
H 1498.17331276 46.37524675 66.71782418     6    306    0    0    0
H 1499.52440139 44.91014039 69.25020275     6    306    0    0    0
C 1502.09188412 44.51824035 66.04886009     2    306   310   311   312
H 1502.77579278 42.65735232 66.20658729     6    309    0    0    0
H 1501.97005128 44.86821014 64.07333102     6    309    0    0    0
C 1504.02902377 46.19882327 67.35126385     1    309   313   314   315
H 1503.84542749 45.87720182 69.30300625     6    312    0    0    0
H 1503.82614643 48.07218779 66.91857589     6    312    0    0    0
H 1505.94821451 45.75938786 66.85070441     6    312    0    0    0
H 1457.67323788 50.31191313 61.63814797     6     317    0    0    0 
C 1459.50049786 49.59682743 61.35765158     1     316    318    319    320
H 1460.06499854 48.67961816 63.08448974     6     317    0    0    0
H 1459.16524537 48.05809213 59.88487258     6     317    0    0    0
C 1461.43012529 51.38349991 60.27182678     2     317    321    322    323
H 1463.00279613 50.28331742 59.88871784     6     320    0    0    0
H 1460.71750796 52.19144118 58.54692164     6     320    0    0    0
C 1461.95171730 53.55745897 62.14775499     2     320    324   325   326
H 1460.47964258 54.98378556 62.07336214     6     323    0    0    0
H 1461.99258401 52.54581033 63.94637763     6     323    0    0    0
C 1464.58770203 54.93044496 61.83161262     2     323   327   328   329
H 1465.95101714 53.40166689 61.78670196     6    326    0    0    0
H 1464.36676618 55.77188356 59.95510647     6    326    0    0    0
C 1465.00519259 56.82497853 63.79421989     2    326   330   331   332
H 1464.85486051 56.25608352 65.78627318     6    329    0    0    0
H 1467.10135640 57.33410951 63.76761011     6    329    0    0    0
C 1463.47014771 59.39253929 63.39911691     2    329   333   334   335
H 1461.56659626 58.88999267 62.87134918     6    332    0    0    0
H 1463.34837302 60.34649816 65.19746919     6    332    0    0    0
C 1464.65514946 61.32211956 61.61111302     2    332   336   337   338
H 1466.45942620 61.56468126 62.44567206     6    335    0    0    0
H 1464.70560869 60.34153363 59.80133281     6    335    0    0    0
C 1463.06262991 63.75305211 61.36078661     2    335   339   340   341
H 1462.75052819 64.29890494 59.43394054     6    338    0    0    0
H 1461.26095803 63.28325817 62.30109191     6    338    0    0    0
C 1464.34987475 66.10094581 62.64968516     2    338   342   343   344
H 1465.39866814 65.53550992 64.41375308     6    341    0    0    0
H 1465.77759029 66.85228755 61.34586346     6    341    0    0    0
C 1462.46230433 68.16484672 63.40950721     2    341   345   346   347
H 1463.52063977 69.92152423 63.83560598     6    344    0    0    0
H 1461.12008190 68.65604047 61.79713763     6    344    0    0    0
C 1460.80931292 67.56336480 65.73982183     2    344   348   349   350
H 1460.40061303 65.56254517 65.76113224     6    347    0    0    0
H 1461.85184118 68.13997447 67.37127725     6    347    0    0    0
C 1458.34050645 69.04089249 65.67337505     1    347   351   352   353
H 1457.46521891 68.79987034 67.57577139     6    350    0    0    0
H 1457.12504377 68.56741070 64.11648745     6    350    0    0    0
H 1458.70289227 71.04159548 65.57220730     6    350    0    0    0
H 1489.70116537 40.76598166 55.92703557     6     355    0    0    0 
C 1487.84267604 40.17907351 56.58157615     1     354    356    357    358
H 1487.55844906 38.14091513 56.43334909     6     355    0    0    0
H 1487.78968347 40.49540114 58.59573874     6     355    0    0    0
C 1485.95005597 41.61767266 55.09411051     2     355    359    360    361
H 1486.24265311 43.60194101 55.67705283     6     358    0    0    0
H 1486.22707350 41.32144059 53.13019227     6     358    0    0    0
C 1483.25209480 40.66195771 55.51172348     2     358    362   363   364
H 1482.02717675 41.45446935 54.07642187     6     361    0    0    0
H 1482.83633088 38.67374615 55.54197202     6     361    0    0    0
C 1482.15310728 41.64404656 57.96804162     2     361   365   366   367
H 1483.27020650 40.86364186 59.53953549     6    364    0    0    0
H 1482.42023652 43.72016408 58.04288368     6    364    0    0    0
C 1479.33526955 40.89884416 58.30942676     2    364   368   369   370
H 1478.23157950 41.32596633 56.49040105     6    367    0    0    0
H 1479.13748710 38.89473977 58.77789730     6    367    0    0    0
C 1478.15762087 42.66007425 60.41492323     2    367   371   372   373
H 1478.91911146 42.10654012 62.25421895     6    370    0    0    0
H 1478.85092466 44.56756233 60.00261589     6    370    0    0    0
C 1475.33595558 42.50458806 60.78810474     2    370   374   375   376
H 1474.43014842 42.80401076 58.96116075     6    373    0    0    0
H 1474.71573629 40.57272249 61.08838205     6    373    0    0    0
C 1474.30676416 44.29022263 62.65934479     2    373   377   378   379
H 1475.16199902 44.13317681 64.59343345     6    376    0    0    0
H 1474.63830224 46.11098878 61.79114895     6    376    0    0    0
C 1471.41932381 43.80898042 63.27891579     2    376   380   381   382
H 1470.30811410 43.30994946 61.61420491     6    379    0    0    0
H 1471.37662762 42.08963277 64.45542055     6    379    0    0    0
C 1470.07739297 46.04419164 64.61051593     2    379   383   384   385
H 1471.05949331 46.22139016 66.41012923     6    382    0    0    0
H 1470.28992827 47.84409540 63.48971539     6    382    0    0    0
C 1467.17290181 45.78091118 65.32057538     2    382   386   387   388
H 1466.27225543 47.59517209 65.24223028     6    385    0    0    0
H 1466.50434438 44.86679635 63.68791063     6    385    0    0    0
C 1466.62370968 44.55173119 67.78098277     1    385   389   390   391
H 1467.82445105 45.36440957 69.34721760     6    388    0    0    0
H 1466.97228368 42.49665482 67.56043257     6    388    0    0    0
H 1464.65070195 44.85027172 68.38264433     6    388    0    0    0
H 1470.53359142 86.41686311 51.33166491     6     393    0    0    0 
C 1472.15973543 85.35349521 51.89105693     1     392    394    395    396
H 1474.05655591 86.24409776 51.92240967     6     393    0    0    0
H 1471.67988997 84.58266293 53.68095092     6     393    0    0    0
C 1472.50602475 83.19758375 49.90900971     2     393    397    398    399
H 1471.03580224 81.80772577 50.10829278     6     396    0    0    0
H 1472.42049028 84.13476246 48.12260721     6     396    0    0    0
C 1475.23564188 82.15859424 50.07828898     2     396    400   401   402
H 1476.53136370 83.63863779 49.82892462     6     399    0    0    0
H 1475.67226332 81.29868757 51.81208024     6     399    0    0    0
C 1475.74149240 80.28810223 47.89836624     2     399   403   404   405
H 1474.59726107 78.62911213 48.47595647     6    402    0    0    0
H 1474.98618236 80.92139653 46.05778248     6    402    0    0    0
C 1478.39064822 79.35460747 47.68477905     2    402   406   407   408
H 1479.71555303 80.86367612 47.74764310     6    405    0    0    0
H 1478.77146785 78.00752233 49.12380977     6    405    0    0    0
C 1478.44822099 77.66383561 45.13315386     2    405   409   410   411
H 1477.29279048 76.01420747 45.25067353     6    408    0    0    0
H 1477.80020426 78.86706801 43.49579594     6    408    0    0    0
C 1481.19683661 76.74723653 44.73992934     2    408   412   413   414
H 1482.36140434 78.52185367 44.50901621     6    411    0    0    0
H 1481.99559247 75.89037182 46.43001415     6    411    0    0    0
C 1481.70918278 75.33393186 42.28208762     2    411   415   416   417
H 1480.25243130 73.82427887 41.97426139     6    414    0    0    0
H 1481.61829738 76.62252383 40.70664128     6    414    0    0    0
C 1484.27342173 74.09005572 42.06338648     2    414   418   419   420
H 1485.68344627 75.39060144 42.80604855     6    417    0    0    0
H 1484.18062273 72.56920067 43.56121171     6    417    0    0    0
C 1484.90118271 72.88480801 39.47942801     2    417   421   422   423
H 1483.62084309 71.28264340 39.27933576     6    420    0    0    0
H 1484.45818440 74.03434585 37.78176487     6    420    0    0    0
C 1487.65313528 72.06090946 39.25461517     2    420   424   425   426
H 1488.21848488 72.13281295 37.40095069     6    423    0    0    0
H 1488.89254902 73.37227663 40.34090031     6    423    0    0    0
C 1488.13021185 69.60337667 40.58825090     1    423   427   428   429
H 1489.83607292 68.79177085 39.59707787     6    426    0    0    0
H 1486.69407449 68.36368631 40.40072643     6    426    0    0    0
H 1488.56781438 69.88786713 42.50792329     6    426    0    0    0
H 1478.21616119 58.17484797 40.87978942     6     431    0    0    0 
C 1476.49596237 58.13243540 39.99133938     1     430    432    433    434
H 1476.78866813 57.89981043 37.93278359     6     431    0    0    0
H 1475.56584854 56.53691576 40.81958040     6     431    0    0    0
C 1475.20988687 60.60205344 40.82301304     2     431    435    436    437
H 1474.75277758 60.58830742 42.79981349     6     434    0    0    0
H 1476.64102760 62.01695176 40.65544434     6     434    0    0    0
C 1472.90162488 61.06734089 39.06043277     2     434    438   439   440
H 1473.53266956 61.15139427 37.17546028     6     437    0    0    0
H 1471.49685884 59.59073290 39.32865920     6     437    0    0    0
C 1471.65222850 63.48813633 39.81133069     2     437   441   442   443
H 1469.62035032 63.48610271 39.23373163     6    440    0    0    0
H 1471.48852919 63.64105377 41.91756776     6    440    0    0    0
C 1472.99612511 65.90084001 38.95753952     2    440   444   445   446
H 1474.56342346 65.89245637 40.25500258     6    443    0    0    0
H 1473.92715491 65.66510273 37.18272804     6    443    0    0    0
C 1471.45482533 68.23185423 39.08744360     2    443   447   448   449
H 1469.68325741 68.35166251 38.18140752     6    446    0    0    0
H 1471.10862343 68.62954386 40.98512314     6    446    0    0    0
C 1473.11703423 70.35534487 38.15431460     2    446   450   451   452
H 1474.97532115 70.12126801 39.02290079     6    449    0    0    0
H 1473.18638481 70.16191481 36.11069679     6    449    0    0    0
C 1472.29894354 73.10199008 39.08943696     2    449   453   454   455
H 1470.69475841 73.77219705 37.98894459     6    452    0    0    0
H 1471.60514534 72.95933139 41.04962658     6    452    0    0    0
C 1474.36691466 75.14459860 38.88723672     2    452   456   457   458
H 1475.94417251 74.61851260 40.19630165     6    455    0    0    0
H 1475.22881823 75.06229297 36.99021951     6    455    0    0    0
C 1473.42652525 77.88266568 39.20855250     2    455   459   460   461
H 1475.14071018 78.93233871 38.89329313     6    458    0    0    0
H 1471.98323945 78.28948203 37.70598561     6    458    0    0    0
C 1472.22302702 78.29891793 41.92276058     2    458   462   463   464
H 1470.58679759 76.99195110 42.15320675     6    461    0    0    0
H 1473.64039974 77.51871022 43.41285444     6    461    0    0    0
C 1471.32563425 80.96704249 42.34297572     1    461   465   466   467
H 1469.92990335 81.54359784 41.01020585     6    464    0    0    0
H 1472.83558306 82.26180795 42.11039699     6    464    0    0    0
H 1470.82507041 81.03308040 44.41521801     6    464    0    0    0
H 1469.63400895 34.54771041 69.27794134     6     469    0    0    0 
C 1468.55851884 35.14911246 67.66715099     1     468    470    471    472
H 1467.10518347 33.82670230 67.20503810     6     469    0    0    0
H 1467.38085685 36.75842868 67.96973953     6     469    0    0    0
C 1470.35989020 35.71273607 65.50172126     2     469    473    474    475
H 1469.06638356 36.46059500 64.02150273     6     472    0    0    0
H 1471.81693175 37.04962030 65.92288235     6     472    0    0    0
C 1471.67098087 33.35213632 64.41107338     2     472    476   477   478
H 1472.74841353 32.40253296 65.91284583     6     475    0    0    0
H 1470.31401132 31.99701845 63.87905895     6     475    0    0    0
C 1473.33273323 33.98244045 62.04392087     2     475   479   480   481
H 1471.83498119 34.55794733 60.72985072     6    478    0    0    0
H 1474.49255848 35.61075476 62.66834731     6    478    0    0    0
C 1475.38577929 32.11528537 61.05336299     2    478   482   483   484
H 1476.80006257 31.59835180 62.41386271     6    481    0    0    0
H 1474.41056688 30.45721496 60.46876982     6    481    0    0    0
C 1477.13126480 33.28581769 58.84513133     2    481   485   486   487
H 1476.19400819 34.45830387 57.36738288     6    484    0    0    0
H 1478.56103153 34.53308666 59.83511688     6    484    0    0    0
C 1478.70217152 31.20146942 57.54833803     2    484   488   489   490
H 1480.11673462 30.15999753 58.63468327     6    487    0    0    0
H 1477.26840854 29.82478883 56.68098963     6    487    0    0    0
C 1480.14819554 32.29256627 55.23259472     2    487   491   492   493
H 1478.89601186 33.23698814 53.84057175     6    490    0    0    0
H 1481.28335407 34.00420641 55.90359760     6    490    0    0    0
C 1481.80124625 30.37054004 53.80968775     2    490   494   495   496
H 1483.44751087 30.13242277 55.07861367     6    493    0    0    0
H 1480.94971639 28.57173400 53.73547473     6    493    0    0    0
C 1482.67451844 31.49286592 51.32820439     2    493   497   498   499
H 1480.93693428 31.36709926 50.09683364     6    496    0    0    0
H 1483.05420050 33.49576342 51.47207091     6    496    0    0    0
C 1484.77742829 30.20224709 49.91053317     2    496   500   501   502
H 1486.51833642 30.43473060 51.04458242     6    499    0    0    0
H 1484.50107010 28.14745577 49.50870660     6    499    0    0    0
C 1485.23012770 31.50262319 47.45620213     1    499   503   504   505
H 1486.34706317 30.29266607 46.34913915     6    502    0    0    0
H 1486.27478590 33.28455954 47.51766978     6    502    0    0    0
H 1483.43618199 31.76124940 46.58099650     6    502    0    0    0
H 1499.55017843 45.12031050 40.00594998     6     507    0    0    0 
C 1499.97731741 46.93388681 39.05652359     1     506    508    509    510
H 1502.05457815 47.23224664 39.15828124     6     507    0    0    0
H 1499.40348561 46.75167402 37.10320031     6     507    0    0    0
C 1498.64302489 48.99547951 40.45827131     2     507    511    512    513
H 1497.33890190 48.11132722 41.77684179     6     510    0    0    0
H 1499.96997465 50.04022502 41.60059926     6     510    0    0    0
C 1497.10999744 50.76433036 38.68459262     2     510    514   515   516
H 1498.34894722 52.19773526 38.02574350     6     513    0    0    0
H 1496.21735885 49.62167207 37.03594764     6     513    0    0    0
C 1494.93993264 52.00684271 40.12264056     2     513   517   518   519
H 1493.65758656 50.60194540 40.89193590     6    516    0    0    0
H 1495.73469345 52.82341347 41.84866081     6    516    0    0    0
C 1493.34984138 53.90912546 38.55228095     2    516   520   521   522
H 1494.69941741 55.18555965 37.62808416     6    519    0    0    0
H 1492.32380926 52.70381239 37.11466732     6    519    0    0    0
C 1491.39399851 55.24912902 40.18685994     2    519   523   524   525
H 1490.49346500 54.18026831 41.75862263     6    522    0    0    0
H 1492.32341696 56.61696485 41.28912334     6    522    0    0    0
C 1489.07748499 56.30039501 38.85601224     2    522   526   527   528
H 1489.96988707 57.51492822 37.29659758     6    525    0    0    0
H 1487.80344660 55.01476144 37.86214251     6    525    0    0    0
C 1487.48112062 58.10731199 40.44528894     2    525   529   530   531
H 1486.19911314 56.94012258 41.44785605     6    528    0    0    0
H 1488.58336227 59.28813150 41.66889338     6    528    0    0    0
C 1485.57116569 59.69377516 38.82341755     2    528   532   533   534
H 1486.49154688 60.69193293 37.29453582     6    531    0    0    0
H 1484.12110974 58.38528518 38.25119334     6    531    0    0    0
C 1484.32574745 61.83039258 40.29993780     2    531   535   536   537
H 1483.57568103 61.13240429 42.06472982     6    534    0    0    0
H 1485.72365739 63.14805628 40.97535424     6    534    0    0    0
C 1482.11431473 63.10106622 38.68434495     2    534   538   539   540
H 1483.11545897 63.88384964 37.14477399     6    537    0    0    0
H 1480.64955651 61.67496661 37.92074059     6    537    0    0    0
C 1480.85735573 65.17495300 40.33330538     1    537   541   542   543
H 1478.91282386 65.57557150 39.42827104     6    540    0    0    0
H 1481.95832157 66.88158450 40.58277765     6    540    0    0    0
H 1480.63419223 64.40853233 42.27640826     6    540    0    0    0
H 1472.03644973 77.73353419 55.26497387     6     545    0    0    0 
C 1472.26249269 77.08533884 57.24252973     1     544    546    547    548
H 1473.64891655 75.72839166 56.91718597     6     545    0    0    0
H 1472.95145188 78.73644908 58.05393258     6     545    0    0    0
C 1469.89575055 75.87924810 58.34281073     2     545    549    550    551
H 1468.39694475 77.19200698 58.09060363     6     548    0    0    0
H 1469.35941665 74.24911561 57.27349881     6     548    0    0    0
C 1470.28463579 75.47327533 61.15285639     2     548    552   553   554
H 1472.01094929 74.34944538 61.41455060     6     551    0    0    0
H 1470.59823332 77.41251071 61.99357940     6     551    0    0    0
C 1468.10590321 74.23459225 62.65157629     2     551   555   556   557
H 1466.17263631 75.25511948 62.39927775     6    554    0    0    0
H 1467.59273482 72.36779197 61.73502626     6    554    0    0    0
C 1468.72279646 74.02884182 65.51760649     2    554   558   559   560
H 1470.43405502 72.85330829 65.79971340     6    557    0    0    0
H 1469.20788900 75.81930960 66.22409062     6    557    0    0    0
C 1466.69133858 72.70553382 67.12424662     2    557   561   562   563
H 1464.81880645 73.35353367 66.47136047     6    560    0    0    0
H 1466.80519800 70.70643420 66.82348474     6    560    0    0    0
C 1467.07105733 73.32240795 69.91733277     2    560   564   565   566
H 1468.85465707 72.86542861 70.64729084     6    563    0    0    0
H 1466.83013607 75.38421632 70.46796988     6    563    0    0    0
C 1465.14485980 71.82682508 71.48712381     2    563   567   568   569
H 1463.38266703 72.01544346 70.66304768     6    566    0    0    0
H 1465.30756610 69.86183257 71.18903504     6    566    0    0    0
C 1465.17713797 72.07762793 74.40311087     2    566   570   571   572
H 1467.10180506 71.86735917 74.95216051     6    569    0    0    0
H 1464.59870482 73.98993373 74.98392743     6    569    0    0    0
C 1463.13405085 70.16550352 75.46007015     2    569   573   574   575
H 1461.25976638 70.65126960 74.68657090     6    572    0    0    0
H 1463.67240670 68.27100098 74.87140704     6    572    0    0    0
C 1462.84680000 70.17651796 78.26120994     2    572   576   577   578
H 1461.98754544 71.97201844 78.43392069     6    575    0    0    0
H 1461.33074195 69.08253216 79.01780280     6    575    0    0    0
C 1465.23762430 69.98971093 79.78857707     1    575   579   580   581
H 1466.52085747 68.59426819 78.97770896     6    578    0    0    0
H 1464.88856330 69.31979223 81.73521885     6    578    0    0    0
H 1466.00513961 71.92623406 80.03588932     6    578    0    0    0
H 1471.01053167 45.07234364 74.96643409     6     583    0    0    0 
C 1469.27992159 44.14297346 74.46204489     1     582    584    585    586
H 1469.67258461 43.17551910 72.73240920     6     583    0    0    0
H 1468.64834354 42.75942752 75.86104491     6     583    0    0    0
C 1467.38866183 46.27045805 74.27158876     2     583    587    588    589
H 1467.68498040 47.44203041 72.63870286     6     586    0    0    0
H 1465.62671055 45.53871282 73.54039278     6     586    0    0    0
C 1466.98761438 47.72973941 76.76398835     2     586    590   591   592
H 1466.74678101 46.34748979 78.27747175     6     589    0    0    0
H 1468.75724305 48.51119403 77.32259136     6     589    0    0    0
C 1465.01081285 49.86714639 76.83078781     2     589   593   594   595
H 1465.51740454 51.50739315 75.81386110     6    592    0    0    0
H 1463.24725555 49.13520959 76.00234164     6    592    0    0    0
C 1464.59513092 50.65941589 79.61346023     2    592   596   597   598
H 1464.47356261 48.95132628 80.79191660     6    595    0    0    0
H 1465.99953672 51.73943663 80.61241161     6    595    0    0    0
C 1462.16183684 52.38975113 79.89665294     2    595   599   600   601
H 1462.71945635 54.25654296 79.05780769     6    598    0    0    0
H 1460.38790832 51.86312603 78.84634895     6    598    0    0    0
C 1461.16368730 53.06915019 82.54066303     2    598   602   603   604
H 1461.88648252 51.54446727 83.84753704     6    601    0    0    0
H 1461.93401975 54.85269509 83.42263757     6    601    0    0    0
C 1458.17191714 53.24721213 82.72321644     2    601   605   606   607
H 1457.51037186 54.85198552 81.53007328     6    604    0    0    0
H 1457.51248053 51.36101186 81.95485705     6    604    0    0    0
C 1457.40056509 53.23931054 85.59201561     2    604   608   609   610
H 1458.09894570 51.55550691 86.52094214     6    607    0    0    0
H 1458.42195153 54.66556048 86.68311488     6    607    0    0    0
C 1454.50105745 53.54263948 86.10815497     2    607   611   612   613
H 1453.62394873 54.89575994 84.81202122     6    610    0    0    0
H 1453.75585622 51.74294961 85.45192065     6    610    0    0    0
C 1453.86376298 54.39937421 88.80200796     2    610   614   615   616
H 1454.83505680 56.20386636 89.09350011     6    613    0    0    0
H 1451.77061407 54.62784756 88.89342770     6    613    0    0    0
C 1454.46370486 52.54466980 90.85540122     1    613   617   618   619
H 1454.38635228 53.40674700 92.69440718     6    616    0    0    0
H 1456.32663019 51.72846669 90.57529697     6    616    0    0    0
H 1453.07752359 51.14792615 90.73237740     6    616    0    0    0
H 1496.40627681 73.10955816 60.61196246     6     621    0    0    0 
C 1494.78282984 71.88417603 60.98329160     1     620    622    623    624
H 1493.23318673 73.17316617 61.48862111     6     621    0    0    0
H 1494.22335303 70.96640809 59.23550793     6     621    0    0    0
C 1495.24594199 69.79762134 63.05194499     2     621    625    626    627
H 1493.75387998 68.39550992 62.94327490     6     624    0    0    0
H 1497.00120017 68.68632366 62.54114428     6     624    0    0    0
C 1495.08911232 70.99326170 65.85795497     2     624    628   629   630
H 1496.70412743 72.13378129 66.37563100     6     627    0    0    0
H 1493.38277010 72.02686431 66.18962685     6     627    0    0    0
C 1495.54260179 68.91422031 67.96180902     2     627   631   632   633
H 1493.84828955 67.87264629 68.50358901     6    630    0    0    0
H 1497.04659145 67.68966257 67.48069606     6    630    0    0    0
C 1496.40714862 70.17656529 70.51649295     2    630   634   635   636
H 1498.17135194 71.01314627 70.26585305     6    633    0    0    0
H 1495.11444361 71.66159662 71.07258702     6    633    0    0    0
C 1496.53203722 68.09290129 72.43242296     2    633   637   638   639
H 1494.75856741 67.25675825 72.67850065     6    636    0    0    0
H 1497.94103796 66.65436889 71.89435466     6    636    0    0    0
C 1497.21863264 69.04919507 74.95642892     2    636   640   641   642
H 1498.88671256 70.28978499 74.86870406     6    639    0    0    0
H 1495.73919928 70.28863380 75.82010381     6    639    0    0    0
C 1498.03403938 66.99625780 76.75336666     2    639   643   644   645
H 1496.51345728 65.63022510 77.18157970     6    642    0    0    0
H 1499.55667924 65.76477583 75.99702626     6    642    0    0    0
C 1498.87036859 68.16327258 79.31840768     2    642   646   647   648
H 1500.18834170 69.79906295 79.00105492     6    645    0    0    0
H 1497.25940574 68.92265924 80.38169821     6    645    0    0    0
C 1500.20661038 66.15892942 80.96484687     2    645   649   650   651
H 1499.22864113 64.41429709 80.82933096     6    648    0    0    0
H 1502.01935211 65.52771112 80.17501033     6    648    0    0    0
C 1500.51360365 67.13950903 83.79740033     2    648   652   653   654
H 1501.94905398 68.65712399 83.94372077     6    651    0    0    0
H 1498.89120287 68.03794286 84.62350332     6    651    0    0    0
C 1501.26965996 65.10573937 85.73550608     1    651   655   656   657
H 1499.75797729 63.85125239 86.19429131     6    654    0    0    0
H 1501.76761599 65.97345488 87.53182263     6    654    0    0    0
H 1502.93735696 64.04965100 85.09615035     6    654    0    0    0
H 1480.65042706 52.89849107 78.69395309     6     659    0    0    0 
C 1478.74253894 53.52810350 78.72107013     1     658    660    661    662
H 1477.99608042 52.55173496 80.40205404     6     659    0    0    0
H 1478.78851873 55.56371639 79.15638326     6     659    0    0    0
C 1477.36195385 52.45669243 76.32920182     2     659    663    664    665
H 1477.67266183 53.31119112 74.54763341     6     662    0    0    0
H 1478.06572621 50.60680691 76.13190195     6     662    0    0    0
C 1474.54176184 52.22656083 76.88138123     2     662    666   667   668
H 1473.80225405 50.86846658 75.53666187     6     665    0    0    0
H 1474.25247366 51.35503921 78.76057865     6     665    0    0    0
C 1473.30807777 54.81701549 76.75865963     2     665   669   670   671
H 1474.28893907 56.04706646 77.95933368     6    668    0    0    0
H 1473.29528004 55.51112943 74.86937199     6    668    0    0    0
C 1470.68231928 54.90061155 78.02428156     2    668   672   673   674
H 1469.50595277 53.43012889 77.08746490     6    671    0    0    0
H 1470.77375446 54.40839038 80.00877497     6    671    0    0    0
C 1469.45038762 57.41551140 77.93780967     2    671   675   676   677
H 1470.59994882 59.10024712 77.75153972     6    674    0    0    0
H 1468.52499946 57.45158741 76.02644469     6    674    0    0    0
C 1467.22404726 57.85949989 79.69165356     2    674   678   679   680
H 1466.37350586 55.95097643 79.91891681     6    677    0    0    0
H 1467.78813142 58.14919882 81.67242123     6    677    0    0    0
C 1465.30583639 59.97770604 79.01934026     2    677   681   682   683
H 1466.26470257 61.66892974 78.99092384     6    680    0    0    0
H 1464.32969425 59.64292331 77.24338526     6    680    0    0    0
C 1463.45349810 60.50422344 81.21013414     2    680   684   685   686
H 1462.33814666 58.81063409 81.48460462     6    683    0    0    0
H 1464.45596905 60.77100332 82.96920257     6    683    0    0    0
C 1461.56721760 62.65338053 80.48945558     2    683   687   688   689
H 1462.67874417 64.32875571 80.23601383     6    686    0    0    0
H 1461.05266427 62.40846517 78.57649938     6    686    0    0    0
C 1459.19279013 62.70930584 82.04801687     2    686   690   691   692
H 1458.33839958 60.73052975 82.35115417     6    689    0    0    0
H 1459.79736478 63.17514755 83.87013327     6    689    0    0    0
C 1457.20869704 64.42350062 80.99788882     1    689   693   694   695
H 1456.14540387 64.87761567 82.73486081     6    692    0    0    0
H 1455.83063027 63.29892300 79.60646904     6    692    0    0    0
H 1457.86220793 66.12656127 80.01623025     6    692    0    0    0
H 1473.22878835 84.25788389 70.63057767     6     697    0    0    0 
C 1472.17612067 82.59908066 70.85214695     1     696    698    699    700
H 1473.37716255 80.86850816 70.69300295     6     697    0    0    0
H 1471.35693287 82.49063044 72.73603942     6     697    0    0    0
C 1469.87447276 82.48462550 69.09264725     2     697    701    702    703
H 1468.81318892 80.74588494 69.30312312     6     700    0    0    0
H 1468.37712580 83.94399821 69.57293311     6     700    0    0    0
C 1470.59050461 82.98932808 66.27612563     2     700    704   705   706
H 1470.88494594 85.05283237 66.10671136     6     703    0    0    0
H 1472.31612126 81.99531004 65.70392867     6     703    0    0    0
C 1468.32371099 82.21188357 64.60236105     2     703   707   708   709
H 1467.84453279 80.15832436 64.87688275     6    706    0    0    0
H 1466.79044017 83.38705793 65.40136227     6    706    0    0    0
C 1468.61872299 83.20052664 61.89484518     2    706   710   711   712
H 1468.48720040 85.27122839 61.76567331     6    709    0    0    0
H 1470.47376079 82.55195550 61.04580415     6    709    0    0    0
C 1466.59579405 82.04857639 60.34664092     2    709   713   714   715
H 1466.51871045 80.01862069 60.81110003     6    712    0    0    0
H 1464.73315142 82.75904925 60.90836482     6    712    0    0    0
C 1467.00367923 82.61938114 57.51086371     2    712   716   717   718
H 1467.17029058 84.75263933 57.60866042     6    715    0    0    0
H 1468.74371852 82.10991947 56.52017721     6    715    0    0    0
C 1464.94458024 81.92274576 55.68128964     2    715   719   720   721
H 1465.29756580 79.91482130 55.48724319     6    718    0    0    0
H 1463.01793742 82.01774781 56.57647750     6    718    0    0    0
C 1465.03922232 83.38458873 53.08558999     2    718   722   723   724
H 1464.55548550 85.28370671 53.55810210     6    721    0    0    0
H 1466.96810343 83.18662822 52.16204772     6    721    0    0    0
C 1463.02562672 82.52417250 50.98712291     2    721   725   726   727
H 1463.40661094 80.51608001 50.33649799     6    724    0    0    0
H 1461.14998352 82.48950401 51.94676851     6    724    0    0    0
C 1463.18734350 84.18582221 48.70462939     2    724   728   729   730
H 1465.14704952 84.75071754 48.18349586     6    727    0    0    0
H 1462.65063833 83.14850621 47.07338777     6    727    0    0    0
C 1461.19171602 86.36886578 49.19678217     1    727   731   732   733
H 1460.82085945 87.53035233 47.58602147     6    730    0    0    0
H 1461.59811651 87.57284711 50.68652466     6    730    0    0    0
H 1459.42584442 85.53260502 49.77264946     6    730    0    0    0
H 1463.11256706 46.77110553 54.87815450     6     735    0    0    0 
C 1463.02292890 45.10416292 55.95777303     1     734    736    737    738
H 1462.00829997 45.52640240 57.67317556     6     735    0    0    0
H 1461.95805349 43.74334115 54.97378657     6     735    0    0    0
C 1465.41847327 43.93623166 56.90454166     2     735    739    740    741
H 1466.26941020 45.01673896 58.38249917     6     738    0    0    0
H 1464.86038221 42.14209373 57.69030843     6     738    0    0    0
C 1467.41781754 43.55472567 54.79736654     2     738    742   743   744
H 1466.55792912 42.11083564 53.73370901     6     741    0    0    0
H 1467.79762089 45.22516930 53.58745068     6     741    0    0    0
C 1469.95374412 42.99852039 55.80624801     2     741   745   746   747
H 1470.86161132 44.60863164 56.69120211     6    744    0    0    0
H 1469.74049924 41.68173113 57.30591285     6    744    0    0    0
C 1471.88878634 42.02584743 53.80875278     2    744   748   749   750
H 1471.18380391 42.15598223 51.85595495     6    747    0    0    0
H 1473.67700412 43.04712198 53.83307397     6    747    0    0    0
C 1472.59201760 39.35622802 54.32777423     2    747   751   752   753
H 1473.57746849 39.06860062 56.06815967     6    750    0    0    0
H 1470.73666898 38.30961440 54.50590009     6    750    0    0    0
C 1474.42299315 38.18323404 52.41298543     2    750   754   755   756
H 1476.13364182 39.27124245 52.31544454     6    753    0    0    0
H 1475.21907768 36.57761695 53.45205940     6    753    0    0    0
C 1473.40192820 37.26703076 49.92313058     2    753   757   758   759
H 1472.13527190 35.69766816 50.09413904     6    756    0    0    0
H 1472.39009860 38.79366590 48.83495129     6    756    0    0    0
C 1475.61349319 36.48756163 48.23357885     2    756   760   761   762
H 1476.79973428 38.17466896 48.06758307     6    759    0    0    0
H 1476.74540861 34.96843291 49.11463757     6    759    0    0    0
C 1474.66380228 35.69453422 45.61360434     2    759   763   764   765
H 1473.21469516 34.22843198 45.73271956     6    762    0    0    0
H 1473.79012499 37.17788134 44.65304451     6    762    0    0    0
C 1476.66577827 34.90463218 43.88818937     2    762   766   767   768
H 1478.24566662 36.14208305 44.02340049     6    765    0    0    0
H 1477.17270485 33.03040297 44.44910946     6    765    0    0    0
C 1476.06768654 35.30197544 41.06986793     1    765   769   770   771
H 1474.41475919 34.11704296 40.82449775     6    768    0    0    0
H 1477.61534823 34.84563542 39.52783597     6    768    0    0    0
H 1475.74339617 37.28709231 40.81708877     6    768    0    0    0
H 1503.39329269 70.08103595 75.31226329     6     773    0    0    0 
C 1505.26034778 69.09269965 75.10319712     1     772    774    775    776
H 1506.46203784 70.72127992 75.46120469     6     773    0    0    0
H 1505.63829667 67.75764202 76.65677069     6     773    0    0    0
C 1505.37919016 68.02476099 72.28677584     2     773    777    778    779
H 1507.12336115 66.92973720 71.97852533     6     776    0    0    0
H 1503.87711107 66.55389548 71.98397806     6     776    0    0    0
C 1505.00319668 70.19298279 70.36031992     2     776    780   781   782
H 1503.29477352 71.23930418 70.65410934     6     779    0    0    0
H 1506.35083006 71.64499091 70.73222157     6     779    0    0    0
C 1504.93788439 69.05088740 67.64533342     2     779   783   784   785
H 1506.62626760 68.32424883 67.03152278     6    782    0    0    0
H 1503.81761283 67.20220407 67.82019324     6    782    0    0    0
C 1503.73466481 70.82169146 65.69316048     2    782   786   787   788
H 1501.98248918 71.50137887 66.50829556     6    785    0    0    0
H 1504.90124481 72.35283320 65.28766777     6    785    0    0    0
C 1503.40696217 69.49453807 63.07101165     2    785   789   790   791
H 1505.42626719 69.01374289 62.53802742     6    788    0    0    0
H 1502.22759019 67.90483920 63.22390294     6    788    0    0    0
C 1502.03720530 71.24527851 61.18082494     2    788   792   793   794
H 1500.04058310 71.63365205 61.70208524     6    791    0    0    0
H 1503.00228121 73.02898486 61.10521940     6    791    0    0    0
C 1501.96030306 69.84079434 58.56094589     2    791   795   796   797
H 1503.85635335 69.06082786 58.15589704     6    794    0    0    0
H 1500.93014187 68.05203232 58.65877362     6    794    0    0    0
C 1500.62171997 71.30841279 56.50192975     2    794   798   799   800
H 1498.70136553 71.51354284 57.24046007     6    797    0    0    0
H 1501.10175318 73.30788749 56.28960145     6    797    0    0    0
C 1500.42385618 69.86093741 54.00172677     2    797   801   802   803
H 1502.32748177 69.42472310 53.23330957     6    800    0    0    0
H 1499.48723303 68.00464895 54.51196448     6    800    0    0    0
C 1499.02634040 71.33082157 51.93842635     2    800   804   805   806
H 1497.14271835 71.82024776 52.46166968     6    803    0    0    0
H 1500.15391876 72.96195674 51.58646523     6    803    0    0    0
C 1498.72309068 69.70102571 49.59161658     1    803   807   808   809
H 1497.56993764 70.59605362 48.02605586     6    806    0    0    0
H 1497.64054115 67.93073865 50.01825615     6    806    0    0    0
H 1500.56346478 68.96159153 49.01707662     6    806    0    0    0
H 1474.82353677 45.94125115 72.02123757     6     811    0    0    0 
C 1476.63907545 45.71697404 73.04104152     1     810    812    813    814
H 1476.25299941 46.39833835 75.01322177     6     811    0    0    0
H 1477.23884484 43.70005028 73.07087837     6     811    0    0    0
C 1478.65178992 47.13380148 71.51465578     2     811    815    816    817
H 1478.16832762 49.31079293 71.42682687     6     814    0    0    0
H 1480.47780630 46.93008263 72.75111540     6     814    0    0    0
C 1479.05578325 46.15790592 68.81211386     2     814    818   819   820
H 1479.02387403 44.12893800 68.78693459     6     817    0    0    0
H 1477.55046478 46.72085185 67.58734087     6     817    0    0    0
C 1481.61917171 47.18203066 67.73649304     2     817   821   822   823
H 1481.64795319 49.16020496 68.01635391     6    820    0    0    0
H 1483.03404757 46.39843185 69.10956666     6    820    0    0    0
C 1482.08642158 46.32545850 65.05258065     2    820   824   825   826
H 1481.80415492 44.33492799 64.63701204     6    823    0    0    0
H 1480.81201788 47.28582043 63.82749671     6    823    0    0    0
C 1484.78178099 47.07405184 64.42251197     2    823   827   828   829
H 1485.29529661 49.03980940 64.78723342     6    826    0    0    0
H 1485.98449318 46.08531841 65.76108175     6    826    0    0    0
C 1485.73820484 46.38753855 61.82506386     2    826   830   831   832
H 1485.78244184 44.45143161 61.56989317     6    829    0    0    0
H 1484.76908387 47.34587112 60.32837229     6    829    0    0    0
C 1488.51613976 47.05714568 61.66851871     2    829   833   834   835
H 1488.83096208 49.09873035 61.35584021     6    832    0    0    0
H 1489.47138905 46.61413614 63.44622957     6    832    0    0    0
C 1490.06235763 45.55299975 59.70988589     2    832   836   837   838
H 1489.75217158 43.59446882 60.18749546     6    835    0    0    0
H 1488.97029720 45.78634920 57.85759479     6    835    0    0    0
C 1492.86919056 46.21779452 59.65124438     2    835   839   840   841
H 1492.74232308 48.16909764 58.75872958     6    838    0    0    0
H 1493.85572207 46.18901161 61.51342533     6    838    0    0    0
C 1494.58043864 44.80255849 57.66601805     2    838   842   843   844
H 1494.38128554 42.69225761 57.95795516     6    841    0    0    0
H 1493.93195837 45.39997766 55.77230749     6    841    0    0    0
C 1497.31187696 45.80506553 57.78481071     1    841   845   846   847
H 1497.25876111 47.77113428 57.75415128     6    844    0    0    0
H 1498.12831517 45.15448228 55.99586329     6    844    0    0    0
H 1498.54985966 44.82750484 59.20661431     6    844    0    0    0
H 1469.30338882 60.68030881 93.09288964     6     849    0    0    0 
C 1469.04743830 59.93233831 91.30324393     1     848    850    851    852
H 1466.99279397 59.70685909 91.17959796     6     849    0    0    0
H 1469.65839702 61.38984872 89.88795138     6     849    0    0    0
C 1470.41667174 57.39243078 90.84675598     2     849    853    854    855
H 1472.39517813 57.76275401 91.24972750     6     852    0    0    0
H 1469.52088454 56.18721778 92.29667430     6     852    0    0    0
C 1469.72723697 56.10048897 88.33193359     2     852    856   857   858
H 1467.76889219 56.56703880 87.49819441     6     855    0    0    0
H 1471.18238685 57.01031353 87.14745643     6     855    0    0    0
C 1470.10542944 53.22473300 88.48005465     2     855   859   860   861
H 1472.00642037 52.75898705 89.28029520     6    858    0    0    0
H 1468.83429399 52.19691841 89.60953776     6    858    0    0    0
C 1470.25903856 52.08327382 85.91920030     2    858   862   863   864
H 1468.65879257 52.89810485 84.77626644     6    861    0    0    0
H 1471.82536699 52.66791708 84.91053752     6    861    0    0    0
C 1470.66093022 49.17143190 85.88240349     2    861   865   866   867
H 1471.72359420 48.70058863 87.47106216     6    864    0    0    0
H 1468.91307480 48.20194690 86.12515786     6    864    0    0    0
C 1471.96903211 48.48102167 83.44081530     2    864   868   869   870
H 1470.80731093 49.17926338 81.91783662     6    867    0    0    0
H 1473.68297927 49.69807351 83.20816589     6    867    0    0    0
C 1472.82429933 45.76599747 83.55629275     2    867   871   872   873
H 1474.26234556 45.59903041 84.92840483     6    870    0    0    0
H 1471.37239571 44.63578967 84.25602281     6    870    0    0    0
C 1473.87502188 44.92968638 81.01284833     2    870   874   875   876
H 1472.28398113 44.92973125 79.68748850     6    873    0    0    0
H 1475.29698345 46.35587444 80.47267808     6    873    0    0    0
C 1475.22552105 42.25203222 81.21111918     2    873   877   878   879
H 1477.20603720 42.44950237 81.33618562     6    876    0    0    0
H 1474.65533316 41.15000687 82.92534151     6    876    0    0    0
C 1474.90452374 40.77060064 78.68373447     2    876   880   881   882
H 1472.90761158 40.53528774 78.09982498     6    879    0    0    0
H 1475.59925983 41.86536723 77.01785484     6    879    0    0    0
C 1476.33366446 38.25253921 78.59051941     1    879   883   884   885
H 1475.89975878 37.06900507 80.38157766     6    882    0    0    0
H 1478.38264500 38.62554206 78.39796026     6    882    0    0    0
H 1475.71593007 37.07682336 76.95276775     6    882    0    0    0
H 1485.93996262 54.97742282 60.52365585     6     887    0    0    0 
C 1486.08782153 55.51111558 62.54680175     1     886    888    889    890
H 1486.86857941 53.80870036 63.41984194     6     887    0    0    0
H 1487.53637755 56.95563621 62.55479609     6     887    0    0    0
C 1483.63590235 56.15812137 63.95759051     2     887    891    892    893
H 1484.08220591 57.01218898 65.80668058     6     890    0    0    0
H 1483.04024660 57.84289149 63.02221307     6     890    0    0    0
C 1481.53020186 54.22796300 64.12989134     2     890    894   895   896
H 1481.11019214 53.45294455 62.29853180     6     893    0    0    0
H 1482.10954832 52.77455869 65.58135131     6     893    0    0    0
C 1479.00336203 55.41571294 65.08987683     2     893   897   898   899
H 1479.43693707 56.40316961 66.79729617     6    896    0    0    0
H 1478.17127019 56.66996099 63.67620682     6    896    0    0    0
C 1477.08176657 53.35041666 65.86055733     2    896   900   901   902
H 1476.43183987 52.39285877 64.26972551     6    899    0    0    0
H 1477.89293955 51.93724240 67.13132020     6    899    0    0    0
C 1474.67485560 54.61384564 67.13499259     2    899   903   904   905
H 1475.12825054 55.59029586 68.86783042     6    902    0    0    0
H 1473.94763556 56.22072321 65.97649318     6    902    0    0    0
C 1472.64986265 52.61017814 67.77328886     2    902   906   907   908
H 1472.51969691 51.08186982 66.48160808     6    905    0    0    0
H 1473.35033860 51.40305629 69.51019121     6    905    0    0    0
C 1470.11360362 53.87595063 68.19903511     2    905   909   910   911
H 1469.92048438 54.67512178 70.11179395     6    908    0    0    0
H 1470.00656244 55.59738530 67.09064063     6    908    0    0    0
C 1467.86048408 51.99961199 67.72057597     2    908   912   913   914
H 1467.25717854 51.98070924 65.69527455     6    911    0    0    0
H 1468.47735422 50.16749424 68.26535543     6    911    0    0    0
C 1465.68790755 52.82696818 69.51357618     2    911   915   916   917
H 1466.45062760 52.72870081 71.47965928     6    914    0    0    0
H 1465.02571921 54.71547082 69.21273941     6    914    0    0    0
C 1463.50356433 50.92421571 69.02974406     2    914   918   919   920
H 1463.44474174 50.52047265 67.03824055     6    917    0    0    0
H 1464.04036145 49.22192544 70.18601115     6    917    0    0    0
C 1460.92668823 51.62248497 70.07050195     1    917   921   922   923
H 1460.25473170 53.55660139 69.53839383     6    920    0    0    0
H 1461.07160547 51.55417663 72.08328918     6    920    0    0    0
H 1459.43725874 50.45718871 69.55437043     6    920    0    0    0
H 1485.35448481 66.21543547 86.74621484     6     925    0    0    0 
C 1484.78110334 64.22676003 87.07522562     1     924    926    927    928
H 1483.51164485 63.91844119 85.58591010     6     925    0    0    0
H 1486.49320529 63.01531217 87.05888593     6     925    0    0    0
C 1483.33982454 63.99222420 89.51039038     2     925    929    930    931
H 1484.55750520 64.48936720 91.17367184     6     928    0    0    0
H 1481.79776774 65.37788984 89.55369497     6     928    0    0    0
C 1482.61373466 61.25009934 90.04337719     2     928    932   933   934
H 1484.32839026 60.14584823 90.23547035     6     931    0    0    0
H 1481.70496384 60.95622197 91.78450345     6     931    0    0    0
C 1480.69959533 60.18972789 88.15760070     2     931   935   936   937
H 1479.05757567 61.41627542 88.22435428     6    934    0    0    0
H 1481.49337881 60.30638979 86.27572188     6    934    0    0    0
C 1480.07626701 57.46584506 88.65657304     2    934   938   939   940
H 1481.55617935 56.47033218 89.54931049     6    937    0    0    0
H 1478.96178273 57.44513606 90.45864363     6    937    0    0    0
C 1478.92605003 55.99046095 86.43239944     2    937   941   942   943
H 1477.18611977 57.12158743 85.85842036     6    940    0    0    0
H 1480.29790710 55.94317995 84.85602696     6    940    0    0    0
C 1477.99462957 53.41340016 87.12210271     2    940   944   945   946
H 1476.84324978 53.69155094 88.75754116     6    943    0    0    0
H 1476.66866021 52.51907363 85.68592352     6    943    0    0    0
C 1480.04454229 51.47634694 87.36490031     2    943   947   948   949
H 1480.93845487 51.12260488 85.44675570     6    946    0    0    0
H 1481.63967635 52.20034204 88.56884683     6    946    0    0    0
C 1479.15538213 48.87130219 88.22232048     2    946   950   951   952
H 1477.89139779 48.84188736 89.89709107     6    949    0    0    0
H 1478.06977810 48.19433997 86.70653035     6    949    0    0    0
C 1481.33828803 47.22894798 88.99819134     2    949   953   954   955
H 1482.25829168 46.93197302 87.20721126     6    952    0    0    0
H 1482.64098233 48.28805486 90.18364865     6    952    0    0    0
C 1480.94436294 44.42496896 89.97715355     2    952   956   957   958
H 1482.82828691 43.64738986 90.45579860     6    955    0    0    0
H 1480.07906656 44.30880457 91.85441520     6    955    0    0    0
C 1479.43024002 42.47884726 88.32228836     1    955   959   960   961
H 1479.59330034 40.61284751 89.26433458     6    958    0    0    0
H 1480.08596622 42.15500571 86.36033404     6    958    0    0    0
H 1477.40389114 42.84623345 88.18717569     6    958    0    0    0
H 1472.93222149 54.27068885 47.11631050     6     963    0    0    0 
C 1474.87697926 53.73720303 47.60646478     1     962    964    965    966
H 1474.88984323 52.97156289 49.54519893     6     963    0    0    0
H 1475.76361989 52.22726316 46.42818174     6     963    0    0    0
C 1476.63074670 56.13509619 47.56508848     2     963    967    968    969
H 1478.44644858 55.81001056 48.55218558     6     966    0    0    0
H 1477.29184576 56.54871973 45.67994663     6     966    0    0    0
C 1475.20931842 58.54814084 48.50141383     2     966    970   971   972
H 1473.74198290 58.93557549 47.06537482     6     969    0    0    0
H 1474.20400589 57.98197563 50.30135779     6     969    0    0    0
C 1476.66056441 60.98532338 48.94413566     2     969   973   974   975
H 1478.18002717 60.71239192 50.14960030     6    972    0    0    0
H 1477.41094923 61.45097859 47.03258542     6    972    0    0    0
C 1474.93273697 63.25444596 49.60369332     2    972   976   977   978
H 1473.32396108 63.12181147 48.48605658     6    975    0    0    0
H 1474.29732515 63.06303905 51.54871647     6    975    0    0    0
C 1476.15310439 65.90751572 49.27013466     2    975   979   980   981
H 1477.51946680 66.11798336 50.94269819     6    978    0    0    0
H 1477.02897748 66.15125204 47.33896467     6    978    0    0    0
C 1474.28739780 68.11848942 49.34015396     2    978   982   983   984
H 1472.35872453 67.57180635 48.75465135     6    981    0    0    0
H 1474.10079217 68.89749019 51.33339961     6    981    0    0    0
C 1474.83283651 70.18628652 47.47818856     2    981   985   986   987
H 1476.66418927 71.11290031 47.86886956     6    984    0    0    0
H 1475.19708492 69.50063759 45.53219118     6    984    0    0    0
C 1472.47559540 71.95646981 47.02115255     2    984   988   989   990
H 1472.97896425 73.33483731 45.61631532     6    987    0    0    0
H 1470.99942499 70.86310732 46.13210196     6    987    0    0    0
C 1471.15149769 73.09327231 49.34019064     2    987   991   992   993
H 1470.31420576 71.64207027 50.52805419     6    990    0    0    0
H 1472.74726545 73.81793214 50.56661012     6    990    0    0    0
C 1469.20351506 75.24190929 48.73928121     2    990   994   995   996
H 1470.18868290 76.74631458 47.68692095     6    993    0    0    0
H 1467.65166737 74.61245492 47.35203181     6    993    0    0    0
C 1467.90906373 76.01797889 51.11256181     1    993   997   998   999
H 1467.34477124 74.53322137 52.30132338     6    996    0    0    0
H 1466.27157874 77.22853773 50.63268692     6    996    0    0    0
H 1469.21768728 77.04425293 52.16653179     6    996    0    0    0
H 1478.47295746 42.67118400 39.08920152     6     1001    0    0    0 
C 1479.37785241 43.85086821 40.52113705     1     1000    1002    1003    1004
H 1478.92806926 43.15150034 42.46324722     6     1001    0    0    0
H 1481.44780581 43.78118123 40.48010612     6     1001    0    0    0
C 1478.41190816 46.56537676 40.19789979     2     1001    1005    1006    1007
H 1478.77178977 47.47980136 41.94205317     6     1004    0    0    0
H 1479.47363603 47.54841069 38.78493970     6     1004    0    0    0
C 1475.47535060 46.75846783 40.11312219     2     1004    1008   1009   1010
H 1474.89196177 45.96340499 38.24546415     6     1007    0    0    0
H 1474.78631633 45.40244556 41.56359670     6     1007    0    0    0
C 1474.48857444 49.45800971 40.46520796     2     1007   1011   1012   1013
H 1475.27352890 50.35812426 42.22399987     6    1010    0    0    0
H 1475.27108319 50.40570770 38.83532711     6    1010    0    0    0
C 1471.59929948 49.40799482 40.37121326     2    1010   1014   1015   1016
H 1471.25180057 48.89356999 38.50867110     6    1013    0    0    0
H 1470.73861749 47.68741508 41.44260259     6    1013    0    0    0
C 1470.49295412 51.99746596 41.14661227     2    1013   1017   1018   1019
H 1470.26227783 52.05875228 43.16918665     6    1016    0    0    0
H 1471.64008490 53.63576141 40.41890546     6    1016    0    0    0
C 1467.92664836 52.35364796 40.00932405     2    1016   1020   1021   1022
H 1468.06795168 52.50618655 37.87222007     6    1019    0    0    0
H 1466.88703736 50.57926750 40.29878880     6    1019    0    0    0
C 1466.41519476 54.59750454 40.94278762     2    1019   1023   1024   1025
H 1467.92076111 56.06046874 40.87791787     6    1022    0    0    0
H 1464.94156405 55.00725299 39.49223112     6    1022    0    0    0
C 1465.21158319 54.13764186 43.56716221     2    1022   1026   1027   1028
H 1463.99280001 52.51741713 43.67544414     6    1025    0    0    0
H 1466.80106035 53.47681017 44.88298877     6    1025    0    0    0
C 1463.87383638 56.46173835 44.66837108     2    1025   1029   1030   1031
H 1463.55483932 56.24831064 46.59076595     6    1028    0    0    0
H 1465.21706722 57.99905605 44.65249763     6    1028    0    0    0
C 1461.52618131 57.66994752 43.27489230     2    1028   1032   1033   1034
H 1461.75594522 57.65298759 41.21613158     6    1031    0    0    0
H 1459.84031628 56.42880294 43.70058437     6    1031    0    0    0
C 1461.24876558 60.49688587 43.62922329     1    1031   1035   1036   1037
H 1459.30828814 61.19784798 43.38040704     6    1034    0    0    0
H 1462.57787049 61.54498770 42.46847357     6    1034    0    0    0
H 1461.71065003 61.02421000 45.45830659     6    1034    0    0    0
H 1493.89385940 64.22890957 56.97934193     6     1039    0    0    0 
C 1495.57981916 64.18040070 58.23128648     1     1038    1040    1041    1042
H 1497.25511520 63.44980941 57.09448153     6     1039    0    0    0
H 1495.88634303 66.16479684 58.73123185     6     1039    0    0    0
C 1495.08645428 62.59565870 60.69107703     2     1039    1043    1044    1045
H 1493.21224144 63.16323436 61.74565906     6     1042    0    0    0
H 1494.70465621 60.66696342 60.26504677     6     1042    0    0    0
C 1497.30474342 62.66264596 62.58672768     2     1042    1046   1047   1048
H 1499.09061145 62.59206403 61.38538286     6     1045    0    0    0
H 1497.08274534 64.55018885 63.33552866     6     1045    0    0    0
C 1497.34536444 60.67080349 64.62601530     2     1045   1049   1050   1051
H 1495.53201094 60.71764534 65.74590906     6    1048    0    0    0
H 1497.40277932 58.81779388 63.85860636     6    1048    0    0    0
C 1499.55009499 61.30672521 66.50233166     2    1048   1052   1053   1054
H 1501.32924891 61.54963391 65.30834284     6    1051    0    0    0
H 1498.96967858 63.11216924 67.35591073     6    1051    0    0    0
C 1500.00104885 59.36153046 68.64749711     2    1051   1055   1056   1057
H 1498.22753158 58.71641016 69.44661893     6    1054    0    0    0
H 1500.94124591 57.80520841 67.90663598     6    1054    0    0    0
C 1501.58183837 60.54774793 70.83863036     2    1054   1058   1059   1060
H 1503.42030046 61.31752045 70.32748530     6    1057    0    0    0
H 1500.40750461 62.15744818 71.52830962     6    1057    0    0    0
C 1502.13860146 58.46141416 72.85438246     2    1057   1061   1062   1063
H 1500.30710965 57.63712959 73.44457206     6    1060    0    0    0
H 1502.99679363 56.85564953 71.82154901     6    1060    0    0    0
C 1503.80433697 59.37479661 75.13247516     2    1060   1064   1065   1066
H 1505.71983218 59.76154614 74.58901264     6    1063    0    0    0
H 1503.03764424 61.29816951 75.61823168     6    1063    0    0    0
C 1503.76620210 57.44041324 77.27916720     2    1063   1067   1068   1069
H 1501.79426610 57.33425652 77.89003278     6    1066    0    0    0
H 1504.48065778 55.70193483 76.52972736     6    1066    0    0    0
C 1505.55901686 58.44784881 79.53497335     2    1066   1070   1071   1072
H 1507.31621303 59.12246144 78.83043318     6    1069    0    0    0
[...]
 1619      H    1505.2494764600    74.6265476100    51.0135903900
 1620      H    1507.3284988600    77.3660039100    50.4466909600
 1621      C    1505.2876817900    75.7859442300    47.0664601400
 1622      H    1506.3835189800    76.9621269500    45.8193640300
 1623      H    1505.4162878700    73.8902051200    46.2504693500
 1624      C    1502.4649190300    76.7884669000    47.2906655100
 1625      H    1501.0988820400    75.4744163800    47.6953113500
 1626      H    1502.4727403800    77.8634791000    49.0966780600
 1627      C    1501.5537689800    78.6217450100    45.2256893900
 1628      H    1503.1780439200    79.9801806300    45.4640057100
 1629      H    1501.6047189000    78.0458466100    43.2165905800
 1630      C    1499.2879795800    80.2006338700    46.0245931000
 1631      H    1497.6520806200    78.8815744300    46.1213201500
 1632      H    1499.7150575700    81.0479624600    47.8820167900
 1633      C    1498.5412068900    82.2939595000    44.1790786100
 1634      H    1500.1012250500    83.6284088300    43.8690118500
 1635      H    1498.0725959200    81.3643169000    42.3626240200
 1636      C    1496.0930670900    83.5937236400    45.2085984300
 1637      H    1494.6204311000    82.2834080000    45.7496026200
 1638      H    1496.9290076700    84.4930687500    46.9282643200
 1639      C    1495.1114249800    85.7180319700    43.5342957000
 1640      H    1496.6056313700    87.1261589000    42.8424492500
 1641      H    1494.4403615600    84.8155150400    41.7925884300
 1642      C    1493.0861902500    87.1396155300    44.9706189400
 1643      H    1491.6483123500    85.8532285000    45.6573752300
 1644      H    1491.9502058500    88.5489928100    43.8199813100
 1645      H    1493.7954591500    88.2642859800    46.4361153700
 1646      H    1505.4038695100    56.4947566700    39.3182315100
 1647      C    1504.7233259800    58.0987282700    40.4348251300
 1648      H    1503.4916155800    57.5245168700    41.8817700600
 1649      H    1506.3299129800    59.0677136700    41.1795951500
 1650      C    1503.2691949000    59.7879414500    38.6544661500
 1651      H    1502.3990263300    61.4493939100    39.7268327000
 1652      H    1504.4672432600    60.3891451800    37.1596182900
 1653      C    1500.9362329100    58.6043415000    37.4458799500
 1654      H    1501.4233266300    56.9143901000    36.6486837600
 1655      H    1499.7057791300    58.2692802500    38.9944767900
 1656      C    1499.5310730400    60.0059631300    35.2860546900
 1657      H    1500.8685410000    61.6072900500    34.4694143900
 1658      H    1499.0853024500    58.8399683300    33.7369950200
 1659      C    1496.8732896800    61.0000465500    36.1966392800
 1660      H    1495.7117481800    59.5111715600    37.1094931200
 1661      H    1497.1779160400    62.3687816900    37.6131969700
 1662      C    1495.4638031400    62.1867585800    33.9512310700
 1663      H    1496.5907748700    63.7289246200    33.0666775400
 1664      H    1495.5369283500    61.0048879600    32.3156195700
 1665      C    1492.9014374100    63.2096787700    34.9628843700
 1666      H    1491.8312621800    61.9015215100    36.0882674500
 1667      H    1493.3093505900    64.9668061700    36.1745427900
 1668      C    1491.3518790900    64.2496173200    32.7958590200
 1669      H    1492.3627678000    65.5984900300    31.6184299200
 1670      H    1490.8417807600    62.8816541200    31.4699821600
 1671      C    1488.9379697200    65.7366918300    33.7951073600
 1672      H    1487.8198967500    64.6107171300    35.1579629600
 1673      H    1489.4814198200    67.4240418000    34.9953466700
 1674      C    1487.1834578100    66.6512715800    31.7435543700
 1675      H    1488.3548539000    67.4471416900    30.1477163100
 1676      H    1486.1838547000    64.9177491200    31.0272627400
 1677      C    1485.3982848700    68.5490631100    32.6949483300
 1678      H    1484.2882752500    67.7213606000    34.4135830100
 1679      H    1486.4458609800    70.1138754300    33.7069085500
 1680      C    1483.6455177400    69.5502979500    30.6741933100
 1681      H    1482.0899505500    70.5716913600    31.6060993400
 1682      H    1482.6079772300    68.2004354700    29.6094893100
 1683      H    1484.4789802400    70.8850332700    29.3381301500
 1684      H    1480.7321970300    51.3990697200    41.0931082200
 1685      C    1482.5840180900    51.6583707000    41.7858285100
 1686      H    1483.3383243100    49.7238713800    42.2091855900
 1687      H    1483.8514045000    52.3120844800    40.2627686700
 1688      C    1482.6491450000    53.2778619500    44.1750440300
 1689      H    1482.1371429300    55.1018683600    43.7357360700
 1690      H    1481.2938118300    52.3899864500    45.4642948200
 1691      C    1485.2098209900    53.1243057100    45.5437313800
 1692      H    1485.4939214100    51.1313954800    45.9921143900
 1693      H    1486.7801906000    53.7712216600    44.3401622200
 1694      C    1485.2023448700    54.4854273100    48.0434692600
 1695      H    1483.8056746200    53.4317652800    49.1410212500
 1696      H    1487.0669348800    54.3042595100    48.8495538700
 1697      C    1484.2992860000    57.1429853400    47.7210370100
 1698      H    1485.1345659100    58.0144711300    46.0248775700
 1699      H    1482.3498288500    57.3901487700    47.4094935300
 1700      C    1484.5200874900    58.7724135100    50.1574183600
 1701      H    1482.9996672700    60.1865108700    49.7927781800
 1702      H    1484.3294389100    57.4397146200    51.8264273000
 1703      C    1487.0280422900    60.3461033400    50.1249718300
 1704      H    1488.6905506500    59.0834474500    50.1907079300
 1705      H    1487.1178220500    61.1105000000    48.2726169600
 1706      C    1487.0833993600    62.7137663300    51.9240102800
 1707      H    1485.3262972600    63.6391075200    51.8280916000
 1708      H    1487.3267235400    61.9265260400    53.8543402000
 1709      C    1489.3281611900    64.4667578900    51.2894268600
 1710      H    1491.0727455600    63.3583960900    51.1212414800
 1711      H    1489.0526670400    65.2746259300    49.3347196000
 1712      C    1489.6375614900    66.7580642500    53.0612349200
 1713      H    1487.9218037900    67.6866741500    53.1728077200
 1714      H    1490.0049414700    65.9916990300    54.8691193200
 1715      C    1491.8088046200    68.5298717000    52.0852515700
 1716      H    1491.7814477000    70.1621595500    53.2743307300
 1717      H    1493.7065097300    67.7365890100    52.0565499800
 1718      C    1491.0571573300    69.8115718300    49.6398331800
 1719      H    1491.0377438600    68.5353733600    48.0629053700
 1720      H    1492.0274674200    71.5864671900    49.3132988300
 1721      H    1489.0735386400    70.3798087900    49.9063940300
 1722      H    1463.0537087100    76.5421475700    43.4080261400
 1723      C    1463.0491922400    75.1045292400    41.9264306300
 1724      H    1461.0696494200    74.5961690000    41.8566247000
 1725      H    1463.7196308000    75.9667611600    40.1087445700
 1726      C    1464.7878845000    72.8039093600    42.4516954700
 1727      H    1464.6838479400    71.5191425500    40.8134495700
 1728      H    1466.7908501900    73.4202234200    42.5774064600
 1729      C    1463.8247193500    71.5728754200    44.8278881500
 1730      H    1464.1561497900    72.8343353400    46.4482462600
 1731      H    1461.8477429400    71.0784462600    44.5863242600
 1732      C    1465.4014038500    69.3726955300    45.6942170200
 1733      H    1465.2484036200    67.8482235900    44.4431011600
 1734      H    1467.3688905800    69.8824771400    45.7922507600
 1735      C    1464.8591840900    68.4780236700    48.3551290900
 1736      H    1465.3099068100    69.9553150600    49.7281621500
 1737      H    1462.8353703500    68.0068870700    48.3345373900
 1738      C    1466.3793086300    66.0936427900    49.3023354300
 1739      H    1465.7779195700    64.1988873500    48.8155378200
 1740      H    1468.2345474100    66.2904774400    48.2945413700
 1741      C    1466.8858013700    66.3303627400    52.2485300700
 1742      H    1467.7119546700    68.2126588600    52.7189987700
 1743      H    1465.0564443400    66.1289086500    53.3481754600
 1744      C    1468.7033359500    64.1674073700    53.3484832900
 1745      H    1468.3927933000    62.3718834800    52.4592022800
 1746      H    1470.5656303500    64.5772635800    52.6679449000
 1747      C    1468.9431564100    64.1108817400    56.2180841600
 1748      H    1469.4815544300    65.9684851200    56.9788009000
 1749      H    1467.1608663200    63.4848795400    56.9315028000
 1750      C    1470.8704383200    62.1931705400    57.1319157700
 1751      H    1470.4502821500    60.2744065200    56.1608402100
 1752      H    1472.7223068700    62.5139336900    56.3661837100
 1753      C    1471.1999789000    62.2319946300    60.0850536300
 1754      H    1473.0777795800    62.9452855000    60.3899223800
 1755      H    1469.9735756900    63.4565261400    61.0692992700
 1756      C    1470.8692633800    59.5624355900    61.2503082300
 1757      H    1470.2914212500    59.7553037900    63.3049932800
 1758      H    1472.5486439300    58.4419020700    61.1867227600
 1759      H    1469.4333716500    58.3890187600    60.2534005700
 1760      H    1454.3816646400    53.7134229400    64.5324963800
 1761      C    1455.2541228700    55.6559255300    64.9110297400
 1762      H    1455.1132302200    56.2994476200    66.8674100500
 1763      H    1457.2854437900    55.6371497100    64.8703546800
 1764      C    1454.4236322300    57.6510511500    62.9814896700
 1765      H    1454.7199674500    56.8572378300    61.1091363100
 1766      H    1452.4956413900    58.2175004700    62.8691798900
 1767      C    1455.7533292400    60.0894613600    63.5592134200
 1768      H    1454.8147781600    60.7390691900    65.2553322900
 1769      H    1457.7284096600    59.8468181700    63.9322565100
 1770      C    1455.1568414000    62.1188404800    61.4686743300
 1771      H    1456.9790311400    63.1141638700    60.9639237200
 1772      H    1454.4885891700    61.2737474500    59.6971748800
 1773      C    1453.4493352100    64.2480959100    62.4874991300
 1774      H    1451.6094489900    63.6090581900    63.2222379800
 1775      H    1454.5297977700    65.0356865600    63.9783185400
 1776      C    1453.1770656700    66.2610377500    60.3944677100
 1777      H    1455.1212150800    67.2129919500    59.9528047000
 1778      H    1452.6706130800    65.4942445000    58.5168044700
 1779      C    1451.4113458200    68.3973669700    60.7460051900
 1780      H    1449.5550101000    67.5157010500    61.1806901300
 1781      H    1452.0434920700    69.3239023500    62.4335441900
 1782      C    1450.9285471800    70.3074278900    58.7087277400
 1783      H    1449.9589605800    69.6867834800    57.1122573100
 1784      H    1449.6549930000    71.7626632600    59.5598723300
 1785      C    1453.2541245300    72.0459341200    58.0112503800
 1786      H    1453.9114426400    73.0030514200    59.7921417200
 1787      H    1454.6147344800    70.7425642500    57.1943275300
 1788      C    1452.4157007500    74.0625243400    55.9998202000
 1789      H    1452.3173180000    72.9792216500    54.2699534100
 1790      H    1450.6550859400    74.8474650600    56.6487628900
 1791      C    1454.3474911800    76.0939056800    55.3033484800
 1792      H    1455.6537291600    76.5387505200    56.8893495100
 1793      H    1455.6137612500    75.1284962100    54.0581771400
 1794      C    1453.0546937600    78.4725055700    54.2722395100
 1795      H    1451.9317795100    79.2326875200    55.7020103100
 1796      H    1451.6884307100    78.0463640300    52.7984124700
 1797      H    1454.2274911800    79.8818377700    53.4366730600
 1798      H    1495.9358491300    79.2502532000    82.2229185800
 1799      C    1494.4241191600    78.8715611400    80.8527629500
 1800      H    1492.7852157700    80.0571789200    81.0468658100
 1801      H    1495.2169096800    79.3886868000    79.0648386600
 1802      C    1494.0145033500    76.0914410700    81.3295169400
 1803      H    1495.8653977900    75.1093454900    81.4517480500
 1804      H    1493.1534416200    76.0134508400    83.2666694300
 1805      C    1492.3729060500    74.9931955600    79.4046604200
 1806      H    1490.6564345000    76.0710297900    78.9720452900
 1807      H    1493.5557746800    74.9906623800    77.7451045900
 1808      C    1491.5750071700    72.1861926200    79.9064246200
 1809      H    1493.2989668800    70.8935371800    80.1902858300
 1810      H    1490.5565348800    72.0292134000    81.7533672500
 1811      C    1489.9417564900    71.0861678900    77.8211290700
 1812      H    1488.2891857600    72.1560202600    77.5505088900
 1813      H    1490.9456280000    71.2476473600    76.0076505100
 1814      C    1489.6526601600    68.2674985800    78.3428469100
 1815      H    1491.4631717400    67.4519674500    78.7733670100
 1816      H    1488.5756446500    67.9914154300    80.0619091700
 1817      C    1487.9053388000    66.9036711200    76.2786147000
 1818      H    1486.0893314200    67.9221278600    76.1814339600
 1819      H    1488.8918513200    67.1008046100    74.5493526800
 1820      C    1487.5567029700    64.1349747300    76.8441403000
 1821      H    1489.3106520500    63.0098360000    76.8525055300
 1822      H    1486.8666094200    64.0831944000    78.7565017100
 1823      C    1485.7599011700    62.8125242400    75.0172706400
 1824      H    1483.9229135500    63.7799467600    75.0106497100
 1825      H    1486.7996269100    63.0179556700    73.1260819500
 1826      C    1485.3330995800    59.9837696100    75.6747554400
 1827      H    1487.0679760200    59.0904738600    76.3246812800
 1828      H    1483.7462402000    59.8453730000    77.0333342000
 1829      C    1484.4735114000    58.4466210700    73.3212189400
 1830      H    1482.8891691200    59.4224675800    72.4822299500
 1831      H    1486.0796848700    58.5048701900    72.0398786800
 1832      C    1483.5141246800    55.8083946500    74.1266296800
 1833      H    1484.8938559100    54.3372319700    73.9524587300
 1834      H    1482.1845607400    55.3608791600    72.6405457000
 1835      H    1482.6361613700    55.6377532700    75.8979904600
 1836      H    1476.1780739500    60.1447901600    68.5625293000
 1837      C    1477.3430754000    60.6091411200    70.1035428700
 1838      H    1478.6131958000    59.0063811500    70.5175716600
 1839      H    1478.5574875200    62.3119432700    69.7488459300
 1840      C    1475.7989212600    61.1472756600    72.6067746300
 1841      H    1474.5856980800    62.8929802900    72.3055779000
 1842      H    1474.6090826000    59.5161954700    72.7798078300
 1843      C    1477.5428085000    61.4862404400    74.9019746200
 1844      H    1479.0096993600    60.1058095400    75.0431184700
 1845      H    1478.3266164700    63.4438180800    74.7788607300
 1846      C    1476.1948261400    61.3759271700    77.7009801800
 1847      H    1474.6901598600    62.5916387300    77.3064647200
 1848      H    1475.4879521100    59.6172056100    78.2052414100
 1849      C    1478.1379165400    62.3065030200    79.6839394800
 1850      H    1479.9125522500    61.2607484900    79.6866886400
 1851      H    1478.9620291500    64.0481648000    79.0130573400
 1852      C    1477.2473871200    62.5085207200    82.5176533900
 1853      H    1476.8801970200    60.6530434600    83.3338441300
 1854      H    1478.7819981600    63.3561363400    83.6886488500
 1855      C    1474.7654090700    64.0568305900    82.8822645700
 1856      H    1474.8414379300    65.7376229600    81.6726037100
 1857      H    1473.1675165100    63.0769980300    81.9641839200
 1858      C    1474.0997642500    64.7702504100    85.6102698500
 1859      H    1472.2199030400    65.6067399000    85.7361533200
 1860      H    1474.1270472400    63.0216724400    86.8349571900
 1861      C    1475.9804732600    66.9354307900    86.5828749900
 1862      H    1477.9525122700    66.4126635300    86.2303108200
 1863      H    1475.9300365600    68.7406177000    85.6490238300
 1864      C    1475.7927491700    67.1389941100    89.3680144800
 1865      H    1473.7840931400    67.0665443100    89.7917343900
 1866      H    1476.2207501500    65.3044264200    90.2790966700
 1867      C    1476.9576193300    69.4974188000    90.5169565900
 1868      H    1478.9811563900    69.4272262700    90.2500278500
 1869      H    1476.0974536800    71.2049204900    89.6418404700
 1870      C    1476.5143946400    69.4804823400    93.3897836900
 1871      H    1477.1828533100    71.2797182000    94.2685340600
 1872      H    1477.3992853900    67.9654317500    94.2004997100
 1873      H    1474.4753176000    69.2427018500    93.7771882600
 1874      H    1476.1366341200    89.6943201900    59.4245055500
 1875      C    1476.6716062300    88.4980656500    57.9025506700
 1876      H    1475.7345066900    88.9310785100    56.0907319300
 1877      H    1478.6612072700    88.9988400200    57.3904998600
 1878      C    1476.4268492500    85.6355384000    58.6375053000
 1879      H    1477.1349375600    85.3275105200    60.5003814100
 1880      H    1474.4463250400    85.2171015500    58.4742792300
 1881      C    1477.9753551900    84.1030442900    56.7844674000
 1882      H    1477.6667964700    84.6864779800    54.9108895900
 1883      H    1479.9765466500    84.3869626400    57.3050813000
 1884      C    1477.6674069300    81.1516119600    56.6775167400
 1885      H    1477.6446951000    80.3823183900    58.6140473900
 1886      H    1475.7537739100    80.9811189500    56.0037216100
 1887      C    1479.6199193300    79.8595734700    54.7339204200
 1888      H    1479.6131622300    80.7897940700    53.0737940500
 1889      H    1481.5012624700    79.8164212400    55.7062679000
 1890      C    1479.0855901300    77.0442901500    54.4641102500
 1891      H    1478.3297842800    75.8702589500    56.0691764200
 1892      H    1477.4359804400    76.9586795300    53.0920253900
 1893      C    1481.3728893700    75.5747527700    53.3569479800
 1894      H    1482.3355549200    76.7200499100    51.9560713200
 1895      H    1482.7733259900    75.1665165400    54.6459438500
 1896      C    1480.6361049800    73.0198561600    52.1197080100
 1897      H    1479.7193525500    71.6588154500    53.4705444900
 1898      H    1479.2627911400    73.3403194000    50.6106859500
 1899      C    1482.8690412900    71.7794936700    50.8170161500
 1900      H    1483.8609041400    73.0819846300    49.5391930800
 1901      H    1484.4817789900    71.0492140900    51.8326133200
 1902      C    1481.9823280100    69.3236851700    49.5288337300
 1903      H    1481.5235370100    67.9846967000    50.9707401700
 1904      H    1480.3653113500    69.8214942100    48.3331894800
 1905      C    1483.8583920500    67.9534471900    47.7720346500
 1906      H    1484.6173105100    69.0491276300    46.2506309000
 1907      H    1485.4487539200    67.4755591800    48.9411727200
 1908      C    1482.6928609600    65.4372807600    46.8290157900
 1909      H    1480.7807323200    65.8159391300    46.0253691200
 1910      H    1482.5250177700    64.1090142000    48.3135511600
 1911      H    1483.9749558700    64.5865527800    45.4504676300
 ----------------------------------------------------------------
 Nuclear Repulsion Energy =           0.00000000 hartrees
 There are       48 alpha and       48 beta electrons
 Total job time:  29.21s(wall), 26.61s(cpu) 
 Sun Jul  3 09:42:34 2022

        *************************************************************
        *                                                           *
        *  Thank you very much for using Q-Chem.  Have a nice day.  *
        *                                                           *
        *************************************************************


