                  Welcome to Q-Chem
     A Quantum Leap Into The Future Of Chemistry


 Q-Chem 5.4 (devel), Q-Chem, Inc., Pleasanton, CA (2021)

 E. Epifanovsky,  A. T. B. Gilbert,  Xintian Feng,  Joonho Lee,  Yuezhi Mao,  
 N. Mardirossian,  P. Pokhilko,  A. White,  M. Wormit,  M. P. Coons,  
 A. L. Dempwolff,  Zhengting Gan,  D. Hait,  P. R. Horn,  L. D. Jacobson,  
 I. Kaliman,  J. Kussmann,  A. W. Lange,  Ka Un Lao,  D. S. Levine,  Jie Liu,  
 S. C. McKenzie,  A. F. Morrison,  K. Nanda,  F. Plasser,  D. R. Rehn,  
 M. L. Vidal,  Zhi-Qiang You,  Ying Zhu,  B. Alam,  B. Albrecht,  
 A. Aldossary,  E. Alguire,  J. H. Andersen,  D. Barton,  K. Begam,  A. Behn,  
 Y. A. Bernard,  E. J. Berquist,  H. Burton,  A. Carreras,  K. Carter-Fenk,  
 R. Chakraborty,  A. D. Chien,  K. D. Closser,  V. Cofer-Shabica,  
 S. Dasgupta,  Jia Deng,  M. de Wergifosse,  M. Diedenhofen,  Hainam Do,  
 S. Ehlert,  Po-Tung Fang,  S. Fatehi,  Qingguo Feng,  T. Friedhoff,  
 J. Gayvert,  Qinghui Ge,  G. Gidofalvi,  M. Goldey,  J. Gomes,  
 C. Gonzalez-Espinoza,  S. Gulania,  A. Gunina,  M. W. D. Hanson-Heine,  
 P. H. P. Harbach,  A. W. Hauser,  M. F. Herbst,  M. Hernandez Vera,  
 M. Hodecker,  Z. C. Holden,  S. Houck,  Xunkun Huang,  Kerwin Hui,  
 B. C. Huynh,  M. Ivanov,  Hyunjun Ji,  Hanjie Jiang,  B. Kaduk,  S. Kaehler,  
 K. Khistyaev,  Jaehoon Kim,  P. Klunzinger,  Z. Koczor-Benda,  
 Joong Hoon Koh,  D. Kosenkov,  L. Koulias,  T. Kowalczyk,  C. M. Krauter,  
 K. Kue,  A. Kunitsa,  T. Kus,  A. Landau,  K. V. Lawler,  D. Lefrancois,  
 S. Lehtola,  Rain Li,  Yi-Pei Li,  Jiashu Liang,  M. Liebenthal,  
 Hung-Hsuan Lin,  You-Sheng Lin,  Fenglai Liu,  Kuan-Yu Liu,  
 M. Loipersberger,  A. Luenser,  A. Manjanath,  P. Manohar,  E. Mansoor,  
 S. F. Manzer,  Shan-Ping Mao,  A. V. Marenich,  T. Markovich,  S. Mason,  
 S. A. Maurer,  P. F. McLaughlin,  M. F. S. J. Menger,  J.-M. Mewes,  
 S. A. Mewes,  P. Morgante,  J. W. Mullinax,  K. J. Oosterbaan,  G. Paran,  
 Alexander C. Paul,  Suranjan K. Paul,  F. Pavosevic,  Zheng Pei,  S. Prager,  
 E. I. Proynov,  E. Ramos,  B. Rana,  A. E. Rask,  A. Rettig,  R. M. Richard,  
 F. Rob,  E. Rossomme,  T. Scheele,  M. Scheurer,  M. Schneider,  
 N. Sergueev,  S. M. Sharada,  W. Skomorowski,  D. W. Small,  C. J. Stein,  
 Yu-Chuan Su,  E. J. Sundstrom,  Zhen Tao,  J. Thirman,  T. Tsuchimochi,  
 N. M. Tubman,  S. P. Veccham,  O. Vydrov,  J. Wenzel,  J. Witte,  A. Yamada,  
 Kun Yao,  S. Yeganeh,  S. R. Yost,  A. Zech,  Igor Ying Zhang,  Xing Zhang,  
 Yu Zhang,  D. Zuev,  A. Aspuru-Guzik,  A. T. Bell,  N. A. Besley,  
 K. B. Bravaya,  B. R. Brooks,  D. Casanova,  Jeng-Da Chai,  S. Coriani,  
 C. J. Cramer,  A. E. DePrince, III,  R. A. DiStasio Jr.,  A. Dreuw,  
 B. D. Dunietz,  T. R. Furlani,  W. A. Goddard III,  S. Grimme,  
 S. Hammes-Schiffer,  T. Head-Gordon,  W. J. Hehre,  Chao-Ping Hsu,  
 T.-C. Jagau,  Yousung Jung,  A. Klamt,  Jing Kong,  D. S. Lambrecht,  
 WanZhen Liang,  N. J. Mayhall,  C. W. McCurdy,  J. B. Neaton,  
 C. Ochsenfeld,  J. A. Parkhill,  R. Peverati,  V. A. Rassolov,  Yihan Shao,  
 L. V. Slipchenko,  T. Stauch,  R. P. Steele,  J. E. Subotnik,  
 A. J. W. Thom,  A. Tkatchenko,  D. G. Truhlar,  T. Van Voorhis,  
 T. A. Wesolowski,  K. B. Whaley,  H. L. Woodcock III,  P. M. Zimmerman,  
 S. Faraji,  P. M. W. Gill,  M. Head-Gordon,  J. M. Herbert,  A. I. Krylov

 Additional authors for Version 5.4.1: 
 S. Kotaru,  Shaozhi Li,  Xiangyuan Li,  F. Matz,  A. Molle,  Haisheng Ren,  
 Yingli Su,  Hung-Yi Tsai,  C. Utku,  Fang Wang

 Contributors to earlier versions of Q-Chem not listed above: 
 R. D. Adamson,  B. Austin,  R. Baer,  J. Baker,  G. J. O. Beran,  
 K. Brandhorst,  S. T. Brown,  E. F. C. Byrd,  A. K. Chakraborty,  
 G. K. L. Chan,  Chun-Min Chang,  Yunqing Chen,  C.-L. Cheng,  
 Siu Hung Chien,  D. M. Chipman,  D. L. Crittenden,  H. Dachsel,  
 R. J. Doerksen,  A. D. Dutoi,  R. G. Edgar,  J. Fosso-Tande,  
 L. Fusti-Molnar,  D. Ghosh,  A. Ghysels,  A. Golubeva-Zadorozhnaya,  
 J. Gonthier,  M. S. Gordon,  S. R. Gwaltney,  G. Hawkins,  J. E. Herr,  
 A. Heyden,  S. Hirata,  E. G. Hohenstein,  G. Kedziora,  F. J. Keil,  
 C. Kelley,  Jihan Kim,  R. A. King,  R. Z. Khaliullin,  P. P. Korambath,  
 W. Kurlancheek,  A. Laurent,  A. M. Lee,  M. S. Lee,  S. V. Levchenko,  
 Ching Yeh Lin,  D. Liotard,  E. Livshits,  R. C. Lochan,  I. Lotan,  
 L. A. Martinez-Martinez,  P. E. Maslen,  N. Nair,  D. P. O'Neill,  
 D. Neuhauser,  E. Neuscamman,  C. M. Oana,  R. Olivares-Amaya,  R. Olson,  
 T. M. Perrine,  B. Peters,  P. A. Pieniazek,  A. Prociuk,  Y. M. Rhee,  
 J. Ritchie,  M. A. Rohrdanz,  E. Rosta,  N. J. Russ,  H. F. Schaefer III,  
 M. W. Schmidt,  N. E. Schultz,  S. Sharma,  N. Shenvi,  C. D. Sherrill,  
 A. C. Simmonett,  A. Sodt,  T. Stein,  D. Stuck,  K. S. Thanthiriwatte,  
 V. Vanovschi,  L. Vogt,  Tao Wang,  A. Warshel,  M. A. Watson,  
 C. F. Williams,  Q. Wu,  X. Xu,  Jun Yang,  W. Zhang,  Yan Zhao

 Please cite Q-Chem as follows:
 Y. Shao et al., Mol. Phys. 113, 184-215 (2015)
 DOI: 10.1080/00268976.2014.952696

 Q-Chem 5.4.1 for Intel X86 EM64T Linux

 Parts of Q-Chem use Armadillo 9.900.5 (Nocturnal Misbehaviour).
 http://arma.sourceforge.net/

 Q-Chem begins on Wed Jun 22 16:41:23 2022  

 Host: p09r14n13.grace.hpc.yale.internal
0

     Scratch files written to /home/tl686/scratch60/qchem_dev/scratch/qchem247020//
 Processing $rem in /home/tl686/qchem_dev/qchem/config/preferences:
 Processing $rem in /home/tl686/.qchemrc:
Applying user defined connections for MM calculations

 Checking the input file for inconsistencies... 	...done.

--------------------------------------------------------------
User input:
--------------------------------------------------------------
$molecule
0   1
 Fe -633.68119362 -47.06052099 -27.19767034    -1  0   0   0   0
C -633.25154416 -50.46095090 -27.77408982    -2  0   0   0   0 
C -633.62405742 -43.65094484 -26.42288366    -2  0   0   0   0
C -634.79543261 -46.51010069 -30.27479592    -2  0   0   0   0
C -636.01315072 -47.78237503 -24.80339696    -2  0   0   0   0
C -630.21289161 -46.82069153 -26.31840515    -2  0   0   0   0
O -632.95865177 -52.59785248 -27.96474850    -3  0   0   0   0
O -633.41503664 -41.58178434 -25.79600050    -3  0   0   0   0 
O -635.76198129 -45.97636090 -32.25248946    -3  0   0   0   0
O -637.73968854 -47.96888390 -23.27085988    -3  0   0   0   0 
O -628.19752699 -46.64960924 -25.76269150    -3  0   0   0   0
H -642.41520475 -67.12446021 -52.05618178      6     13    0    0    0 
C -640.61529075 -67.23947512 -51.19262700     1     12    14    15    16
H -639.36749108 -68.48366287 -52.10334972     6     13    0    0    0
H -639.78677761 -65.30119261 -51.47267592     6     13    0    0    0
C -640.63441278 -68.18088775 -48.42714765     2     13    17    18    19
H -641.02021481 -70.25228685 -48.24474258     6     16    0    0    0
H -638.71526158 -68.00137178 -47.62677917     6     16    0    0    0
C -642.45178782 -66.68370403 -46.80241938     2     16    20   21   22
H -641.81592298 -64.74769661 -46.90010246     6     19    0    0    0
H -644.25198423 -66.38946863 -47.71825706     6     19    0    0    0
C -642.96312695 -67.73054960 -44.11578194     2     19   23   24   25
H -643.30512842 -69.81167007 -44.39231232     6    22    0    0    0
H -641.28854238 -67.61757169 -42.83310317     6    22    0    0    0
C -645.27086886 -66.49885140 -42.97977178     2    22   26   27   28
H -645.16938176 -64.54181775 -42.67574594     6    25    0    0    0
H -646.77599389 -66.98415586 -44.34873954     6    25    0    0    0
C -645.67390124 -67.63600970 -40.38278367     2    25   29   30   31
H -645.42965642 -69.69766362 -40.44901398     6    28    0    0    0
H -644.12115168 -67.06483890 -39.21073285     6    28    0    0    0
C -648.28358847 -66.68027505 -39.26162581     2    28   32   33   34
H -648.22324636 -64.67451270 -38.91003470     6    31    0    0    0
H -649.88344111 -66.80110539 -40.54573607     6    31    0    0    0
C -648.87645810 -68.33033143 -36.98903955     2    31   35   36   37
H -648.88374387 -70.21573529 -37.53976775     6    34    0    0    0
H -647.40496865 -68.19774004 -35.61014292     6    34    0    0    0
C -651.21552225 -67.34847400 -35.58899375     2    34   38   39   40
H -650.97195113 -65.43902779 -35.09789986     6    37    0    0    0
H -652.79772278 -67.43640888 -36.92819181     6    37    0    0    0
C -651.67807176 -68.85035593 -33.24815486     2    37   41   42   43
H -651.66243376 -70.74544950 -33.87869370     6    40    0    0    0
H -649.92706313 -68.57053153 -32.18622418     6    40    0    0    0
C -654.23888959 -68.18646810 -31.80951648     2    40   44   45   46
H -654.22751212 -66.18909370 -31.52779043     6    43    0    0    0
H -656.03182649 -68.62829794 -32.86684683     6    43    0    0    0
C -654.33373350 -69.15722345 -29.09743272     1    43   47   48   49
H -655.45012952 -70.84758830 -29.00246139     6    46    0    0    0
H -655.32606950 -68.06936612 -27.64899105     6    46    0    0    0
H -652.56886583 -69.57487729 -28.31673904     6    46    0    0    0
H -638.29739432 -55.53836526 -22.69651471     6     51    0    0    0 
C -640.20683059 -55.96289751 -22.97100729     1     50    52    53    54
H -640.70954154 -57.11378949 -21.38756039     6     51    0    0    0
H -641.21085931 -54.15322281 -23.02464278     6     51    0    0    0
C -640.35870017 -57.67324280 -25.27651387     2     51    55    56    57
H -639.19600122 -56.79495989 -26.79735208     6     54    0    0    0
H -639.49873498 -59.33684353 -24.58203158     6     54    0    0    0
C -643.05442495 -58.16120677 -26.26635079     2     54    58   59   60
H -644.01997748 -56.25465697 -26.49596583     6     57    0    0    0
H -642.86311625 -58.87971330 -28.08924499     6     57    0    0    0
C -644.81058544 -59.79554954 -24.51888999     2     57   61   62   63
H -643.84233230 -61.59433897 -24.31409927     6    60    0    0    0
H -644.90904826 -58.95451912 -22.60851530     6    60    0    0    0
C -647.58442043 -60.22919263 -25.34509808     2    60   64   65   66
H -648.82251456 -58.59687142 -25.31122860     6    63    0    0    0
H -647.68509839 -60.76916066 -27.29112595     6    63    0    0    0
C -648.90593346 -62.33271678 -23.67961268     2    63   67   68   69
H -650.70194456 -62.86861922 -24.51370817     6    66    0    0    0
H -647.68544823 -64.11974550 -23.75095646     6    66    0    0    0
C -649.24444342 -61.43637161 -20.87994128     2    66   70   71   72
H -647.45012448 -60.71013660 -20.24092996     6    69    0    0    0
H -650.56282151 -59.86200655 -21.06250071     6    69    0    0    0
C -650.36258837 -63.38210663 -19.15192943     2    69   73   74   75
H -652.17553397 -63.74191974 -20.08748839     6    72    0    0    0
H -649.43650867 -65.12586077 -19.17689055     6    72    0    0    0
C -650.59449251 -62.55080979 -16.46178058     2    72   76   77   78
H -648.71716590 -62.04233442 -15.87746457     6    75    0    0    0
H -651.71455287 -60.79788405 -16.42231352     6    75    0    0    0
C -651.82091844 -64.43647262 -14.60438971     2    75   79   80   81
H -653.87055551 -64.53490435 -14.68493573     6    78    0    0    0
H -651.19176015 -66.18706375 -15.57764981     6    78    0    0    0
C -650.91498518 -64.27088225 -11.94256234     2    78   82   83   84
H -648.85878022 -64.27549331 -11.84805112     6    81    0    0    0
H -651.58950338 -62.44817196 -11.08181168     6    81    0    0    0
C -652.08308190 -66.41708692 -10.28545473     1    81   85   86   87
H -651.79315064 -66.13956611 -8.25478255     6    84    0    0    0
H -651.36429586 -68.30514931 -10.87110992     6    84    0    0    0
H -654.09740047 -66.42194727 -10.31766004     6    84    0    0    0
H -656.93038052 -44.90682129 -48.93866617     6     89    0    0    0 
C -658.43492455 -45.87690405 -47.98782081     1     88    90    91    92
H -657.58966677 -46.58841289 -46.23110206     6     89    0    0    0
H -659.68833976 -44.35279759 -47.54331728     6     89    0    0    0
C -659.63298961 -48.02845060 -49.53400976     2     89    93    94    95
H -660.81369774 -46.92301858 -50.76761555     6     92    0    0    0
H -658.26801613 -49.12918398 -50.72316552     6     92    0    0    0
C -661.03409125 -49.85492103 -47.83154680     2     92    96   97   98
H -659.82281905 -50.80047868 -46.41002851     6     95    0    0    0
H -662.05959094 -48.73003699 -46.50048267     6     95    0    0    0
C -662.73747208 -51.67821205 -49.30255170     2     95   99   100   101
H -664.16879721 -50.82426743 -50.57315211     6    98    0    0    0
H -661.49649458 -52.80390689 -50.56864104     6    98    0    0    0
C -664.13259789 -53.62433970 -47.54803042     2    98   102   103   104
H -665.02622103 -52.55111976 -45.95768212     6    101    0    0    0
H -665.69436253 -54.50054641 -48.46063832     6    101    0    0    0
C -662.33865454 -55.56507168 -46.37965514     2    101   105   106   107
H -661.45801743 -56.49292277 -48.07493349     6    104    0    0    0
H -661.20662148 -54.53744309 -44.92219622     6    104    0    0    0
C -663.82684059 -57.72459418 -44.97500000     2    104   108   109   110
H -665.14829479 -57.00915732 -43.49631317     6    107    0    0    0
H -664.88942318 -58.76833668 -46.51684494     6    107    0    0    0
C -662.21260055 -59.64458933 -43.52089599     2    107   111   112   113
H -660.47189417 -60.25066992 -44.56427674     6    110    0    0    0
H -661.25881522 -58.82498856 -41.90279043     6    110    0    0    0
C -663.59827879 -61.86459033 -42.46822822     2    110   114   115   116
H -665.22762596 -61.21369524 -41.35421654     6    113    0    0    0
H -664.48482006 -62.85558081 -44.07964974     6    113    0    0    0
C -662.16971735 -63.87497161 -41.00102399     2    113   117   118   119
H -660.76544745 -64.46473610 -42.16187189     6    116    0    0    0
H -661.15605768 -62.98001193 -39.51483858     6    116    0    0    0
C -663.97931604 -65.98306328 -39.87503041     2    116   120   121   122
H -665.44276608 -65.10314496 -38.81162467     6    119    0    0    0
H -664.88599659 -66.87809785 -41.54551354     6    119    0    0    0
C -662.89726532 -68.02839023 -38.16573850     1    119   123   124   125
H -664.55252486 -69.07229538 -37.36631401     6    122    0    0    0
H -661.76572572 -67.33314898 -36.59876810     6    122    0    0    0
H -661.60731300 -69.27599742 -39.11549802     6    122    0    0    0
H -652.90460819 -43.23591824 -48.63730979     6     127    0    0    0 
C -651.93970536 -41.35222838 -48.40696791     1     126    128    129    130
H -651.55375334 -40.38300471 -50.21484747     6     127    0    0    0
H -653.07306418 -40.14047785 -47.40172692     6     127    0    0    0
C -649.40735351 -41.61805807 -47.24087752     2     127    131    132    133
H -649.91424930 -42.30773464 -45.31567978     6     130    0    0    0
H -648.21500407 -43.08360804 -48.29796644     6     130    0    0    0
C -648.03560676 -39.22688335 -46.94141869     2     130    134   135   136
H -647.33878363 -38.56177391 -48.75145612     6     133    0    0    0
H -649.27019874 -37.69618031 -46.09989114     6     133    0    0    0
C -645.41919757 -39.80727124 -45.56353138     2     133   137   138   139
H -645.91440202 -40.89352893 -43.91858124     6    136    0    0    0
H -644.31693220 -40.91438777 -46.93621788     6    136    0    0    0
C -643.65853730 -37.56279845 -44.87714546     2    136   140   141   142
H -643.02344835 -36.84697055 -46.73393527     6    139    0    0    0
H -644.82850672 -36.24376646 -44.00234150     6    139    0    0    0
C -641.29829915 -38.28735134 -43.33751772     2    139   143   144   145
H -641.68358175 -39.27892866 -41.56576833     6    142    0    0    0
H -640.13085040 -39.57629552 -44.37166066     6    142    0    0    0
C -639.74975006 -36.11179594 -42.40385625     2    142   146   147   148
H -639.58514998 -34.60031038 -43.90912467     6    145    0    0    0
H -640.61941397 -35.26242041 -40.85214143     6    145    0    0    0
C -636.97092672 -36.95141609 -41.41290256     2    145   149   150   151
H -637.19760381 -38.12736377 -39.71994277     6    148    0    0    0
H -636.15121787 -38.30617288 -42.86657481     6    148    0    0    0
C -635.30752685 -34.68283353 -40.80270650     2    148   152   153   154
H -635.01797601 -33.35430391 -42.41054831     6    151    0    0    0
H -636.05535197 -33.73745069 -39.15543531     6    151    0    0    0
C -632.50038668 -35.46593755 -40.22376415     2    151   155   156   157
H -631.51575733 -33.68527099 -39.69306392     6    154    0    0    0
H -632.31477751 -36.78252255 -38.66701356     6    154    0    0    0
C -630.92531626 -36.44875990 -42.35317224     2    154   158   159   160
H -631.61813346 -38.32949542 -42.68939740     6    157    0    0    0
H -630.99588942 -35.22323244 -44.10274051     6    157    0    0    0
C -628.12624597 -36.43169715 -41.39026824     1    157   161   162   163
H -627.42236027 -34.40982069 -40.74008486     6    160    0    0    0
H -626.74265491 -36.92371952 -42.99935496     6    160    0    0    0
H -627.93868514 -37.86370793 -39.92875531     6    160    0    0    0
H -661.31627221 -39.98081452 -46.67039487     6     165    0    0    0 
C -661.62298480 -39.31170681 -44.71965798     1     164    166    167    168
H -663.63014401 -38.88332206 -44.59564815     6     165    0    0    0
H -660.80903598 -40.71030768 -43.57532494     6     165    0    0    0
C -660.09379126 -36.94862338 -44.39412494     2     165    169    170    171
H -658.10972452 -37.23442825 -44.42167983     6     168    0    0    0
H -660.37210487 -35.69387090 -46.08391754     6     168    0    0    0
C -660.68441920 -35.37399786 -42.02047255     2     168    172   173   174
H -662.66865439 -34.83603598 -41.83634541     6     171    0    0    0
H -660.43525621 -36.80830650 -40.41485469     6     171    0    0    0
C -659.04813059 -32.95758152 -41.88074182     2     171   175   176   177
H -657.09166049 -33.41495666 -42.05246472     6    174    0    0    0
H -659.67081778 -31.74190925 -43.61084198     6    174    0    0    0
C -659.45024376 -31.28358891 -39.56638002     2    174   178   179   180
H -661.47020810 -30.69008224 -39.67872903     6    177    0    0    0
H -659.30366868 -32.42773805 -37.82556468     6    177    0    0    0
C -657.47006321 -29.26655852 -39.31785608     2    177   181   182   183
H -655.70509910 -30.22787863 -39.40531780     6    180    0    0    0
H -657.60815532 -28.03143961 -40.99088818     6    180    0    0    0
C -657.45248558 -27.61009527 -36.78430690     2    180   184   185   186
H -659.29434745 -26.58527491 -36.79730324     6    183    0    0    0
H -657.44858635 -28.80146625 -34.99901325     6    183    0    0    0
C -655.21925640 -25.71695260 -36.81264383     2    183   187   188   189
H -653.38729342 -26.63230082 -36.30589952     6    186    0    0    0
H -655.09667649 -24.93004282 -38.65776810     6    186    0    0    0
C -655.48391088 -23.60210424 -34.79233723     2    186   190   191   192
H -657.37616234 -23.04778811 -34.89771220     6    189    0    0    0
H -655.05416581 -24.47011161 -32.98966338     6    189    0    0    0
C -653.67637219 -21.30755107 -35.28246488     2    189   193   194   195
H -651.74207787 -21.99150769 -35.24786943     6    192    0    0    0
H -653.85184469 -20.63119893 -37.25625626     6    192    0    0    0
C -654.12384532 -19.12283497 -33.43140351     2    192   196   197   198
H -656.28129733 -18.82671945 -33.30158408     6    195    0    0    0
H -653.67440752 -19.65734997 -31.53356335     6    195    0    0    0
C -652.70442719 -16.69975457 -34.19487471     1    195   199   200   201
H -651.93534090 -15.89058403 -32.37224827     6    198    0    0    0
H -654.30120540 -15.60601548 -35.14744530     6    198    0    0    0
H -651.21753716 -16.92877057 -35.43621530     6    198    0    0    0
H -662.64003195 -41.40889764 -17.93093940     6     203    0    0    0 
C -662.41181662 -39.86710911 -19.31279123     1     202    204    205    206
H -661.11790385 -40.80489294 -20.51483499     6     203    0    0    0
H -664.21739864 -39.49252240 -20.27650985     6     203    0    0    0
C -661.35757315 -37.36377560 -18.41359902     2     203    207    208    209
H -659.70910706 -37.46404510 -17.41381397     6     206    0    0    0
H -661.03374868 -36.26076941 -20.22449594     6     206    0    0    0
C -663.04294357 -35.56077096 -16.73841289     2     206    210   211   212
H -662.41558575 -33.62358137 -17.21191324     6     209    0    0    0
H -665.03102426 -35.33466550 -17.33740148     6     209    0    0    0
C -662.82686267 -36.03200966 -13.80931668     2     209   213   214   215
H -664.17653848 -37.55834208 -13.57422208     6    212    0    0    0
H -660.87637163 -36.51908385 -13.38594861     6    212    0    0    0
C -663.54161116 -33.64842189 -12.30249589     2    212   216   217   218
H -662.58957570 -32.01407489 -12.93987678     6    215    0    0    0
H -665.46056272 -33.14747500 -12.64384382     6    215    0    0    0
C -662.96343451 -33.96334517 -9.50781811     2    215   219   220   221
H -663.88165976 -35.75206506 -8.93798336     6    218    0    0    0
H -660.97393337 -34.15797378 -9.09714811     6    218    0    0    0
C -664.41333668 -31.98907904 -8.06269112     2    218   222   223   224
H -663.49673250 -30.23022615 -8.48010636     6    221    0    0    0
H -666.31220448 -31.86434319 -8.74496997     6    221    0    0    0
C -664.49297405 -32.51325035 -5.13212979     2    221   225   226   227
H -665.11545243 -34.38053814 -4.62946022     6    224    0    0    0
H -662.71700969 -32.18356535 -4.35578431     6    224    0    0    0
C -666.15917176 -30.78255899 -3.74120508     2    224   228   229   230
H -665.66648831 -28.84279206 -4.32125839     6    227    0    0    0
H -668.15066741 -31.02440164 -4.45828866     6    227    0    0    0
C -665.70431059 -31.18638054 -0.92142667     2    227   231   232   233
H -665.87427532 -33.13452185 -0.54959356     6    230    0    0    0
H -663.78369292 -30.56476459 -0.28615883     6    230    0    0    0
C -667.58098807 -29.86494818 0.89058217     2    230   234   235   236
H -667.02691014 -27.95931090 1.03504723     6    233    0    0    0
H -669.52753022 -29.89398789 0.03229895     6    233    0    0    0
C -667.52837034 -31.12526567 3.57645702     1    233   237   238   239
H -668.58635077 -30.06861903 5.04216035     6    236    0    0    0
H -665.65664584 -31.30536017 4.17089382     6    236    0    0    0
H -668.20512354 -33.02920297 3.34974473     6    236    0    0    0
H -665.48218520 -58.99485528 -19.41170214     6     241    0    0    0 
C -665.91710149 -60.93641084 -20.35444110     1     240    242    243    244
H -667.78520946 -61.41444963 -19.87065353     6     241    0    0    0
H -665.55240160 -60.58655440 -22.26487593     6     241    0    0    0
C -664.14884448 -63.04920599 -19.33014770     2     241    245    246    247
H -664.45382176 -63.15465088 -17.27556001     6     244    0    0    0
H -664.48912219 -64.86417596 -20.33435436     6     244    0    0    0
C -661.45680405 -62.36247849 -19.88268517     2     244    248   249   250
H -660.95006272 -62.43945837 -21.88956147     6     247    0    0    0
H -660.80568038 -60.51531472 -19.27924111     6     247    0    0    0
C -659.55986789 -64.03279395 -18.54334509     2     247   251   252   253
H -657.59269941 -63.57017649 -19.07783849     6    250    0    0    0
H -659.46237549 -63.49979491 -16.66349756     6    250    0    0    0
C -660.16934772 -66.91545082 -18.90255456     2    250   254   255   256
H -662.08668284 -67.57810088 -18.37084325     6    253    0    0    0
H -659.97438684 -67.31048257 -20.91356522     6    253    0    0    0
C -658.11243344 -68.61176940 -17.60469852     2    253   257   258   259
H -657.78338603 -70.18428639 -18.98646865     6    256    0    0    0
H -656.41457091 -67.53941928 -17.25344034     6    256    0    0    0
C -659.23738911 -69.67915166 -15.12096829     2    256   260   261   262
H -659.85729207 -68.23526251 -14.00786575     6    259    0    0    0
H -661.09235005 -70.68163054 -15.07615669     6    259    0    0    0
C -657.10563286 -70.86570880 -13.35760624     2    259   263   264   265
H -655.58726641 -69.41361877 -13.34607999     6    262    0    0    0
H -657.99652276 -70.78568152 -11.62296154     6    262    0    0    0
C -655.86691947 -73.34332968 -14.13866018     2    262   266   267   268
H -657.35272116 -74.61515141 -14.33193853     6    265    0    0    0
H -654.94616660 -73.02526456 -15.92055350     6    265    0    0    0
C -653.86160391 -74.41152797 -12.27304007     2    265   269   270   271
H -652.21398386 -73.10730313 -12.16625660     6    268    0    0    0
H -654.58195596 -74.56396167 -10.41964577     6    268    0    0    0
C -652.94166917 -77.18215700 -12.99195120     2    268   272   273   274
H -654.47132475 -78.56973277 -13.57312463     6    271    0    0    0
H -651.75363679 -77.08642660 -14.59770509     6    271    0    0    0
C -651.42791822 -78.18236143 -10.62538760     1    271   275   276   277
H -649.67377130 -77.23714153 -10.34163429     6    274    0    0    0
H -650.74445554 -80.14857628 -10.77402771     6    274    0    0    0
H -652.41027895 -77.97523241 -8.84492026     6    274    0    0    0
H -665.96497074 -49.88969172 -28.83032029     6     279    0    0    0 
C -666.30445378 -50.72111101 -27.01777903     1     278    280    281    282
H -668.30557662 -51.23199794 -26.83641046     6     279    0    0    0
H -665.35378427 -52.61869884 -27.04034539     6     279    0    0    0
C -665.41783314 -49.36490117 -24.39951051     2     279    283    284    285
H -663.64316624 -48.31901794 -24.80998991     6     282    0    0    0
H -666.79878969 -47.89068643 -24.03988469     6     282    0    0    0
C -665.15777324 -51.17429418 -22.12733413     2     282    286   287   288
H -666.94420936 -52.08308459 -21.70940905     6     285    0    0    0
H -663.68496970 -52.69589590 -22.31823304     6     285    0    0    0
C -664.22273038 -49.94083127 -19.57405564     2     285   289   290   291
H -662.29255229 -49.33395233 -19.69856799     6    288    0    0    0
H -665.48800371 -48.34763630 -19.18963803     6    288    0    0    0
C -664.48308124 -51.84235202 -17.42109449     2    288   292   293   294
H -666.49826887 -52.23779422 -17.10118796     6    291    0    0    0
H -663.41474143 -53.49365239 -17.81026071     6    291    0    0    0
C -663.75304007 -50.49573868 -14.98002329     2    291   295   296   297
H -661.93351051 -49.68539894 -15.18244061     6    294    0    0    0
H -664.88241250 -48.72026009 -14.71054378     6    294    0    0    0
C -663.75307147 -52.18288276 -12.54012797     2    294   298   299   300
H -665.67563173 -52.46038203 -11.83918224     6    297    0    0    0
H -662.98561878 -54.00875211 -13.11421356     6    297    0    0    0
C -662.26228952 -50.96374597 -10.39459095     2    297   301   302   303
H -660.35017783 -50.90423300 -11.01078704     6    300    0    0    0
H -663.05403804 -49.11376909 -9.77726587     6    300    0    0    0
C -662.38533243 -52.77681147 -8.13324860     2    300   304   305   306
H -664.26497050 -52.51346410 -7.29229802     6    303    0    0    0
H -662.37861654 -54.67387834 -8.83534377     6    303    0    0    0
C -660.26331290 -52.45089498 -6.22711904     2    303   307   308   309
H -658.51542382 -52.78338120 -7.10365784     6    306    0    0    0
H -660.41117419 -50.42339665 -5.61695717     6    306    0    0    0
C -660.40654658 -53.89942857 -3.70102176     2    306   310   311   312
H -662.36909196 -53.65572335 -3.09168171     6    309    0    0    0
H -659.84477254 -55.87293698 -3.98627327     6    309    0    0    0
C -658.90116721 -52.90166931 -1.36815337     1    309   313   314   315
H -659.13058175 -54.29951989 0.27985324     6    312    0    0    0
H -659.49382985 -51.05131209 -0.83801774     6    312    0    0    0
H -657.00018255 -52.79879447 -1.93092066     6    312    0    0    0
H -653.30907019 -52.09922668 -45.18796936     6     317    0    0    0 
C -651.81199007 -51.44903509 -46.43519177     1     316    318    319    320
H -650.26310702 -52.79036693 -46.15720613     6     317    0    0    0
H -652.43220593 -51.62654390 -48.37464436     6     317    0    0    0
C -651.37156182 -48.62673808 -45.71810965     2     317    321    322    323
H -650.38280965 -47.73988290 -47.26389013     6     320    0    0    0
H -653.21068485 -47.66672801 -45.64923883     6     320    0    0    0
C -650.15222181 -48.14245425 -43.10277361     2     320    324   325   326
H -650.34015355 -46.17064328 -42.69219561     6     323    0    0    0
H -651.27133630 -49.23786260 -41.69456791     6     323    0    0    0
C -647.27410861 -48.80693492 -42.85945617     2     323   327   328   329
H -646.78142094 -48.52789037 -40.79889954     6    326    0    0    0
H -646.87549257 -50.87350367 -43.36183993     6    326    0    0    0
C -645.36570435 -47.13337153 -44.08944138     2    326   330   331   332
H -645.76259653 -47.02149919 -46.19409810     6    329    0    0    0
H -645.69577647 -45.22985505 -43.32039519     6    329    0    0    0
C -642.46942044 -47.98432785 -43.56090313     2    329   333   334   335
H -642.72795527 -49.99032237 -43.04856119     6    332    0    0    0
H -641.45914749 -47.66146303 -45.33634972     6    332    0    0    0
C -641.18843397 -46.90048384 -41.30633987     2    332   336   337   338
H -640.75999819 -44.94936309 -41.76172192     6    335    0    0    0
H -642.49147343 -46.72694482 -39.69253613     6    335    0    0    0
C -638.65515455 -48.22117746 -40.95846573     2    335   339   340   341
H -638.50680083 -50.33952483 -40.83224651     6    338    0    0    0
H -637.48175909 -47.77892477 -42.64403893     6    338    0    0    0
C -637.37829027 -47.25171876 -38.62267280     2    338   342   343   344
H -637.91133960 -45.31963601 -38.05786954     6    341    0    0    0
H -638.15359686 -48.09352563 -36.88790360     6    341    0    0    0
C -634.57231460 -47.21000776 -38.84439649     2    341   345   346   347
H -633.96608397 -47.26029260 -36.93748908     6    344    0    0    0
H -633.85351691 -49.00508682 -39.57481505     6    344    0    0    0
C -633.47218719 -44.89346793 -40.20668371     2    344   348   349   350
H -633.44085329 -45.68402070 -42.26126198     6    347    0    0    0
H -635.03423295 -43.36224146 -40.25150333     6    347    0    0    0
C -630.86003448 -43.91545375 -39.34595578     1    347   351   352   353
H -629.37962240 -45.38858001 -39.45496551     6    350    0    0    0
H -631.14842234 -43.48434011 -37.44290325     6    350    0    0    0
H -630.31561513 -42.29939268 -40.36458747     6    350    0    0    0
H -656.68728429 -59.45199150 -22.81593650     6     355    0    0    0 
C -657.36022285 -57.61949944 -23.44793958     1     354    356    357    358
H -659.19525993 -57.34966306 -22.69617095     6     355    0    0    0
H -656.38682634 -56.20527464 -22.34241900     6     355    0    0    0
C -657.23539072 -56.94770020 -26.32415530     2     355    359    360    361
H -655.52282970 -57.38126771 -27.17785940     6     358    0    0    0
H -658.56402865 -58.09762394 -27.24283791     6     358    0    0    0
C -657.53016012 -54.13715709 -26.90894297     2     358    362   363   364
H -659.43673687 -53.46816271 -26.39833867     6     361    0    0    0
H -656.20001442 -53.08387645 -25.73708345     6     361    0    0    0
C -657.26577275 -53.26681924 -29.65570007     2     361   365   366   367
H -655.39309800 -53.95285926 -30.30964368     6    364    0    0    0
H -658.63319884 -54.27054385 -30.66610021     6    364    0    0    0
C -657.20530639 -50.33145550 -29.89060666     2    364   368   369   370
H -658.53593225 -49.22398149 -28.77423131     6    367    0    0    0
H -655.35314900 -49.73255186 -29.38836834     6    367    0    0    0
C -657.23814683 -49.62025481 -32.64624830     2    367   371   372   373
H -655.97983673 -50.92432524 -33.46007533     6    370    0    0    0
H -659.04602206 -50.10691977 -33.44331937     6    370    0    0    0
C -656.52015721 -46.87276790 -33.33609027     2    370   374   375   376
H -658.20149595 -45.71576926 -33.00548056     6    373    0    0    0
H -655.10270732 -45.95262267 -32.22827081     6    373    0    0    0
C -656.27576071 -46.56914281 -36.20545223     2    373   377   378   379
H -654.58089146 -47.61780268 -36.69290210     6    376    0    0    0
H -657.71840934 -47.53045608 -37.22583258     6    376    0    0    0
C -656.11111318 -43.83598076 -37.25662868     2    376   380   381   382
H -657.85067643 -42.88167369 -36.85823731     6    379    0    0    0
H -654.55717041 -42.81337408 -36.32907159     6    379    0    0    0
C -656.11973359 -43.80713049 -40.22313260     2    379   383   384   385
H -654.82165660 -45.16421621 -41.09781848     6    382    0    0    0
H -658.02874001 -44.42818177 -40.82470881     6    382    0    0    0
C -655.91914939 -41.17777960 -41.61274262     2    382   386   387   388
H -656.11374396 -41.47753498 -43.52532426     6    385    0    0    0
H -657.42374686 -39.92663991 -40.93044839     6    385    0    0    0
C -653.42708891 -39.75522325 -41.24804103     1    385   389   390   391
H -653.19861081 -39.36013773 -39.25957658     6    388    0    0    0
H -653.27125714 -37.99126993 -42.10286162     6    388    0    0    0
H -651.65854694 -40.80473019 -41.75519275     6    388    0    0    0
H -614.29456574 -54.69651764 -35.68093099     6     393    0    0    0 
C -614.46722496 -54.67782638 -33.72778774     1     392    394    395    396
H -612.51985801 -54.92996791 -33.02370669     6     393    0    0    0
H -615.17755527 -52.82737640 -33.25243554     6     393    0    0    0
C -616.31599984 -56.72405184 -32.81798938     2     393    397    398    399
H -618.05658093 -56.37460428 -33.75719469     6     396    0    0    0
H -615.53175798 -58.59939104 -33.31979741     6     396    0    0    0
C -616.93255275 -56.63520267 -30.03638485     2     396    400   401   402
H -615.25229972 -56.48389550 -28.77878472     6     399    0    0    0
H -618.05291317 -54.98231766 -29.82850833     6     399    0    0    0
C -618.34382799 -58.88969245 -29.13277275     2     399   403   404   405
H -620.35767755 -58.90573615 -29.62399324     6    402    0    0    0
H -617.70979943 -60.79439799 -29.90689800     6    402    0    0    0
C -618.53168696 -59.22764294 -26.14718368     2    402   406   407   408
H -616.95046194 -60.34314201 -25.59628990     6    405    0    0    0
H -618.54176011 -57.40020706 -25.27978659     6    405    0    0    0
C -620.81826989 -60.80118123 -25.29073174     2    405   409   410   411
H -622.53261697 -59.82857253 -25.88012603     6    408    0    0    0
H -620.68890868 -62.63837781 -26.23901415     6    408    0    0    0
C -621.21467610 -61.25912776 -22.46677188     2    408   412   413   414
H -619.50955887 -62.39039491 -21.92787564     6    411    0    0    0
H -620.99035115 -59.75572950 -21.22645584     6    411    0    0    0
C -623.48461603 -62.99052721 -21.86189415     2    411   415   416   417
H -625.00515413 -62.27536690 -22.86750580     6    414    0    0    0
H -623.17258222 -64.99174849 -22.65066001     6    414    0    0    0
C -624.19168964 -63.17073460 -19.07141715     2    414   418   419   420
H -622.48308730 -63.93209445 -18.08641806     6    417    0    0    0
H -624.40531763 -61.32941570 -18.20600577     6    417    0    0    0
C -626.68621630 -64.67340235 -18.76623160     2    417   421   422   423
H -628.36084476 -63.83821038 -19.53327982     6    420    0    0    0
H -626.43273864 -66.38885094 -19.71720213     6    420    0    0    0
C -627.21889152 -65.13002674 -15.95076368     2    420   424   425   426
H -628.65843113 -66.58369012 -15.50369691     6    423    0    0    0
H -625.52380303 -65.84318421 -14.89280130     6    423    0    0    0
C -628.76569634 -62.88058148 -14.71422211     1    423   427   428   429
H -628.60620538 -63.03030145 -12.61083778     6    426    0    0    0
H -630.71685357 -62.71677070 -15.26908383     6    426    0    0    0
H -628.09345203 -60.92396832 -15.17907505     6    426    0    0    0
H -640.32767179 -75.92086132 -24.80782828     6     431    0    0    0 
C -638.71133819 -74.75884967 -24.24350229     1     430    432    433    434
H -639.48014189 -73.18655978 -23.18019646     6     431    0    0    0
H -637.67730341 -75.85865360 -22.92427994     6     431    0    0    0
C -636.95492026 -74.19267257 -26.44837110     2     431    435    436    437
H -638.09251320 -73.16856904 -27.71945440     6     434    0    0    0
H -635.47335652 -73.03458076 -25.68678518     6     434    0    0    0
C -635.99665293 -76.61265169 -27.67983100     2     434    438   439   440
H -634.94602605 -77.81622686 -26.37464134     6     437    0    0    0
H -637.60522225 -77.91668145 -27.77032952     6     437    0    0    0
C -634.74665622 -76.42098592 -30.31522143     2     437   441   442   443
H -635.42910317 -78.06458325 -31.43165122     6    440    0    0    0
H -635.55001860 -74.87343789 -31.32542216     6    440    0    0    0
C -631.89940079 -76.24534513 -30.36402763     2    440   444   445   446
H -631.19222963 -74.48613089 -29.60050074     6    443    0    0    0
H -630.88882458 -77.78896945 -29.20311106     6    443    0    0    0
C -630.85418084 -76.11663231 -33.11042544     2    443   447   448   449
H -631.77086463 -77.68309831 -34.21278472     6    446    0    0    0
H -631.42752730 -74.22165987 -33.77323693     6    446    0    0    0
C -627.94269208 -76.44268968 -33.16633329     2    446   450   451   452
H -627.30669575 -75.01909107 -31.81472038     6    449    0    0    0
H -627.50314996 -78.37420348 -32.54169814     6    449    0    0    0
C -626.58372222 -75.82159224 -35.77344476     2    449   453   454   455
H -627.04745849 -77.25597467 -37.29214110     6    452    0    0    0
H -627.28308661 -73.91875449 -36.51543222     6    452    0    0    0
C -623.69016825 -75.53070910 -35.56917957     2    452   456   457   458
H -623.26087853 -73.72910235 -34.45120698     6    455    0    0    0
H -623.03391596 -76.88476819 -34.17471569     6    455    0    0    0
C -621.96942845 -75.61853982 -38.05021759     2    455   459   460   461
H -620.00561882 -75.84506571 -37.53556540     6    458    0    0    0
H -622.61650194 -77.35808304 -39.02982483     6    458    0    0    0
C -622.39305837 -73.28522651 -39.61707830     2    458   462   463   464
H -624.31996195 -72.89494841 -39.73907550     6    461    0    0    0
H -621.63663032 -71.70630208 -38.67678954     6    461    0    0    0
C -621.27256255 -73.77499687 -42.24154696     1    461   465   466   467
H -622.50323389 -74.90080156 -43.53179180     6    464    0    0    0
H -619.60851938 -74.82596163 -42.15436535     6    464    0    0    0
H -620.79488842 -72.03298315 -43.32727070     6    464    0    0    0
H -664.96988772 -47.17161893 -39.98259365     6     469    0    0    0 
C -663.47900118 -48.34927679 -40.79229135     1     468    470    471    472
H -664.16886929 -48.77737708 -42.69242511     6     469    0    0    0
H -661.78572585 -47.31080671 -40.84803176     6     469    0    0    0
C -662.85769972 -50.81020889 -39.36022032     2     469    473    474    475
H -661.58434005 -52.01372965 -40.29291612     6     472    0    0    0
H -662.19800442 -50.29609946 -37.48625834     6     472    0    0    0
C -665.31568237 -52.37265716 -38.86413577     2     472    476   477   478
H -666.79229332 -51.29029702 -38.03637163     6     475    0    0    0
H -666.15313440 -53.01410310 -40.55626938     6     475    0    0    0
C -664.69801002 -54.65566755 -37.15352372     2     475   479   480   481
H -663.07639507 -55.78665437 -37.83485682     6    478    0    0    0
H -664.32682555 -53.90860636 -35.31861769     6    478    0    0    0
C -666.82734543 -56.53238376 -37.15025036     2    478   482   483   484
H -668.41948333 -55.52195058 -36.42799631     6    481    0    0    0
H -667.27454087 -57.02932068 -39.09791305     6    481    0    0    0
C -666.23134514 -58.98125961 -35.69851163     2    481   485   486   487
H -664.88266225 -60.26563298 -36.59007923     6    484    0    0    0
H -665.31945986 -58.72429474 -33.77003656     6    484    0    0    0
C -668.65400112 -60.51021427 -35.35391737     2    484   488   489   490
H -670.07996956 -59.56496811 -34.28810547     6    487    0    0    0
H -669.49615909 -60.93386068 -37.28402633     6    487    0    0    0
C -668.08210189 -62.77194228 -33.87856963     2    487   491   492   493
H -666.72028712 -63.79105819 -34.90312661     6    490    0    0    0
H -667.28716907 -62.19662516 -32.13420536     6    490    0    0    0
C -670.37137274 -64.52140418 -33.38464869     2    490   494   495   496
H -671.83883209 -63.28242345 -32.53155056     6    493    0    0    0
H -671.22327830 -65.53554737 -34.91077182     6    493    0    0    0
C -669.73605828 -66.58931903 -31.46599030     2    493   497   498   499
H -668.08870975 -67.65665419 -32.12292945     6    496    0    0    0
H -669.06355350 -65.60566060 -29.74187560     6    496    0    0    0
C -671.96158508 -68.22433635 -30.53995103     2    496   500   501   502
H -673.21785360 -66.82174358 -29.56375129     6    499    0    0    0
H -673.02749101 -68.91375930 -32.12971762     6    499    0    0    0
C -671.21845324 -70.41664277 -28.69902238     1    499   503   504   505
H -671.08293466 -72.18963278 -29.69179390     6    502    0    0    0
H -672.74924133 -70.77537165 -27.24617507     6    502    0    0    0
H -669.36372555 -70.11479629 -27.85976809     6    502    0    0    0
H -646.80830114 -80.10130288 -3.41472605     6     507    0    0    0 
C -645.89721214 -80.80173296 -5.08210213     1     506    508    509    510
H -644.66245807 -82.19596198 -4.37566748     6     507    0    0    0
H -647.14682610 -82.02947840 -6.26697097     6     507    0    0    0
C -644.50248245 -78.47970670 -6.32777370     2     507    511    512    513
H -645.90421193 -76.87349371 -6.82512339     6     510    0    0    0
H -642.97101641 -77.69886658 -5.10758896     6     510    0    0    0
C -643.05508401 -79.42356712 -8.62176451     2     510    514   515   516
H -641.73269506 -80.98157847 -7.94404389     6     513    0    0    0
H -644.37196536 -79.97432571 -10.06216469     6     513    0    0    0
C -641.39873561 -77.32997732 -9.90300660     2     513   517   518   519
H -642.92666039 -76.08103821 -10.53913047     6    516    0    0    0
H -640.46548386 -76.27285591 -8.37798627     6    516    0    0    0
C -639.88171747 -78.53377186 -12.09317917     2    516   520   521   522
H -638.64972098 -80.06274844 -11.31978584     6    519    0    0    0
H -641.16973240 -79.07076945 -13.66214440     6    519    0    0    0
C -638.36066353 -76.35916290 -13.42870535     2    519   523   524   525
H -639.64213935 -74.88923234 -13.79653057     6    522    0    0    0
H -637.13699122 -75.47401021 -12.11044570     6    522    0    0    0
C -637.13101370 -77.15402115 -15.93762968     2    522   526   527   528
H -635.90364606 -78.73134276 -15.48477652     6    525    0    0    0
H -638.57913693 -77.92586618 -17.22306379     6    525    0    0    0
C -635.48585756 -74.95324977 -17.11993490     2    525   529   530   531
H -636.74604680 -73.94200207 -18.37512360     6    528    0    0    0
H -634.53661019 -73.61494015 -15.74988721     6    528    0    0    0
C -633.22419412 -76.01404775 -18.61033509     2    528   532   533   534
H -632.04796327 -77.18553457 -17.37626468     6    531    0    0    0
H -633.92389737 -77.02106523 -20.29444736     6    531    0    0    0
C -631.78461814 -73.72408644 -19.63669696     2    531   535   536   537
H -632.81130518 -72.81293888 -21.24426313     6    534    0    0    0
H -631.41544633 -72.23584787 -18.14487749     6    534    0    0    0
C -629.39853750 -74.34510041 -21.00492066     2    534   538   539   540
H -627.88495980 -75.27346078 -19.89561487     6    537    0    0    0
H -630.04835566 -75.58158170 -22.56362687     6    537    0    0    0
C -628.19851698 -71.92876138 -22.01410139     1    537   541   542   543
H -626.92539031 -71.97904212 -23.69496695     6    540    0    0    0
H -626.89737013 -71.05445298 -20.62150640     6    540    0    0    0
H -629.66390452 -70.61147523 -22.46037232     6    540    0    0    0
H -629.87656103 -56.09532403 -36.73571430     6     545    0    0    0 
C -628.76185991 -56.13767816 -34.92515060     1     544    546    547    548
H -629.61000934 -57.71298331 -33.97088516     6     545    0    0    0
H -626.81173298 -56.69271171 -35.34326799     6     545    0    0    0
C -629.23189913 -53.71886460 -33.34904835     2     545    549    550    551
H -631.25744712 -53.54415322 -33.02477418     6     548    0    0    0
H -628.60461085 -53.99115981 -31.38826208     6     548    0    0    0
C -628.25959652 -51.37763104 -34.66236443     2     548    552   553   554
H -626.24165711 -51.43928986 -34.68479820     6     551    0    0    0
H -628.78296935 -51.44276746 -36.66184588     6     551    0    0    0
C -629.20835707 -49.07086651 -33.30590830     2     551   555   556   557
H -631.11449238 -48.68510299 -33.97673505     6    554    0    0    0
H -628.87698046 -49.12811300 -31.19885781     6    554    0    0    0
C -627.47253551 -46.94355422 -34.08084336     2    554   558   559   560
H -625.48903723 -47.59314235 -34.06703092     6    557    0    0    0
H -627.89774812 -46.62840978 -36.04593608     6    557    0    0    0
C -627.73355978 -44.66855251 -32.22094952     2    557   561   562   563
H -629.60005396 -43.90042307 -31.92208352     6    560    0    0    0
H -627.33617763 -45.40642323 -30.46918216     6    560    0    0    0
C -625.75239286 -42.50582671 -32.96318439     2    560   564   565   566
H -624.18661186 -42.82715217 -31.62432847     6    563    0    0    0
H -625.06688566 -42.67201493 -34.90505269     6    563    0    0    0
C -626.91753743 -39.82251504 -32.64389415     2    563   567   568   569
H -628.80474483 -39.72285976 -33.59164930     6    566    0    0    0
H -627.00474164 -39.31417291 -30.60353817     6    566    0    0    0
C -625.21407819 -37.90907476 -34.15963497     2    566   570   571   572
H -623.33399167 -38.28546480 -33.69423547     6    569    0    0    0
H -625.57398364 -38.14480927 -36.18133423     6    569    0    0    0
C -625.94882741 -35.03626015 -33.66545637     2    569   573   574   575
H -627.90001585 -34.56629936 -34.17153627     6    572    0    0    0
H -625.86165394 -34.80355425 -31.64455033     6    572    0    0    0
C -624.13959296 -33.16408394 -35.04980519     2    572   576   577   578
H -622.15248542 -33.23764795 -34.51600311     6    575    0    0    0
H -623.91766191 -33.49997139 -37.10617851     6    575    0    0    0
C -624.86880174 -30.36602390 -34.47570442     1    575   579   580   581
H -625.63519003 -30.17268671 -32.56223215     6    578    0    0    0
H -626.47749981 -29.74774812 -35.65405476     6    578    0    0    0
H -623.21288065 -29.09748232 -34.86143119     6    578    0    0    0
H -662.76575719 -44.19470226 -26.84769180     6     583    0    0    0 
C -661.73648321 -42.39484663 -26.94947247     1     582    584    585    586
H -663.11076351 -41.01260867 -27.38558032     6     583    0    0    0
H -661.18733375 -42.03230668 -24.90044981     6     583    0    0    0
C -659.50308339 -42.37652864 -29.03707978     2     583    587    588    589
H -658.22434896 -43.93574938 -28.99846981     6     586    0    0    0
H -660.32938705 -42.51778538 -30.78990598     6     586    0    0    0
C -658.25123432 -39.78027646 -29.38285344     2     586    590   591   592
H -659.82409618 -38.49364385 -29.14055734     6     589    0    0    0
H -657.02502494 -39.46077804 -27.78331258     6     589    0    0    0
C -656.89555500 -39.34909883 -31.79612913     2     589   593   594   595
H -655.31526215 -40.80472874 -31.89000266     6    592    0    0    0
H -658.18544803 -39.66923059 -33.42190776     6    592    0    0    0
C -655.90649289 -36.64755324 -31.99782103     2    592   596   597   598
H -657.45438014 -35.18862978 -31.89127181     6    595    0    0    0
H -654.78254394 -36.37353403 -30.37062215     6    595    0    0    0
C -654.37423011 -36.33085901 -34.41374634     2    595   599   600   601
H -652.94850320 -37.85614235 -34.52991119     6    598    0    0    0
H -655.63950111 -36.30101264 -35.95255481     6    598    0    0    0
C -652.98711567 -33.81483196 -34.57193608     2    598   602   603   604
H -654.27686622 -32.27345060 -35.03660148     6    601    0    0    0
H -652.14012314 -33.12990976 -32.86502304     6    601    0    0    0
C -651.10703686 -34.19116411 -36.75245768     2    601   605   606   607
H -649.71349185 -35.71102242 -36.17793582     6    604    0    0    0
H -652.29828599 -34.68633220 -38.25227831     6    604    0    0    0
C -649.98001993 -31.56387632 -37.50877143     2    604   608   609   610
H -651.24673912 -30.36156438 -38.54537673     6    607    0    0    0
H -649.48926664 -30.39927648 -35.86327328     6    607    0    0    0
C -647.89379118 -31.95734060 -39.39860171     2    607   611   612   613
H -646.70385924 -33.30384654 -38.64005700     6    610    0    0    0
H -648.46928632 -32.45080227 -41.28540066     6    610    0    0    0
C -646.30168458 -29.55386523 -39.60529938     2    610   614   615   616
H -647.40900569 -27.97231235 -40.04499635     6    613    0    0    0
H -645.27700266 -29.15531137 -37.82266793     6    613    0    0    0
C -644.40201305 -29.89522404 -41.74766789     1    613   617   618   619
H -642.87233312 -28.44382574 -41.73081393     6    616    0    0    0
H -645.26006131 -30.08284338 -43.52007886     6    616    0    0    0
H -643.52107315 -31.72907665 -41.65566073     6    616    0    0    0
H -634.26821485 -51.04250883 -10.18102237     6     621    0    0    0 
C -633.37609938 -50.24676929 -11.67272226     1     620    622    623    624
H -631.30809526 -50.27969572 -11.38660430     6     621    0    0    0
H -633.62435591 -51.35244146 -13.32503119     6     621    0    0    0
C -634.13455048 -47.62813825 -12.22611988     2     621    625    626    627
H -632.70326834 -46.92583702 -13.45882573     6     624    0    0    0
H -635.78252445 -47.70029445 -13.42041964     6     624    0    0    0
C -634.56262558 -45.91566255 -9.96784088     2     624    628   629   630
H -635.94617878 -47.02069507 -8.98045889     6     627    0    0    0
H -632.92596841 -46.14122543 -8.69874698     6     627    0    0    0
C -635.77403272 -43.24231678 -10.69514206     2     627   631   632   633
H -634.13262097 -42.08016120 -11.53176156     6    630    0    0    0
H -637.08440596 -43.51482507 -12.26149121     6    630    0    0    0
C -636.53741109 -41.72423140 -8.45960483     2    630   634   635   636
H -638.20517124 -42.68221289 -7.44146131     6    633    0    0    0
H -635.07867080 -41.83706371 -7.07519712     6    633    0    0    0
C -637.17886207 -38.79673439 -8.94123091     2    633   637   638   639
H -635.45619869 -37.90904238 -9.47134236     6    636    0    0    0
H -638.52167885 -38.69378929 -10.44067109     6    636    0    0    0
C -638.38397709 -37.55488355 -6.51254106     2    636   640   641   642
H -640.18464712 -38.69443267 -6.33828052     6    639    0    0    0
H -637.25459962 -37.89088876 -4.73359367     6    639    0    0    0
C -638.81056759 -34.61336440 -6.73415147     2    639   643   644   645
H -636.97188965 -33.69128233 -6.56575220     6    642    0    0    0
H -639.77922794 -33.91002935 -8.46638809     6    642    0    0    0
C -640.31908070 -33.69583544 -4.47060813     2    642   646   647   648
H -642.13662315 -34.67307975 -4.46446003     6    645    0    0    0
H -639.45961455 -34.37160928 -2.82597724     6    645    0    0    0
C -640.38178413 -30.79062471 -4.37232963     2    645   649   650   651
H -638.55736532 -30.02434919 -4.33525774     6    648    0    0    0
H -640.78010700 -30.35693041 -6.37869667     6    648    0    0    0
C -642.26338961 -29.63898148 -2.51288547     2    648   652   653   654
H -644.17100861 -29.65891805 -3.28329373     6    651    0    0    0
H -641.96366841 -31.04529971 -0.98210275     6    651    0    0    0
C -641.36105667 -26.90228565 -2.02336228     1    651   655   656   657
H -641.35483631 -25.67499557 -3.71195732     6    654    0    0    0
H -639.35223093 -26.62015445 -1.40425545     6    654    0    0    0
H -642.60106194 -25.96246287 -0.59529911     6    654    0    0    0
H -655.53557157 -39.65388395 -23.09431195     6     659    0    0    0 
C -654.03965982 -39.94153328 -21.59674479     1     658    660    661    662
H -653.55673801 -37.85446890 -21.21170259     6     659    0    0    0
H -654.68357671 -40.58657103 -19.65402115     6     659    0    0    0
C -651.58880654 -41.39036110 -22.66823357     2     659    663    664    665
H -650.18833367 -41.79100558 -21.24091781     6     662    0    0    0
H -652.07896128 -43.33858756 -22.98770145     6     662    0    0    0
C -650.62797457 -40.34499325 -25.19420324     2     662    666   667   668
H -649.12312750 -41.62026815 -25.71411339     6     665    0    0    0
H -652.11918152 -40.43482875 -26.52210202     6     665    0    0    0
C -649.71590443 -37.74085441 -25.21070647     2     665   669   670   671
H -651.11552166 -36.38860479 -24.85658569     6    668    0    0    0
H -648.44216279 -37.37601963 -23.60676395     6    668    0    0    0
C -648.30833278 -37.16196527 -27.66570040     2    668   672   673   674
H -646.77266507 -38.50615552 -27.56642723     6    671    0    0    0
H -649.16677404 -37.74264228 -29.41361238     6    671    0    0    0
C -647.45061941 -34.35588208 -27.89080670     2    671   675   676   677
H -648.97239526 -33.31586761 -28.91289305     6    674    0    0    0
H -647.23759665 -33.56928988 -25.98585879     6    674    0    0    0
C -645.03534289 -33.59905131 -29.40418594     2    674   678   679   680
H -644.55694565 -31.54208464 -29.09222051     6    677    0    0    0
H -643.31500934 -34.51378869 -28.62933443     6    677    0    0    0
C -645.23109883 -33.79862825 -32.28840037     2    677   681   682   683
H -646.22185285 -35.58853574 -32.73795974     6    680    0    0    0
H -646.53021898 -32.25350109 -32.86679769     6    680    0    0    0
C -642.72413090 -33.75382942 -33.86214568     2    680   684   685   686
H -641.41334531 -35.14751597 -33.42742672     6    683    0    0    0
H -643.11663203 -34.04829632 -35.91476796     6    683    0    0    0
C -641.38925951 -31.20766622 -33.36179102     2    683   687   688   689
H -642.50468467 -29.49203057 -33.48805560     6    686    0    0    0
H -640.56286141 -31.20611571 -31.46075170     6    686    0    0    0
C -638.92775727 -31.02660525 -34.98245254     2    686   690   691   692
H -637.89076311 -32.78071487 -34.52653550     6    689    0    0    0
H -639.32984899 -31.00264085 -36.94599400     6    689    0    0    0
C -637.42557691 -28.71400699 -34.23287889     1    689   693   694   695
H -636.97230971 -28.54269500 -32.28749957     6    692    0    0    0
H -638.52199701 -27.13045979 -34.87262723     6    692    0    0    0
H -635.67167559 -28.95977463 -35.32021509     6    692    0    0    0
H -619.36319760 -37.93773845 -30.52836398     6     697    0    0    0 
C -617.85281165 -37.63302704 -29.18236412     1     696    698    699    700
H -618.14926065 -35.79463552 -28.38016426     6     697    0    0    0
H -617.97886942 -39.20082146 -27.87330584     6     697    0    0    0
C -615.22715988 -37.81166297 -30.24281957     2     697    701    702    703
H -614.51544699 -36.06337140 -30.57151631     6     700    0    0    0
H -614.08020586 -38.61560416 -28.59478717     6     700    0    0    0
C -614.91804621 -39.66292857 -32.58474500     2     700    704   705   706
H -615.09771378 -38.81685356 -34.50911166     6     703    0    0    0
H -613.12568666 -40.50074687 -32.27321716     6     703    0    0    0
C -616.87882840 -41.77211061 -32.69253537     2     703   707   708   709
H -617.08921012 -42.77147772 -30.91841798     6    706    0    0    0
H -618.65850978 -41.14164029 -33.27706194     6    706    0    0    0
C -615.88615035 -43.95563793 -34.42243448     2    706   710   711   712
H -615.21924709 -43.00252656 -36.01100920     6    709    0    0    0
H -614.21513527 -44.81646183 -33.93401651     6    709    0    0    0
C -618.11991639 -46.03147430 -34.74360695     2    709   713   714   715
H -618.29128962 -46.81884764 -32.83352344     6    712    0    0    0
H -619.55207599 -44.69241885 -35.22273167     6    712    0    0    0
C -617.51959331 -48.19265463 -36.54951341     2    712   716   717   718
H -616.67747273 -47.51877560 -38.26891738     6    715    0    0    0
H -615.93618411 -49.39157799 -35.89197055     6    715    0    0    0
C -619.94399917 -49.63613044 -37.32812700     2    715   719   720   721
H -620.93645983 -50.10719681 -35.56729367     6    718    0    0    0
H -621.10593533 -48.36895265 -38.46985593     6    718    0    0    0
C -619.28384525 -52.02530760 -38.85008486     2    718   722   723   724
H -618.67774270 -51.64525762 -40.86663329     6    721    0    0    0
H -617.54496339 -52.80274677 -38.01566511     6    721    0    0    0
C -621.37824485 -53.90173211 -39.06539792     2    721   725   726   727
H -621.41288623 -55.08762171 -37.29852356     6    724    0    0    0
H -623.20073028 -52.91140713 -39.42281627     6    724    0    0    0
C -621.05700901 -55.45427492 -41.52459211     2    724   728   729   730
H -622.80872407 -56.46120308 -41.89840882     6    727    0    0    0
H -620.62178067 -54.22173026 -43.05922572     6    727    0    0    0
C -619.19349178 -57.61742969 -41.50828614     1    727   731   732   733
H -618.88815262 -58.20820700 -43.38942078     6    730    0    0    0
H -620.01285520 -59.16920671 -40.57136071     6    730    0    0    0
H -617.44840743 -56.96416238 -40.51150782     6    730    0    0    0
H -648.05236455 -56.73992579 -43.85675927     6     735    0    0    0 
C -648.96830013 -58.54785423 -43.74810724     1     734    736    737    738
H -648.40540414 -59.53307046 -45.43517890     6     735    0    0    0
H -648.18159091 -59.78669107 -42.31811392     6     735    0    0    0
C -651.88043914 -58.19714216 -43.66393105     2     735    739    740    741
H -652.53821499 -57.23593734 -45.23182032     6     738    0    0    0
H -652.73917485 -60.13300812 -43.56053890     6     738    0    0    0
C -652.60298537 -56.49321372 -41.38576291     2     738    742   743   744
H -651.82471323 -57.38865638 -39.74444069     6     741    0    0    0
H -651.65427375 -54.79548633 -41.67880329     6     741    0    0    0
C -655.25678169 -55.72663921 -41.07306857     2     741   745   746   747
H -655.68735701 -53.84174888 -42.03657003     6    744    0    0    0
H -656.34957706 -57.16640988 -42.00246339     6    744    0    0    0
C -656.43838970 -55.87423601 -38.39753040     2    744   748   749   750
H -655.50845053 -54.58581074 -37.18220471     6    747    0    0    0
H -658.36583394 -55.14868049 -38.51090935     6    747    0    0    0
C -656.64794343 -58.54653882 -37.27115448     2    747   751   752   753
H -657.73075517 -59.72466295 -38.55933314     6    750    0    0    0
H -654.85556743 -59.59398351 -37.07468948     6    750    0    0    0
C -658.01050667 -58.68729847 -34.78332055     2    750   754   755   756
H -656.83537086 -57.81566194 -33.26840424     6    753    0    0    0
H -659.93615553 -57.63904162 -34.74866648     6    753    0    0    0
C -658.22974984 -61.41953277 -33.90364614     2    753   757   758   759
H -659.37070823 -62.59531758 -35.31242227     6    756    0    0    0
H -656.34591889 -62.24033035 -33.77067967     6    756    0    0    0
C -659.54486062 -61.56374068 -31.34718211     2    756   760   761   762
H -658.09081287 -61.32471985 -29.85895137     6    759    0    0    0
H -661.13425396 -60.13655409 -31.05868118     6    759    0    0    0
C -660.70139699 -64.25094269 -30.94610938     2    759   763   764   765
H -661.93013174 -64.76079134 -32.51827347     6    762    0    0    0
H -659.27351081 -65.74284713 -31.01864495     6    762    0    0    0
C -661.73844469 -64.51900917 -28.39368277     2    762   766   767   768
H -660.34377556 -64.07237250 -26.91353904     6    765    0    0    0
H -663.27321788 -63.15371744 -28.32281945     6    765    0    0    0
C -662.99711672 -67.23356696 -27.95280762     1    765   769   770   771
H -664.23826364 -67.96845624 -29.43318685     6    768    0    0    0
H -663.93335064 -67.67741446 -26.08864844     6    768    0    0    0
H -661.54939034 -68.73965873 -28.13427341     6    768    0    0    0
H -641.64425991 -44.45370468 0.67471951     6     773    0    0    0 
C -640.59757242 -44.92681177 2.46780143     1     772    774    775    776
H -639.38744382 -43.29518906 2.92905524     6     773    0    0    0
H -642.07743256 -44.99625147 3.83879430     6     773    0    0    0
C -639.11550218 -47.41543648 2.02223528     2     773    777    778    779
H -638.24209854 -48.21678995 3.78606731     6     776    0    0    0
H -640.57939081 -48.82941876 1.41378774     6     776    0    0    0
C -637.12645319 -47.16566003 -0.17772038     2     776    780   781   782
H -638.18714936 -46.95958489 -1.95843573     6     779    0    0    0
H -635.99881384 -45.43126834 0.02441859     6     779    0    0    0
C -635.34834147 -49.45837262 -0.35299630     2     779   783   784   785
H -634.03135506 -49.24126420 1.15887617     6    782    0    0    0
H -636.30368468 -51.18081811 -0.21006984     6    782    0    0    0
C -634.32742449 -49.76226305 -2.94851192     2    782   786   787   788
H -635.77386409 -50.45967158 -4.08981390     6    785    0    0    0
H -633.99976974 -47.79119291 -3.69529693     6    785    0    0    0
C -631.95887627 -51.49621052 -2.99684453     2    785   789   790   791
H -630.57395140 -50.84352728 -1.59666034     6    788    0    0    0
H -632.70173174 -53.31132316 -2.42755777     6    788    0    0    0
C -630.39144741 -51.63254076 -5.42335574     2    788   792   793   794
H -631.64698073 -52.12629911 -6.94330714     6    791    0    0    0
H -629.63677142 -49.67017282 -5.68692391     6    791    0    0    0
C -628.23654737 -53.44652050 -5.27403592     2    791   795   796   797
H -626.85235578 -52.86683588 -3.95638158     6    794    0    0    0
H -628.98460359 -55.17149286 -4.57275193     6    794    0    0    0
C -627.23795039 -54.17033614 -7.94752035     2    794   798   799   800
H -628.71753141 -54.92487946 -9.14291331     6    797    0    0    0
H -626.48050354 -52.39745928 -8.82039767     6    797    0    0    0
C -625.21294844 -56.25202311 -7.87709613     2    797   801   802   803
H -623.51120258 -55.73723916 -6.91426792     6    800    0    0    0
H -625.95153122 -57.93972840 -7.06083642     6    800    0    0    0
C -624.26515157 -56.88553675 -10.49830135     2    800   804   805   806
H -625.98731676 -57.63492566 -11.49810329     6    803    0    0    0
H -623.38228208 -55.24834706 -11.34025321     6    803    0    0    0
C -622.33684248 -59.00343273 -10.74844647     1    803   807   808   809
H -621.86536796 -59.26715380 -12.70525271     6    806    0    0    0
H -622.88499111 -60.80239169 -10.01196653     6    806    0    0    0
H -620.59766727 -58.20484641 -9.89490204     6    806    0    0    0
H -656.19459003 -48.12971317 -24.37767264     6     811    0    0    0 
C -657.27928061 -47.47713484 -22.83194097     1     810    812    813    814
H -657.30973359 -45.39609666 -22.73735396     6     811    0    0    0
H -659.16272701 -48.09007235 -23.22940868     6     811    0    0    0
C -656.31407497 -48.32885406 -20.33653644     2     811    815    816    817
H -654.28342823 -47.96450449 -20.31101925     6     814    0    0    0
H -657.19387302 -47.37425743 -18.72347373     6     814    0    0    0
C -656.99305434 -51.11593437 -19.95092288     2     814    818   819   820
H -658.95343726 -51.57411752 -20.35401855     6     817    0    0    0
H -655.99866350 -52.08969014 -21.40993507     6     817    0    0    0
C -656.52050901 -51.99505130 -17.35442879     2     817   821   822   823
H -654.52416694 -51.98183198 -16.97962782     6    820    0    0    0
H -657.53615261 -50.77204578 -16.00479930     6    820    0    0    0
C -657.42934604 -54.77816567 -16.98789626     2    820   824   825   826
H -659.49323690 -55.00224934 -17.24856506     6    823    0    0    0
H -656.24570212 -55.96438311 -18.30501975     6    823    0    0    0
C -656.70611708 -55.44069466 -14.35600662     2    823   827   828   829
H -654.77407292 -55.21634026 -13.86127806     6    826    0    0    0
H -657.55421439 -54.02300450 -13.19983258     6    826    0    0    0
C -657.85840428 -57.91990709 -13.22780557     2    826   830   831   832
H -659.85019082 -57.92331365 -13.30092214     6    829    0    0    0
H -657.22895637 -59.40970493 -14.49571416     6    829    0    0    0
C -657.02071530 -58.66197101 -10.62397990     2    829   833   834   835
H -654.92785103 -58.98566818 -10.42780160     6    832    0    0    0
H -657.40688206 -56.98989059 -9.51645109     6    832    0    0    0
C -658.33895052 -60.86625032 -9.44654232     2    832   836   837   838
H -660.28965042 -61.00919390 -9.72051040     6    835    0    0    0
H -657.76265540 -62.45422182 -10.80128969     6    835    0    0    0
C -657.36411361 -61.59172926 -6.72738678     2    835   839   840   841
H -655.27245323 -60.98418558 -6.52757256     6    838    0    0    0
H -658.29905687 -60.33820778 -5.44386855     6    838    0    0    0
C -658.08338259 -64.21465675 -5.78882279     2    838   842   843   844
H -660.09663776 -64.54925280 -5.57544577     6    841    0    0    0
H -657.21207345 -65.60803254 -6.88651897     6    841    0    0    0
C -657.09635567 -65.00536704 -3.18412328     1    841   845   846   847
H -654.98385727 -64.94733132 -3.18295255     6    844    0    0    0
H -657.94450316 -66.79797532 -2.48886455     6    844    0    0    0
H -657.51162859 -63.51718278 -1.78112179     6    844    0    0    0
H -638.73926826 -19.81332863 -44.57478054     6     849    0    0    0 
C -637.32510256 -20.84740530 -43.43134546     1     848    850    851    852
H -636.19825565 -22.05847112 -44.61445215     6     849    0    0    0
H -636.31912771 -19.19678695 -42.67032780     6     849    0    0    0
C -638.96632285 -22.35448832 -41.55239156     2     849    853    854    855
H -639.84083020 -23.81144533 -42.75013223     6     852    0    0    0
H -637.71168936 -23.16801136 -40.18941210     6     852    0    0    0
C -641.06008001 -21.09653151 -40.06613039     2     852    856   857   858
H -640.50561544 -19.74786182 -38.66707796     6     855    0    0    0
H -642.15140542 -19.87766372 -41.42633125     6     855    0    0    0
C -642.95946876 -23.00689832 -38.69629571     2     855   859   860   861
H -644.41078466 -23.48761282 -40.05403747     6    858    0    0    0
H -641.67605258 -24.62376448 -38.51864203     6    858    0    0    0
C -644.01846589 -22.02323697 -36.23694949     2    858   862   863   864
H -642.38842584 -21.07349506 -35.18494520     6    861    0    0    0
H -645.58595830 -20.78229757 -36.78116724     6    861    0    0    0
C -644.87588590 -24.31058142 -34.70749363     2    861   865   866   867
H -646.04365693 -25.64898878 -35.78247401     6    864    0    0    0
H -643.24476952 -25.40346226 -33.98114220     6    864    0    0    0
C -646.41969585 -23.67285409 -32.37256722     2    864   868   869   870
H -645.27687541 -22.62802444 -31.03916048     6    867    0    0    0
H -647.92336304 -22.34060784 -32.92027729     6    867    0    0    0
C -647.44743536 -26.18140258 -31.29497491     2    867   871   872   873
H -649.24447582 -27.09611361 -32.22983379     6    870    0    0    0
H -645.95672052 -27.65834533 -31.16937791     6    870    0    0    0
C -648.32071966 -25.94297414 -28.54445492     2    870   874   875   876
H -648.52692773 -27.82080396 -27.80955450     6    873    0    0    0
H -646.68884066 -25.19463638 -27.51590827     6    873    0    0    0
C -650.81535864 -24.27781210 -28.52076735     2    873   877   878   879
H -650.51005940 -22.32947265 -29.14513185     6    876    0    0    0
H -652.19506999 -25.04896159 -29.97901315     6    876    0    0    0
C -652.06177229 -24.05758599 -25.80599673     2    876   880   881   882
H -652.01238429 -25.97513557 -24.91260330     6    879    0    0    0
H -650.83847850 -22.88709359 -24.59746691     6    879    0    0    0
C -654.81753833 -23.11284891 -25.71847202     1    879   883   884   885
H -656.09551121 -24.49337130 -26.65352885     6    882    0    0    0
H -655.04666631 -21.35128835 -26.70340017     6    882    0    0    0
H -655.34556672 -22.89628041 -23.71704357     6    882    0    0    0
H -651.84021917 -56.03134174 -18.33874764     6     887    0    0    0 
C -650.08846463 -55.14487752 -17.44597559     1     886    888    889    890
H -650.67160985 -53.62237886 -16.19309102     6     887    0    0    0
H -649.44968389 -56.64342554 -16.26501523     6     887    0    0    0
C -647.91908849 -54.46702136 -19.21109747     2     887    891    892    893
H -646.48451974 -53.34788636 -18.38464629     6     890    0    0    0
H -646.97782941 -56.10638248 -20.09797846     6     890    0    0    0
C -649.10198087 -53.12804454 -21.55174173     2     890    894   895   896
H -650.03223543 -54.54377021 -22.65978918     6     893    0    0    0
H -650.51293961 -51.83118972 -20.76881634     6     893    0    0    0
C -647.15362980 -51.79677807 -23.21671861     2     893   897   898   899
H -646.23837039 -50.09399272 -22.40443547     6    896    0    0    0
H -645.64558351 -53.11740746 -23.79188902     6    896    0    0    0
C -648.52550017 -50.83121147 -25.65262930     2    896   900   901   902
H -648.92802818 -52.39678093 -26.73603449     6    899    0    0    0
H -650.22256962 -50.14860811 -24.74479253     6    899    0    0    0
C -646.83736296 -48.85355093 -27.23816601     2    899   903   904   905
H -646.15431843 -47.55921221 -25.82656990     6    902    0    0    0
H -645.23352499 -49.87413645 -28.09666032     6    902    0    0    0
C -648.40967819 -47.63114603 -29.40150789     2    902   906   907   908
H -649.23490788 -48.98143293 -30.82807067     6    905    0    0    0
H -649.96942745 -46.54535278 -28.65787011     6    905    0    0    0
C -646.93017894 -45.40747135 -30.60615732     2    905   909   910   911
H -647.24371814 -43.58388599 -29.65278459     6    908    0    0    0
H -644.96281667 -46.10575153 -30.40389765     6    908    0    0    0
C -647.36159590 -45.26881388 -33.46081570     2    908   912   913   914
H -646.41034903 -46.82768640 -34.47928640     6    911    0    0    0
H -649.40033562 -45.42843247 -33.90747873     6    911    0    0    0
C -646.57686535 -42.75252911 -34.64823535     2    911   915   916   917
H -647.49985221 -41.16798528 -33.74004518     6    914    0    0    0
H -644.50395085 -42.50604755 -34.59137622     6    914    0    0    0
C -647.50798262 -42.46401411 -37.31462091     2    914   918   919   920
H -646.82621419 -44.09467151 -38.49952674     6    917    0    0    0
H -649.46111186 -42.17669371 -37.71916448     6    917    0    0    0
C -646.63314064 -40.06673257 -38.51014018     1    917   921   922   923
H -647.33766095 -39.78269289 -40.35829731     6    920    0    0    0
H -644.58992790 -40.11530178 -38.64160209     6    920    0    0    0
H -646.98095323 -38.33294293 -37.38327159     6    920    0    0    0
H -643.90778225 -26.76452406 -20.11820924     6     925    0    0    0 
C -644.96447210 -25.84989044 -18.50753213     1     924    926    927    928
H -643.62028152 -25.66675959 -16.99520688     6     925    0    0    0
H -645.39315516 -23.97464130 -19.20316120     6     925    0    0    0
C -647.19086924 -27.68959610 -17.81050852     2     925    929    930    931
H -646.21930187 -29.28047713 -16.71125191     6     928    0    0    0
H -648.44983119 -26.68492120 -16.52759655     6     928    0    0    0
C -648.67334728 -28.78875832 -20.11308721     2     928    932   933   934
H -648.99957694 -27.25536481 -21.46883256     6     931    0    0    0
H -647.47057289 -30.22836956 -21.10416437     6     931    0    0    0
C -651.15184036 -29.99694836 -19.36897744     2     931   935   936   937
H -650.64629288 -31.50921599 -18.02047272     6    934    0    0    0
H -652.38928376 -28.73504867 -18.55883797     6    934    0    0    0
C -652.56611154 -31.23310268 -21.60981260     2    934   938   939   940
H -652.82772083 -29.78405128 -22.89786330     6    937    0    0    0
H -651.45938249 -32.62645103 -22.67721954     6    937    0    0    0
C -655.04545663 -32.33513022 -20.86694057     2    937   941   942   943
H -654.79982647 -33.76419912 -19.46786363     6    940    0    0    0
H -656.23415517 -30.90087271 -19.84156732     6    940    0    0    0
C -656.45907856 -33.15932297 -23.21347073     2    940   944   945   946
H -655.18624533 -34.58353303 -23.89503122     6    943    0    0    0
H -657.94732632 -34.38036622 -22.65100621     6    943    0    0    0
C -657.48785713 -30.95692963 -24.80765059     2    943   947   948   949
H -658.30670605 -29.48924905 -23.65129354     6    946    0    0    0
H -655.93391272 -29.98556411 -25.78435224     6    946    0    0    0
C -659.61595735 -31.45863822 -26.85068640     2    946   950   951   952
H -658.93025878 -32.59476850 -28.37253378     6    949    0    0    0
H -661.39586294 -32.33644064 -26.19419769     6    949    0    0    0
C -660.31596460 -28.89660845 -28.05997770     2    949   953   954   955
H -661.11295759 -27.80586244 -26.50631354     6    952    0    0    0
H -658.51522284 -28.09305258 -28.65577119     6    952    0    0    0
C -662.33621891 -29.04744989 -30.36558082     2    952   956   957   958
H -661.44053659 -29.92277725 -32.03951258     6    955    0    0    0
H -663.80071599 -30.36412901 -29.96089894     6    955    0    0    0
C -663.58629970 -26.55175202 -30.96647006     1    955   959   960   961
H -664.95509286 -26.81742396 -32.38790510     6    958    0    0    0
H -662.16977745 -25.18454151 -31.59749453     6    958    0    0    0
H -664.51719364 -25.83633648 -29.22460338     6    958    0    0    0
H -644.91079334 -65.05285160 -32.87167462     6     963    0    0    0 
C -644.33134605 -63.35291676 -31.71001484     1     962    964    965    966
H -643.29356905 -61.97452705 -32.86957616     6     963    0    0    0
H -645.96522826 -62.44401903 -30.80652241     6     963    0    0    0
C -642.40579781 -64.06985179 -29.78331453     2     963    967    968    969
H -641.70452959 -62.41875038 -28.99673858     6     966    0    0    0
H -643.15105254 -64.94695161 -28.04638768     6     966    0    0    0
C -640.40863524 -65.75597008 -30.97202877     2     966    970   971   972
H -641.22126243 -67.56296788 -31.56938716     6     969    0    0    0
H -639.57339830 -64.79193643 -32.65511951     6     969    0    0    0
C -638.19442956 -66.26794938 -29.25824138     2     969   973   974   975
H -637.32789646 -64.49400832 -28.84669550     6    972    0    0    0
H -638.86997766 -66.90416524 -27.39668737     6    972    0    0    0
C -636.38144509 -68.18696475 -30.50856851     2    972   976   977   978
H -637.21951567 -70.01669394 -30.79545619     6    975    0    0    0
H -635.81828968 -67.45140126 -32.29775893     6    975    0    0    0
C -633.91186283 -68.27539097 -28.88496321     2    975   979   980   981
H -633.58947128 -66.48498349 -27.70745028     6    978    0    0    0
H -634.15038579 -69.94343926 -27.74702351     6    978    0    0    0
C -631.47016112 -68.76339550 -30.41232952     2    978   982   983   984
H -631.67552288 -70.53020568 -31.39306467     6    981    0    0    0
H -631.23789907 -67.34566490 -31.74846689     6    981    0    0    0
C -628.88446815 -68.77505999 -28.73763801     2    981   985   986   987
H -628.64275622 -66.98852235 -27.70824143     6    984    0    0    0
H -629.11697253 -70.32643279 -27.28917856     6    984    0    0    0
C -626.56603476 -69.19245047 -30.28799790     2    984   988   989   990
H -625.18709630 -69.88935090 -28.81142631     6    987    0    0    0
H -627.02004378 -70.83548690 -31.48676128     6    987    0    0    0
C -625.54241177 -67.07067161 -31.88270251     2    987   991   992   993
H -627.05795940 -66.22617576 -33.14160571     6    990    0    0    0
H -625.29695698 -65.54138660 -30.62016890     6    990    0    0    0
C -622.98949261 -67.44293899 -33.14485182     2    990   994   995   996
H -621.66637327 -67.93349049 -31.66008263     6    993    0    0    0
H -623.03949441 -69.10943258 -34.51818661     6    993    0    0    0
C -622.08498430 -65.15033819 -34.69056217     1    993   997   998   999
H -623.54441371 -64.66630808 -36.03001014     6    996    0    0    0
H -620.52988157 -65.38111554 -36.07083455     6    996    0    0    0
H -621.66809543 -63.58676054 -33.50317366     6    996    0    0    0
H -649.58736199 -67.73968668 -22.27914443     6     1001    0    0    0 
C -648.87492097 -69.36608674 -23.02162024     1     1000    1002    1003    1004
H -647.56461361 -69.94367018 -21.51139272     6     1001    0    0    0
H -650.45737799 -70.71741232 -23.16224935     6     1001    0    0    0
C -647.58348409 -68.89554314 -25.53412323     2     1001    1005    1006    1007
H -648.82057853 -68.04531573 -26.88987287     6     1004    0    0    0
H -646.04330902 -67.82349792 -25.21529475     6     1004    0    0    0
C -646.72804857 -71.41473359 -26.67351479     2     1004    1008   1009   1010
H -645.73116669 -72.42762733 -25.20019287     6     1007    0    0    0
H -648.39838430 -72.62164802 -27.13307975     6     1007    0    0    0
C -645.11386703 -71.33441092 -29.11621237     2     1007   1011   1012   1013
H -646.09553464 -69.97332378 -30.32055122     6    1010    0    0    0
H -643.19691953 -70.53356602 -28.80223168     6    1010    0    0    0
C -644.93363667 -73.87737786 -30.37094935     2    1010   1014   1015   1016
H -644.26013836 -75.30069862 -29.00512815     6    1013    0    0    0
H -646.86578201 -74.39736801 -30.95492536     6    1013    0    0    0
C -643.04206548 -74.07346788 -32.59068795     2    1013   1017   1018   1019
H -643.00664892 -72.37894459 -33.70388825     6    1016    0    0    0
H -641.10948608 -74.23524294 -31.75798032     6    1016    0    0    0
C -643.33411786 -76.44167100 -34.18060636     2    1016   1020   1021   1022
H -643.72362194 -78.14052767 -32.99271490     6    1019    0    0    0
H -644.88409462 -76.16473966 -35.45644454     6    1019    0    0    0
C -641.00405218 -77.25178325 -35.67755355     2    1019   1023   1024   1025
H -639.48905551 -78.15370794 -34.37465563     6    1022    0    0    0
H -641.70463456 -78.86078032 -36.89230845     6    1022    0    0    0
C -639.57157522 -75.14489292 -37.05302022     2    1022   1026   1027   1028
H -640.86915687 -73.73190312 -37.74820313     6    1025    0    0    0
H -638.28265457 -74.00210109 -35.87183023     6    1025    0    0    0
C -637.65748024 -76.06750829 -39.17174813     2    1025   1029   1030   1031
H -635.93855742 -76.96987218 -38.39197854     6    1028    0    0    0
H -638.36459787 -77.45994717 -40.48151291     6    1028    0    0    0
C -636.66268302 -73.74204146 -40.70848013     2    1028   1032   1033   1034
H -638.31275555 -72.81390542 -41.57299106     6    1031    0    0    0
H -635.47933395 -72.31380360 -39.63684067     6    1031    0    0    0
C -634.96407653 -74.45220534 -42.89888622     1    1031   1035   1036   1037
H -633.32686299 -75.16858412 -41.87494389     6    1034    0    0    0
H -634.34979763 -72.86349605 -44.02281981     6    1034    0    0    0
H -635.90307577 -75.86474866 -44.09983680     6    1034    0    0    0
H -640.38620997 -52.44495818 -6.50354194     6     1039    0    0    0 
C -642.08473515 -52.98600856 -5.46604753     1     1038    1040    1041    1042
H -643.51484142 -53.74108443 -6.80897052     6     1039    0    0    0
H -641.55802738 -54.39994179 -4.16702405     6     1039    0    0    0
C -643.20656869 -50.54803779 -4.27313299     2     1039    1043    1044    1045
H -641.60846589 -49.33393526 -3.50152377     6     1042    0    0    0
[...]
 1763      H    -617.5588363900   -53.0835761000   -46.3947410300
 1764      C    -621.1597671600   -53.3370624800   -48.5280348400
 1765      H    -622.3611393200   -52.8284800400   -46.9387124200
 1766      H    -621.9850914800   -52.4901968300   -50.2320259600
 1767      C    -621.0331324400   -56.3981641700   -48.5557526600
 1768      H    -620.1407528700   -57.1494299200   -50.3136726300
 1769      H    -619.9753666800   -56.9751563300   -46.9837163000
 1770      C    -623.6849838900   -57.4860537800   -48.1801733000
 1771      H    -624.3899401800   -56.8582649600   -46.2493260100
 1772      H    -624.9477621700   -56.9636898200   -49.7102349900
 1773      C    -623.6725737400   -60.4872980100   -48.1439027200
 1774      H    -622.7432019000   -60.7699176200   -50.0363675600
 1775      H    -622.4341188800   -61.1590655000   -46.5918426300
 1776      C    -626.2247611600   -61.7582834600   -48.1314249900
 1777      H    -626.8654769900   -61.7072586000   -46.1248826000
 1778      H    -627.4313566800   -60.3764593500   -49.1090254600
 1779      C    -626.3488700700   -64.3215456600   -49.5796924900
 1780      H    -628.3533360900   -64.7715369200   -49.7040639100
 1781      H    -625.7890637700   -64.0347606200   -51.4975312400
 1782      C    -624.7198823900   -66.3469977600   -48.1109767200
 1783      H    -623.7964063600   -65.8719083100   -46.3124571700
 1784      H    -626.0682245800   -67.8456528600   -47.5343192400
 1785      C    -622.6123134000   -67.4241455700   -49.8032502800
 1786      H    -621.7166277300   -65.8025772900   -50.6295888400
 1787      H    -621.1589874400   -68.3108600300   -48.6861049800
 1788      C    -623.7610148700   -69.2426709300   -51.8259634700
 1789      H    -625.1664719800   -70.7699183600   -51.2078512500
 1790      H    -624.6593901500   -68.0948721900   -53.2445313400
 1791      C    -621.5629894900   -70.6093296100   -53.2190474800
 1792      H    -620.5965972300   -71.9243421300   -51.8376734100
 1793      H    -622.4088412800   -72.0350024900   -54.4844361500
 1794      C    -619.6650602500   -68.8018802000   -54.6557472100
 1795      H    -618.4986119200   -67.8498258100   -53.2620960400
 1796      H    -620.5648607100   -67.4381627600   -55.8774860100
 1797      H    -618.4055208600   -69.7620627800   -56.0480744700
 1798      H    -633.1600412100   -26.6237874200    -9.1390770600
 1799      C    -634.3652104600   -25.9842867100   -10.6429667600
 1800      H    -635.9556539100   -25.2714170200    -9.7396907700
 1801      H    -633.3703279200   -24.4467393900   -11.7695333400
 1802      C    -635.5367194800   -28.0586630700   -12.3149968000
 1803      H    -633.9995894000   -28.8730909000   -13.4395866600
 1804      H    -636.2243039700   -29.5464054700   -11.0615830400
 1805      C    -637.5883295600   -27.0048047700   -14.0137066000
 1806      H    -638.9905597500   -26.1487546700   -12.7538496000
 1807      H    -636.7610164400   -25.2417753100   -14.8697396000
 1808      C    -638.5457152800   -28.6976225300   -15.9767835800
 1809      H    -639.7752401400   -27.5727595300   -17.1624976300
 1810      H    -636.9524664700   -29.4528827100   -17.2433886400
 1811      C    -640.0659381400   -30.9128839400   -14.8115913400
 1812      H    -638.9814438900   -32.0571409000   -13.5591055800
 1813      H    -641.6557592800   -30.0288947900   -13.8265558900
 1814      C    -641.2269052400   -32.7188500300   -16.7712879400
 1815      H    -642.1241375300   -31.6992968900   -18.3493078400
 1816      H    -639.4257641500   -33.4580554800   -17.6529000300
 1817      C    -642.9239230300   -34.7705374300   -15.4730495000
 1818      H    -642.1102821900   -35.2156791100   -13.6282837800
 1819      H    -644.6365167100   -33.8367642200   -15.1154988300
 1820      C    -643.5153013000   -37.0049989600   -17.1160640400
 1821      H    -645.0332035800   -36.3215324700   -18.3830402300
 1822      H    -641.7198356100   -37.7269658300   -17.8950828000
 1823      C    -644.8201280600   -39.3203573000   -15.8890731900
 1824      H    -643.8652539300   -40.0454975900   -14.1883969800
 1825      H    -646.6227471800   -38.7112166800   -15.5798138700
 1826      C    -644.9146382000   -41.4981201300   -17.7988121300
 1827      H    -646.1231067400   -40.7334795700   -19.3318009700
 1828      H    -643.0756979500   -41.9377243900   -18.5165665100
 1829      C    -646.2145677200   -43.8771066200   -16.6175017000
 1830      H    -644.9305328900   -44.6116762600   -15.1927102900
 1831      H    -647.8988489600   -43.4829410500   -15.4794678000
 1832      C    -646.9212493600   -45.8247805400   -18.5459390500
 1833      H    -647.5308082000   -47.6247380500   -17.6062641300
 1834      H    -645.4652176300   -46.3617433100   -19.8391858100
 1835      H    -648.6440832500   -45.2322006400   -19.7069757500
 1836      H    -642.5138315700   -42.6761174200   -25.3872655200
 1837      C    -640.7944911600   -41.9129272400   -26.3014263900
 1838      H    -639.3419781100   -42.8617129900   -25.2552449800
 1839      H    -640.8493609400   -42.3385359400   -28.3521532900
 1840      C    -640.5540187800   -38.9672443500   -26.0737859800
 1841      H    -638.5587100200   -38.3148112000   -26.6987966800
 1842      H    -641.9617283000   -38.3061911000   -27.4357931100
 1843      C    -641.0623510200   -37.8073841400   -23.4148651800
 1844      H    -642.5911061600   -38.8820396700   -22.5742822900
 1845      H    -639.5390175000   -37.9669862700   -22.0727579500
 1846      C    -641.9894511800   -35.0857478400   -23.3073847200
 1847      H    -643.8212239300   -34.9425794800   -24.2016898100
 1848      H    -642.5657127400   -34.7115775600   -21.3436174300
 1849      C    -640.2411389200   -33.0605210100   -24.4354493800
 1850      H    -638.4142587600   -33.0259972900   -23.4409122500
 1851      H    -639.6735562400   -33.6846643500   -26.3607144100
 1852      C    -641.2962221800   -30.4027016900   -24.5239822800
 1853      H    -642.9612406500   -30.3336305500   -25.6234376900
 1854      H    -642.2728800400   -30.0708801800   -22.6425171100
 1855      C    -639.4970191500   -28.2657592400   -25.2178796500
 1856      H    -638.4339420100   -27.6381472300   -23.5371437300
 1857      H    -638.2112806700   -29.1173381000   -26.6668584300
 1858      C    -640.8553329300   -25.9803456200   -26.2331850900
 1859      H    -641.4390519000   -26.2809639600   -28.0942554700
 1860      H    -642.6450753000   -25.5364763500   -25.3747720500
 1861      C    -639.0776840000   -23.6616244200   -26.4956136000
 1862      H    -638.3769257100   -22.9225951000   -24.7154980800
 1863      H    -637.4042839000   -24.4489267500   -27.2575298200
 1864      C    -640.1452253100   -21.5477718200   -28.1483654600
 1865      H    -640.2655409000   -22.1919746500   -29.9639984900
 1866      H    -642.0822507600   -20.9351022000   -27.5708042900
 1867      C    -638.3046436000   -19.2958108900   -28.2178739700
 1868      H    -638.3216145900   -18.2749097400   -26.3429718700
 1869      H    -636.4668224100   -19.9439914100   -28.9071394200
 1870      C    -639.1181878800   -17.2247409800   -30.2970441900
 1871      H    -637.5966940900   -15.8204894000   -30.5008461700
 1872      H    -640.9177382200   -16.0976718100   -29.9699827400
 1873      H    -639.1974499700   -18.2565186200   -32.1265000300
 1874      H    -621.7139815600   -44.8458400800   -24.5342518900
 1875      C    -620.1959742800   -45.2865967600   -25.7933821900
 1876      H    -619.9534924200   -43.8060847500   -27.2435740600
 1877      H    -618.4588930400   -45.4803751600   -24.6194470300
 1878      C    -620.8894607900   -47.6205824500   -27.3459321800
 1879      H    -622.0999238200   -46.7633893800   -28.7506496200
 1880      H    -619.2513033800   -48.3180963900   -28.4599891600
 1881      C    -622.1151606100   -49.4108053300   -25.4979683600
 1882      H    -620.8507219500   -50.8648043100   -24.5448150300
 1883      H    -623.4628551600   -48.4865485700   -24.2780174700
 1884      C    -623.9915781100   -51.2714124400   -26.7688906300
 1885      H    -625.4776855900   -50.0805629500   -27.6558574300
 1886      H    -623.1509541700   -52.0744823600   -28.5786088700
 1887      C    -625.1322480600   -53.3095419100   -25.1555757500
 1888      H    -623.5711031500   -54.5250769000   -24.4748574100
 1889      H    -626.0988045000   -52.5731312100   -23.5426590500
 1890      C    -626.9626112800   -55.0784977900   -26.4625359400
 1891      H    -628.4201133100   -53.7459297700   -27.2031747200
 1892      H    -625.9290267100   -56.1909981600   -27.8593685800
 1893      C    -628.4277648900   -56.9876263600   -24.5879782300
 1894      H    -627.0735617300   -58.2022715100   -23.4776535600
 1895      H    -629.4619568000   -56.0336981300   -23.1415798300
 1896      C    -630.3354303700   -58.7386604400   -25.9377802200
 1897      H    -631.0644926900   -57.9854439600   -27.6940705000
 1898      H    -629.4222181300   -60.5301016100   -26.4191431500
 1899      C    -632.4793489500   -59.4677605800   -24.1160897600
 1900      H    -631.3579616000   -59.8573712800   -22.2987050000
 1901      H    -633.6658573500   -57.8775579300   -23.6273556300
 1902      C    -634.0655990800   -61.7042140500   -25.1284751100
 1903      H    -635.2701661300   -60.9706695900   -26.6551794000
 1904      H    -632.6968338000   -62.8552626600   -26.0533683800
 1905      C    -635.5852776100   -63.0012204300   -22.9962725800
 1906      H    -636.4448096100   -61.4502636000   -22.0584743100
 1907      H    -637.1254690500   -64.0808256300   -23.7659404900
 1908      C    -634.1901993000   -64.7168261200   -21.2927468300
 1909      H    -632.4818098700   -63.9236544700   -20.2604900000
 1910      H    -633.6113830000   -66.4040019400   -22.2362469800
 1911      H    -635.6005906100   -65.3019675900   -19.9013077100
 ----------------------------------------------------------------
 Nuclear Repulsion Energy =           0.00000000 hartrees
 There are     2498 alpha and     2498 beta electrons

 Total QAlloc Memory Limit   2000 MB
 Mega-Array Size       204 MB
 MEM_STATIC part       192 MB
   **** Step 1: MM calculation on the entire system **** 
 OPLSAA force field loaded.
Reading user-defined FF parameters...
 Reading user defined atom types.
 Found 3 user defined AtomTypes
finished.
Determining angles, torsions, etc. from user defined input
Determining VDW/Coulomb pairs... (useList = 0)

 Time req'd to get MM system information: 0.2 s (CPU) 0.3 s (wall)

 ------ MM Energies ------
   Ebond:           568.003674127610
   Eangle:          858.155771354488
   EUreyBrad:         0.000000000000
   Eimptors:          0.000000000000
   Etorsion:        227.773758685970
   Evdw:        1207582.830143857514
   Ecoulomb:        185.203912674170
   Etot:        1209421.967260699719 Kcal/mol (   1927.336595148697 hartree)
 -------------------------
 Time req'd to calc MM energy: 0.1 s (CPU) 0.1 s (wall)
 OPLSAA force field loaded.
Reading user-defined FF parameters...
 Reading user defined atom types.
 Found 3 user defined AtomTypes
finished.
 Time req'd to get MM system information: 0.0 s (CPU) 0.0 s (wall)
 Time req'd to calc MM gradient: 0.2 s (CPU) 0.2 s (wall)
   **** Step 2: MM calculation on the model system **** 
 Reading user defined atom types.
 Found 3 user defined AtomTypes
 ----------------------------------------------------------------
             Standard Nuclear Orientation (Bohr)
    I     Atom           X                Y                Z
 ----------------------------------------------------------------
    1      Fe   -633.6811936200   -47.0605209900   -27.1976703400
    2      C    -633.2515441600   -50.4609509000   -27.7740898200
    3      C    -633.6240574200   -43.6509448400   -26.4228836600
    4      C    -634.7954326100   -46.5101006900   -30.2747959200
    5      C    -636.0131507200   -47.7823750300   -24.8033969600
    6      C    -630.2128916100   -46.8206915300   -26.3184051500
    7      O    -632.9586517700   -52.5978524800   -27.9647485000
    8      O    -633.4150366400   -41.5817843400   -25.7960005000
    9      O    -635.7619812900   -45.9763609000   -32.2524894600
   10      O    -637.7396885400   -47.9688839000   -23.2708598800
   11      O    -628.1975269900   -46.6496092400   -25.7626915000
 ----------------------------------------------------------------
 Nuclear Repulsion Energy =         793.27265324 hartrees
 There are       48 alpha and       48 beta electrons
 OPLSAA force field loaded.
Reading user-defined FF parameters...
 Reading user defined atom types.
 Found 3 user defined AtomTypes
finished.
Determining VDW/Coulomb pairs... (useList = 0)

 No MM bonds in system. Return all possible pairs.
 Time req'd to get MM system information: 0.0 s (CPU) 0.0 s (wall)

 ------ MM Energies ------
   Ebond:             0.000000000000
   Eangle:            0.000000000000
   EUreyBrad:         0.000000000000
   Eimptors:          0.000000000000
   Etorsion:          0.000000000000
   Evdw:        1208031.976228537504
   Ecoulomb:         -6.526792672415
   Etot:        1208025.449435865041 Kcal/mol (   1925.111102324486 hartree)
 -------------------------
 Eold: 1927.3365951 mm_energy: 1925.1111023 Enew:    2.2254928
 Time req'd to calc MM energy: 0.0 s (CPU) 0.0 s (wall)
 OPLSAA force field loaded.
Reading user-defined FF parameters...
 Reading user defined atom types.
 Found 3 user defined AtomTypes
finished.
Determining VDW/Coulomb pairs... (useList = 0)

 No MM bonds in system. Return all possible pairs.
 Time req'd to get MM system information: 0.0 s (CPU) 0.0 s (wall)
 Number of fixed atoms: 0
 Time req'd to calc MM gradient: 0.0 s (CPU) 0.0 s (wall)
   **** Step 3: QM calculation on the model system **** 
 Requested basis set is def2-mSVP
 There are 80 shells and 174 basis functions

                       Distance Matrix (Bohrs)
             Fe(  1)   C (  2)   C (  3)   C (  4)   C (  5)   C (  6)
   C (  2)  3.475598
   C (  3)  3.496966  6.952748
   C (  4)  3.318613  4.924057  4.938028
   C (  5)  3.419304  4.860685  5.039764  5.747845
   C (  6)  3.586049  4.960233  4.657710  6.062110  6.071498
   O (  7)  5.636711  2.165291  9.103146  6.765412  6.520194  6.604940
   O (  8)  5.661455  9.098306  2.172118  6.800985  6.795792  6.162206
   O (  9)  5.572816  6.816884  6.630429  2.265031  7.669012  8.168148
   O ( 10)  5.719820  6.828830  6.746723  7.736395  2.316115  8.201131
   O ( 11)  5.683187  6.641923  6.234988  7.994430  7.955336  2.097566
             O (  7)   O (  8)   O (  9)   O ( 10)
   O (  8) 11.236793
   O (  9)  8.371830  8.155164
   O ( 10)  8.143602  8.116279  9.410162
   O ( 11)  7.930887  7.273676  9.989580  9.950003

 A cutoff of  1.0D-11 yielded   2481 shell pairs
 There are     12751 function pairs (     14578 Cartesian)
 Smallest overlap matrix eigenvalue = 2.61E-03
 Guess MOs from SCF MO coefficient file
 Reading MOs from coefficient file
 Reading MOs from coefficient file
 A restricted Kohn-Sham SCF calculation will be
 performed using Pulay DIIS extrapolation
 Exchange:  B88      Correlation:  P86
 Using SG-1 standard quadrature grid
 SCF converges when DIIS error is below 1.0E-08
 Using Q-Chem read-in guess as SCF_GUESS READ specified.

 using 2 threads for integral computing
 -------------------------------------------------------
 OpenMP Integral computing Module                
 Release: version 1.0, May 2013, Q-Chem Inc. Pittsburgh 
 -------------------------------------------------------
 ---------------------------------------
  Cycle       Energy         DIIS Error
 ---------------------------------------
    1   -1830.5091681230      2.86E-09
    2   -1830.5091681229      1.55E-08
    3   -1830.5091681231      1.14E-08
    4   -1830.5091681231      5.11E-10 Convergence criterion met
 ---------------------------------------
 SCF time:  CPU 5.11 s  wall 2.68 s
 E(QM + QM/MM):    -1830.5091681231 E(MM):    2.2254928 E(Tot): -1828.283675298887 
 SCF   energy in the final basis set = -1828.28367530
 Total energy in the final basis set = -1828.28367530

 --------------------------------------------------------------

                    Orbital Energies (a.u.)
 --------------------------------------------------------------

 Alpha MOs
 -- Occupied --
******** -29.6343 -25.5947 -25.5801 -25.5789 -18.8968 -18.8937 -18.8932
-18.8626 -18.8595 -10.0584 -10.0583 -10.0509 -10.0400 -10.0324  -3.3175
 -2.1526  -2.1265  -2.1226  -1.0981  -1.0756  -1.0731  -1.0147  -1.0026
 -0.5698  -0.5309  -0.5251  -0.5120  -0.5091  -0.4644  -0.4586  -0.4506
 -0.4421  -0.4409  -0.4351  -0.4346  -0.4169  -0.4125  -0.4009  -0.3943
 -0.3900  -0.3889  -0.3813  -0.3728  -0.2720  -0.2690  -0.2258  -0.2243
 -- Virtual --
 -0.0995  -0.0932  -0.0873  -0.0789  -0.0757  -0.0719  -0.0668  -0.0615
 -0.0492  -0.0376  -0.0250   0.0113   0.1890   0.2146   0.2221   0.2543
  0.2918   0.3193   0.3495   0.4019   0.4039   0.4236   0.4290   0.4346
  0.4439   0.4713   0.4835   0.4952   0.5299   0.5568   0.5717   0.5796
  0.5861   0.6237   0.6494   0.6646   0.7281   0.7331   0.7564   0.7760
  0.8006   0.8284   0.8342   0.8524   0.8872   0.8940   0.9446   0.9491
  0.9762   0.9847   0.9855   0.9998   1.0125   1.0188   1.0339   1.0596
  1.2220   1.2612   1.2872   1.3085   1.3800   1.3987   1.4009   1.4131
  1.4144   1.4303   1.4352   1.4441   1.4471   1.4569   1.4661   1.4822
  1.5118   1.5286   1.5357   1.5607   1.5870   1.6306   1.6494   1.6620
  1.6785   1.8213   1.8303   1.8337   1.8374   1.8408   1.8511   1.8535
  1.8567   1.8633   1.8677   1.8829   1.8897   1.9019   1.9089   1.9450
  2.3674   2.3833   2.4073   2.4460   2.4572   2.4706   2.4847   2.4911
  2.4939   2.5230   2.6231   2.6418   2.6585   2.6697   2.6868   2.8120
  2.8224   2.8710   2.9385   2.9758  13.2579  13.2719  13.3025  13.3228
 13.4490  24.9244  24.9367  24.9488  24.9703  25.0311
 --------------------------------------------------------------

          Ground-State Mulliken Net Atomic Charges

     Atom                 Charge (a.u.)
  ----------------------------------------
      1 Fe                   -0.475391
      2 C                     0.201626
      3 C                     0.203860
      4 C                     0.208802
      5 C                     0.230432
      6 C                     0.190893
      7 O                    -0.088306
      8 O                    -0.090985
      9 O                    -0.159895
     10 O                    -0.173806
     11 O                    -0.047229
  ----------------------------------------
  Sum of atomic charges =     0.000000

 -----------------------------------------------------------------
                    Cartesian Multipole Moments
 -----------------------------------------------------------------
    Charge (ESU x 10^10)
                -0.0000
    Dipole Moment (Debye)
         X       1.5040187323      Y      -0.1203708102      Z       0.1999506846
       Tot       1.5220189734
    Quadrupole Moments (Debye-Ang)
        XX   -1078.1321     XY       2.7693     YY     -61.5667
        XZ     -88.1363     YZ      -2.3074     ZZ     -77.4474
    Octopole Moments (Debye-Ang^2)
       XXX  577224.1703    XXY   13406.2542    XYY   21581.9496
       YYY    4819.3767    XXZ   37616.3486    XYZ    1298.0474
       YYZ     958.8046    XZZ   26275.0174    YZZ    1872.8601
       ZZZ    3215.4217
    Hexadecapole Moments (Debye-Ang^3)
      XXXX ************   XXXY ************   XXYY ************
      XYYY ************   YYYY -244399.2352   XXXZ ************
      XXYZ -635741.8664   XYYZ -334513.4624   YYYZ  -70399.7640
      XXZZ ************   XYZZ -635561.1121   YYZZ  -59348.8528
      XZZZ ************   YZZZ  -78971.3681   ZZZZ  -91888.0342
 -----------------------------------------------------------------
 Calculating MO derivatives via CPSCF
 Full subspace dimension requested for CIS/TDDFT
 MAX_CIS_SUBSPACE fits in available memory
    1     0    36    0.0406572  
    2     0    36    0.0071394  
    3     0    36    0.0010023  
