                  Welcome to Q-Chem
     A Quantum Leap Into The Future Of Chemistry


 Q-Chem 5.4 (devel), Q-Chem, Inc., Pleasanton, CA (2021)

 E. Epifanovsky,  A. T. B. Gilbert,  Xintian Feng,  Joonho Lee,  Yuezhi Mao,  
 N. Mardirossian,  P. Pokhilko,  A. White,  M. Wormit,  M. P. Coons,  
 A. L. Dempwolff,  Zhengting Gan,  D. Hait,  P. R. Horn,  L. D. Jacobson,  
 I. Kaliman,  J. Kussmann,  A. W. Lange,  Ka Un Lao,  D. S. Levine,  Jie Liu,  
 S. C. McKenzie,  A. F. Morrison,  K. Nanda,  F. Plasser,  D. R. Rehn,  
 M. L. Vidal,  Zhi-Qiang You,  Ying Zhu,  B. Alam,  B. Albrecht,  
 A. Aldossary,  E. Alguire,  J. H. Andersen,  D. Barton,  K. Begam,  A. Behn,  
 Y. A. Bernard,  E. J. Berquist,  H. Burton,  A. Carreras,  K. Carter-Fenk,  
 R. Chakraborty,  A. D. Chien,  K. D. Closser,  V. Cofer-Shabica,  
 S. Dasgupta,  Jia Deng,  M. de Wergifosse,  M. Diedenhofen,  Hainam Do,  
 S. Ehlert,  Po-Tung Fang,  S. Fatehi,  Qingguo Feng,  T. Friedhoff,  
 J. Gayvert,  Qinghui Ge,  G. Gidofalvi,  M. Goldey,  J. Gomes,  
 C. Gonzalez-Espinoza,  S. Gulania,  A. Gunina,  M. W. D. Hanson-Heine,  
 P. H. P. Harbach,  A. W. Hauser,  M. F. Herbst,  M. Hernandez Vera,  
 M. Hodecker,  Z. C. Holden,  S. Houck,  Xunkun Huang,  Kerwin Hui,  
 B. C. Huynh,  M. Ivanov,  Hyunjun Ji,  Hanjie Jiang,  B. Kaduk,  S. Kaehler,  
 K. Khistyaev,  Jaehoon Kim,  P. Klunzinger,  Z. Koczor-Benda,  
 Joong Hoon Koh,  D. Kosenkov,  L. Koulias,  T. Kowalczyk,  C. M. Krauter,  
 K. Kue,  A. Kunitsa,  T. Kus,  A. Landau,  K. V. Lawler,  D. Lefrancois,  
 S. Lehtola,  Rain Li,  Yi-Pei Li,  Jiashu Liang,  M. Liebenthal,  
 Hung-Hsuan Lin,  You-Sheng Lin,  Fenglai Liu,  Kuan-Yu Liu,  
 M. Loipersberger,  A. Luenser,  A. Manjanath,  P. Manohar,  E. Mansoor,  
 S. F. Manzer,  Shan-Ping Mao,  A. V. Marenich,  T. Markovich,  S. Mason,  
 S. A. Maurer,  P. F. McLaughlin,  M. F. S. J. Menger,  J.-M. Mewes,  
 S. A. Mewes,  P. Morgante,  J. W. Mullinax,  K. J. Oosterbaan,  G. Paran,  
 Alexander C. Paul,  Suranjan K. Paul,  F. Pavosevic,  Zheng Pei,  S. Prager,  
 E. I. Proynov,  E. Ramos,  B. Rana,  A. E. Rask,  A. Rettig,  R. M. Richard,  
 F. Rob,  E. Rossomme,  T. Scheele,  M. Scheurer,  M. Schneider,  
 N. Sergueev,  S. M. Sharada,  W. Skomorowski,  D. W. Small,  C. J. Stein,  
 Yu-Chuan Su,  E. J. Sundstrom,  Zhen Tao,  J. Thirman,  T. Tsuchimochi,  
 N. M. Tubman,  S. P. Veccham,  O. Vydrov,  J. Wenzel,  J. Witte,  A. Yamada,  
 Kun Yao,  S. Yeganeh,  S. R. Yost,  A. Zech,  Igor Ying Zhang,  Xing Zhang,  
 Yu Zhang,  D. Zuev,  A. Aspuru-Guzik,  A. T. Bell,  N. A. Besley,  
 K. B. Bravaya,  B. R. Brooks,  D. Casanova,  Jeng-Da Chai,  S. Coriani,  
 C. J. Cramer,  A. E. DePrince, III,  R. A. DiStasio Jr.,  A. Dreuw,  
 B. D. Dunietz,  T. R. Furlani,  W. A. Goddard III,  S. Grimme,  
 S. Hammes-Schiffer,  T. Head-Gordon,  W. J. Hehre,  Chao-Ping Hsu,  
 T.-C. Jagau,  Yousung Jung,  A. Klamt,  Jing Kong,  D. S. Lambrecht,  
 WanZhen Liang,  N. J. Mayhall,  C. W. McCurdy,  J. B. Neaton,  
 C. Ochsenfeld,  J. A. Parkhill,  R. Peverati,  V. A. Rassolov,  Yihan Shao,  
 L. V. Slipchenko,  T. Stauch,  R. P. Steele,  J. E. Subotnik,  
 A. J. W. Thom,  A. Tkatchenko,  D. G. Truhlar,  T. Van Voorhis,  
 T. A. Wesolowski,  K. B. Whaley,  H. L. Woodcock III,  P. M. Zimmerman,  
 S. Faraji,  P. M. W. Gill,  M. Head-Gordon,  J. M. Herbert,  A. I. Krylov

 Additional authors for Version 5.4.1: 
 S. Kotaru,  Shaozhi Li,  Xiangyuan Li,  F. Matz,  A. Molle,  Haisheng Ren,  
 Yingli Su,  Hung-Yi Tsai,  C. Utku,  Fang Wang

 Contributors to earlier versions of Q-Chem not listed above: 
 R. D. Adamson,  B. Austin,  R. Baer,  J. Baker,  G. J. O. Beran,  
 K. Brandhorst,  S. T. Brown,  E. F. C. Byrd,  A. K. Chakraborty,  
 G. K. L. Chan,  Chun-Min Chang,  Yunqing Chen,  C.-L. Cheng,  
 Siu Hung Chien,  D. M. Chipman,  D. L. Crittenden,  H. Dachsel,  
 R. J. Doerksen,  A. D. Dutoi,  R. G. Edgar,  J. Fosso-Tande,  
 L. Fusti-Molnar,  D. Ghosh,  A. Ghysels,  A. Golubeva-Zadorozhnaya,  
 J. Gonthier,  M. S. Gordon,  S. R. Gwaltney,  G. Hawkins,  J. E. Herr,  
 A. Heyden,  S. Hirata,  E. G. Hohenstein,  G. Kedziora,  F. J. Keil,  
 C. Kelley,  Jihan Kim,  R. A. King,  R. Z. Khaliullin,  P. P. Korambath,  
 W. Kurlancheek,  A. Laurent,  A. M. Lee,  M. S. Lee,  S. V. Levchenko,  
 Ching Yeh Lin,  D. Liotard,  E. Livshits,  R. C. Lochan,  I. Lotan,  
 L. A. Martinez-Martinez,  P. E. Maslen,  N. Nair,  D. P. O'Neill,  
 D. Neuhauser,  E. Neuscamman,  C. M. Oana,  R. Olivares-Amaya,  R. Olson,  
 T. M. Perrine,  B. Peters,  P. A. Pieniazek,  A. Prociuk,  Y. M. Rhee,  
 J. Ritchie,  M. A. Rohrdanz,  E. Rosta,  N. J. Russ,  H. F. Schaefer III,  
 M. W. Schmidt,  N. E. Schultz,  S. Sharma,  N. Shenvi,  C. D. Sherrill,  
 A. C. Simmonett,  A. Sodt,  T. Stein,  D. Stuck,  K. S. Thanthiriwatte,  
 V. Vanovschi,  L. Vogt,  Tao Wang,  A. Warshel,  M. A. Watson,  
 C. F. Williams,  Q. Wu,  X. Xu,  Jun Yang,  W. Zhang,  Yan Zhao

 Please cite Q-Chem as follows:
 Y. Shao et al., Mol. Phys. 113, 184-215 (2015)
 DOI: 10.1080/00268976.2014.952696

 Q-Chem 5.4.1 for Intel X86 EM64T Linux

 Parts of Q-Chem use Armadillo 9.900.5 (Nocturnal Misbehaviour).
 http://arma.sourceforge.net/

 Q-Chem begins on Wed Jun  1 23:30:23 2022  

 Host: p09r14n13.grace.hpc.yale.internal
0

     Scratch files written to /home/tl686/scratch60/qchem_dev/scratch/qchem244287//
 Processing $rem in /home/tl686/qchem_dev/qchem/config/preferences:
 Processing $rem in /home/tl686/.qchemrc:
Applying user defined connections for MM calculations

 Checking the input file for inconsistencies... 	...done.

--------------------------------------------------------------
User input:
--------------------------------------------------------------
$molecule
0   1
 Fe 1477.18734741 -16.97465198 3.00585257    -1  0   0   0   0
C 1473.74564862 -17.16678264 3.59012748    -2  0   0   0   0 
C 1478.47461394 -15.48683896 0.23460184    -2  0   0   0   0
C 1479.16420694 -18.27360825 5.70971954    -2  0   0   0   0
C 1477.30337568 -19.81944207 1.23534665    -2  0   0   0   0
C 1477.40625119 -14.02492255 4.88737143    -2  0   0   0   0
O 1471.52601016 -17.33886935 3.91169418    -3  0   0   0   0
O 1479.31103485 -14.54186081 -1.60849272    -3  0   0   0   0 
O 1480.44192213 -19.31901360 7.11373888    -3  0   0   0   0
O 1477.61558223 -21.47442080 -0.27137394    -3  0   0   0   0 
O 1477.11264812 -11.94915807 5.64477728    -3  0   0   0   0
H 1460.01026706 -39.91091418 18.57050239      6     13    0    0    0 
C 1459.39233036 -39.82760693 16.58498166     1     12    14    15    16
H 1457.40738199 -40.41154536 16.78911410     6     13    0    0    0
H 1459.58586220 -37.97227447 15.90817115     6     13    0    0    0
C 1461.27980739 -41.76281172 15.34523896     2     13    17    18    19
H 1461.15407798 -43.47783671 16.32791298     6     16    0    0    0
H 1460.52635801 -42.56404273 13.55832528     6     16    0    0    0
C 1464.04006620 -40.81563053 15.16950874     2     16    20   21   22
H 1464.04874174 -38.89776246 14.45049449     6     19    0    0    0
H 1464.71649620 -40.76787776 17.10945231     6     19    0    0    0
C 1465.68411439 -42.50599497 13.43473041     2     19   23   24   25
H 1465.58054201 -44.30700443 14.21281892     6    22    0    0    0
H 1464.87898649 -43.03448150 11.82067452     6    22    0    0    0
C 1468.42182922 -41.52550010 13.45282632     2    22   26   27   28
H 1468.61847864 -39.45764557 13.36506969     6    25    0    0    0
H 1469.11888318 -41.88442563 15.38765206     6    25    0    0    0
C 1470.12286083 -42.63868218 11.41593630     2    25   29   30   31
H 1472.00807901 -42.28476944 11.87193206     6    28    0    0    0
H 1469.88455944 -44.68397051 11.41975728     6    28    0    0    0
C 1469.41738494 -41.39152509 8.80479139     2    28   32   33   34
H 1467.85516397 -42.54686899 7.98230327     6    31    0    0    0
H 1468.66891651 -39.56035233 9.17381025     6    31    0    0    0
C 1471.48131062 -41.20638313 6.90073187     2    31   35   36   37
H 1473.10663553 -40.55684753 7.90723786     6    34    0    0    0
H 1471.88172408 -42.94751918 5.99607964     6    34    0    0    0
C 1470.71638670 -39.47118963 4.66856909     2    34   38   39   40
H 1469.07461433 -40.26653617 3.90226793     6    37    0    0    0
H 1470.28934862 -37.59434458 5.20787208     6    37    0    0    0
C 1472.66310056 -39.11623815 2.47930418     2    37   41   42   43
H 1474.25735032 -37.85442669 2.84169911     6    40    0    0    0
H 1473.71501682 -40.90457764 2.04550864     6    40    0    0    0
C 1471.50161349 -38.27626668 -0.11151702     2    40   44   45   46
H 1469.53122761 -38.70451846 -0.42489549     6    43    0    0    0
H 1471.04004297 -36.32140471 0.03128368     6    43    0    0    0
C 1473.07404694 -38.57620295 -2.54571048     1    43   47   48   49
H 1474.89259578 -37.99424696 -2.03928667     6    46    0    0    0
H 1472.43758678 -37.41713578 -4.08074932     6    46    0    0    0
H 1473.39255564 -40.53327073 -2.91453882     6    46    0    0    0
H 1468.71262458 -24.25455166 -2.56421564     6     51    0    0    0 
C 1470.16270679 -23.56282593 -1.31914801     1     50    52    53    54
H 1471.64489550 -23.02373049 -2.55331197     6     51    0    0    0
H 1469.51728722 -21.85546767 -0.35688322     6     51    0    0    0
C 1471.14769363 -25.37955477 0.58651779     2     51    55    56    57
H 1471.77758707 -24.15353485 2.08266976     6     54    0    0    0
H 1469.76450768 -26.57804777 1.37374761     6     54    0    0    0
C 1473.48635234 -26.99615845 -0.06469830     2     54    58   59   60
H 1474.89831225 -25.71573746 -0.62582070     6     57    0    0    0
H 1474.06569602 -28.19364611 1.45680797     6     57    0    0    0
C 1472.94854912 -28.83586359 -2.26700421     2     57   61   62   63
H 1471.13236319 -29.60389110 -2.19648110     6    60    0    0    0
H 1473.03854371 -27.70420963 -3.96886720     6    60    0    0    0
C 1475.06738687 -30.81658352 -2.62298903     2    60   64   65   66
H 1476.72640599 -29.56405989 -3.05441480     6    63    0    0    0
H 1475.45404666 -31.86232856 -0.82361250     6    63    0    0    0
C 1474.51201262 -32.47734637 -4.95122195     2    63   67   68   69
H 1476.09212464 -33.86893528 -4.89155356     6    66    0    0    0
H 1472.69138178 -33.46077873 -5.02726502     6    66    0    0    0
C 1474.77756271 -31.23423242 -7.53470735     2    66   70   71   72
H 1473.20619138 -29.87994280 -7.62036589     6    69    0    0    0
H 1476.51552866 -30.12486984 -7.56116950     6    69    0    0    0
C 1474.62418607 -33.11875628 -9.76826399     2    69   73   74   75
H 1476.25302355 -34.12614397 -9.84165477     6    72    0    0    0
H 1472.97843671 -34.46213918 -9.69588831     6    72    0    0    0
C 1474.47589295 -31.69283211 -12.34359041     2    72   76   77   78
H 1473.24017195 -30.09483025 -12.28114641     6    75    0    0    0
H 1476.38582556 -30.92750990 -12.65607261     6    75    0    0    0
C 1473.61327312 -33.45007950 -14.44760307     2    75   79   80   81
H 1474.95459387 -35.09723739 -14.90115382     6    78    0    0    0
H 1471.75697599 -34.14855832 -13.76630373     6    78    0    0    0
C 1473.20994784 -32.13278517 -16.96884366     2    78   82   83   84
H 1471.88249677 -30.65754620 -16.66801134     6    81    0    0    0
H 1474.73962169 -31.03615305 -17.63189375     6    81    0    0    0
C 1472.70049508 -34.07125384 -19.21628434     1    81   85   86   87
H 1472.15264561 -32.89255912 -20.91710144     6    84    0    0    0
H 1471.16416268 -35.31779626 -18.74895872     6    84    0    0    0
H 1474.41257963 -35.00279793 -19.91283924     6    84    0    0    0
H 1493.85678410 -47.64657294 16.30162046     6     89    0    0    0 
C 1493.90508771 -48.60736711 14.35500646     1     88    90    91    92
H 1495.57927273 -48.09245175 13.48204951     6     89    0    0    0
H 1493.66025746 -50.61778506 15.02433535     6     89    0    0    0
C 1491.66554841 -47.82212030 12.71194634     2     89    93    94    95
H 1490.21042389 -48.20663863 14.13111446     6     92    0    0    0
H 1491.69787600 -45.83344075 12.31107396     6     92    0    0    0
C 1491.34337575 -49.30732445 10.12067873     2     92    96   97   98
H 1493.03644970 -49.32557224 9.03872286     6     95    0    0    0
H 1491.08177221 -51.27584022 10.38049303     6     95    0    0    0
C 1489.59611620 -48.03455032 8.30073011     2     95   99   100   101
H 1487.89183850 -47.39138516 9.27892295     6    98    0    0    0
H 1490.30351429 -46.25073343 7.72092531     6    98    0    0    0
C 1488.51119563 -49.98659364 6.31886123     2    98   102   103   104
H 1490.09221622 -50.36390889 4.91174645     6    101    0    0    0
H 1488.14271755 -51.69843206 7.32402385     6    101    0    0    0
C 1486.08125018 -49.39417966 4.68731604     2    101   105   106   107
H 1484.65626857 -48.51720009 5.97575289     6    104    0    0    0
H 1486.72258867 -47.91077413 3.45921555     6    104    0    0    0
C 1484.83111155 -51.47919016 3.01459386     2    104   108   109   110
H 1486.29394645 -52.16218393 1.68906191     6    107    0    0    0
H 1484.27350921 -53.07052155 4.28064747     6    107    0    0    0
C 1482.52161121 -50.62920840 1.38141844     2    107   111   112   113
H 1480.95306866 -49.95403408 2.59310484     6    110    0    0    0
H 1482.91826925 -48.92695149 0.32170139     6    110    0    0    0
C 1481.58061645 -52.59139701 -0.29709559     2    110   114   115   116
H 1483.18381397 -53.43492070 -1.18300757     6    113    0    0    0
H 1480.61402628 -54.19028216 0.63302697     6    113    0    0    0
C 1479.67027196 -51.39966644 -2.27533757     2    113   117   118   119
H 1477.79402147 -51.10941151 -1.39959997     6    116    0    0    0
H 1480.30712345 -49.40362450 -2.83928071     6    116    0    0    0
C 1479.36825639 -53.11052189 -4.65107503     2    116   120   121   122
H 1478.25008398 -52.09201215 -6.04750476     6    119    0    0    0
H 1480.90326548 -53.49577459 -5.85655776     6    119    0    0    0
C 1478.16776281 -55.73145190 -4.21714461     1    119   123   124   125
H 1477.88025451 -56.41701051 -6.16672858     6    122    0    0    0
H 1476.27109918 -55.60506576 -3.10308193     6    122    0    0    0
H 1479.34899510 -57.12248259 -3.30394225     6    122    0    0    0
H 1498.15020524 -34.59299913 14.71135330     6     127    0    0    0 
C 1498.17671980 -32.59534809 14.99176185     1     126    128    129    130
H 1499.73744188 -31.90244434 16.32195869     6     127    0    0    0
H 1498.63556406 -31.80915344 13.15964465     6     127    0    0    0
C 1495.61263557 -31.55439148 15.66381423     2     127    131    132    133
H 1494.44794026 -32.45530846 14.12710627     6     130    0    0    0
H 1495.04618281 -32.24881897 17.56560680     6     130    0    0    0
C 1495.48720156 -28.69740854 15.50493513     2     130    134   135   136
H 1497.15448128 -27.84170156 16.35738406     6     133    0    0    0
H 1495.71292926 -27.94680074 13.54386437     6     133    0    0    0
C 1493.06226056 -27.65130544 16.44657960     2     133   137   138   139
H 1491.46597346 -28.48944276 15.55900539     6    136    0    0    0
H 1492.57409137 -28.04381238 18.50756120     6    136    0    0    0
C 1493.24170007 -24.79396336 16.34410301     2    136   140   141   142
H 1494.91122818 -23.95509074 17.31731486     6    139    0    0    0
H 1493.08588671 -24.09058552 14.27676282     6    139    0    0    0
C 1491.00224201 -23.60290811 17.60627095     2    139   143   144   145
H 1489.21372534 -24.34260602 16.72617772     6    142    0    0    0
H 1491.20039285 -23.94632457 19.77041302     6    142    0    0    0
C 1491.02149426 -20.75424025 17.26619463     2    142   146   147   148
H 1492.80974534 -19.87768085 17.85524590     6    145    0    0    0
H 1490.83039032 -20.16457311 15.19177957     6    145    0    0    0
C 1488.77278521 -19.31758388 18.72156315     2    145   149   150   151
H 1487.05737135 -19.99207758 17.91195659     6    148    0    0    0
H 1488.74139855 -19.83018604 20.85645767     6    148    0    0    0
C 1488.85555575 -16.33536791 18.54972223     2    148   152   153   154
H 1490.61968607 -15.64797168 19.28624576     6    151    0    0    0
H 1488.71793774 -15.65851051 16.52772108     6    151    0    0    0
C 1486.66228389 -14.94846152 19.91914124     2    151   155   156   157
H 1486.69400704 -12.93433857 19.43846436     6    154    0    0    0
H 1484.97954450 -15.76372530 19.10292878     6    154    0    0    0
C 1486.47180986 -15.28360571 22.79621590     2    154   158   159   160
H 1486.38084760 -17.13378692 23.38897703     6    157    0    0    0
H 1488.27224559 -14.66910405 23.74228049     6    157    0    0    0
C 1484.19785009 -14.12971914 24.13777628     1    157   161   162   163
H 1483.79531708 -15.19606158 25.83820757     6    160    0    0    0
H 1482.54193666 -14.13445856 23.05347739     6    160    0    0    0
H 1484.62174964 -12.17074161 24.62178170     6    160    0    0    0
H 1511.83435675 -40.71506246 -1.05058391     6     165    0    0    0 
C 1511.09861327 -40.98553796 0.81730087     1     164    166    167    168
H 1509.89003201 -42.63524883 0.88658690     6     165    0    0    0
H 1512.69811467 -41.26437370 1.98928150     6     165    0    0    0
C 1509.65869401 -38.56193352 1.45607335     2     165    169    170    171
H 1511.02510875 -36.99605214 1.07493204     6     168    0    0    0
H 1508.31879560 -38.07088612 0.03388951     6     168    0    0    0
C 1508.68054934 -38.47874094 4.21512683     2     168    172   173   174
H 1507.55552762 -40.07841856 4.65849243     6     171    0    0    0
H 1510.42264188 -38.87206901 5.21056051     6     171    0    0    0
C 1507.51896866 -35.92633390 5.04932232     2     171   175   176   177
H 1508.33719943 -34.17028587 4.35268464     6    174    0    0    0
H 1505.67630017 -35.60676436 4.35397855     6    174    0    0    0
C 1507.57257757 -35.78560814 7.98305048     2    174   178   179   180
H 1505.99792060 -36.83390711 8.71201544     6    177    0    0    0
H 1509.42776624 -36.62313982 8.59114296     6    177    0    0    0
C 1507.23869071 -33.00291586 9.15464730     2    177   181   182   183
H 1505.63607924 -32.17744228 8.31400788     6    180    0    0    0
H 1507.01400620 -33.14839013 11.26372816     6    180    0    0    0
C 1509.57938378 -31.28240533 8.42504563     2    180   184   185   186
H 1511.29960772 -32.32854799 8.68280481     6    183    0    0    0
H 1509.53369069 -30.80487138 6.49101737     6    183    0    0    0
C 1509.62013801 -28.93839101 10.21596595     2    183   187   188   189
H 1507.81055152 -27.98112641 10.26460914     6    186    0    0    0
H 1509.79890472 -29.84320615 12.09077105     6    186    0    0    0
C 1511.74138476 -26.82159759 9.68036903     2    186   190   191   192
H 1513.69093530 -27.36551971 9.89498487     6    189    0    0    0
H 1511.74822856 -26.34794918 7.72330708     6    189    0    0    0
C 1511.34388311 -24.25709884 10.85006583     2    189   193   194   195
H 1509.63752341 -23.42264117 10.26044758     6    192    0    0    0
H 1511.13788319 -24.46695411 12.84169790     6    192    0    0    0
C 1513.46459181 -22.33796513 10.41090551     2    192   196   197   198
H 1515.28058522 -23.20669328 10.73521753     6    195    0    0    0
H 1513.53786116 -21.97515990 8.39912902     6    195    0    0    0
C 1513.22135148 -20.17642791 12.26255490     1    195   199   200   201
H 1514.95959676 -19.15846253 12.16872311     6    198    0    0    0
H 1512.76008212 -20.77822333 14.18880681     6    198    0    0    0
H 1511.81002057 -18.71890117 11.50517358     6    198    0    0    0
H 1498.17280876 -35.62341115 -8.45118876     6     203    0    0    0 
C 1497.47266118 -35.44550122 -10.28121019     1     202    204    205    206
H 1498.29667335 -36.87232515 -11.41702284     6     203    0    0    0
H 1495.47066396 -36.01617788 -10.36148416     6     203    0    0    0
C 1497.87979439 -32.85779392 -11.65212956     2     203    207    208    209
H 1497.74600390 -33.12901798 -13.73268077     6     206    0    0    0
H 1496.50704663 -31.58334871 -10.98983641     6     206    0    0    0
C 1500.41703296 -31.63947960 -11.00327943     2     206    210   211   212
H 1500.68236157 -31.71589635 -8.92904467     6     209    0    0    0
H 1502.07014554 -32.43221204 -11.96426636     6     209    0    0    0
C 1500.49043149 -28.72607189 -11.60936004     2     209   213   214   215
H 1498.93609988 -27.82055826 -10.77356926     6    212    0    0    0
H 1502.07642763 -27.87892276 -10.65386908     6    212    0    0    0
C 1500.83624245 -28.35793060 -14.37904573     2    212   216   217   218
H 1502.72894431 -29.25984088 -14.70209511     6    215    0    0    0
H 1499.33398923 -29.18683847 -15.41332277     6    215    0    0    0
C 1500.95450940 -25.67158504 -15.10373051     2    215   219   220   221
H 1499.10121423 -24.56923613 -14.92586501     6    218    0    0    0
H 1502.41345690 -24.85749953 -14.03866164     6    218    0    0    0
C 1501.66189334 -25.29917832 -17.88404731     2    218   222   223   224
H 1503.57318509 -25.82915618 -18.11268346     6    221    0    0    0
H 1500.42497417 -26.62368140 -18.98850466     6    221    0    0    0
C 1501.27817986 -22.49407480 -18.86232289     2    221   225   226   227
H 1499.32223621 -21.99498849 -19.07006446     6    224    0    0    0
H 1501.65582376 -21.14870044 -17.33091384     6    224    0    0    0
C 1502.77474521 -21.82316445 -21.17940600     2    224   228   229   230
H 1504.85370216 -21.90538404 -20.86484246     6    227    0    0    0
H 1502.19315578 -23.21126706 -22.55285741     6    227    0    0    0
C 1502.05679552 -18.99772209 -21.88169121     2    227   231   232   233
H 1500.07899150 -18.47109335 -21.60307704     6    230    0    0    0
H 1503.14753811 -17.69006724 -20.77639978     6    230    0    0    0
C 1502.59933515 -18.48845460 -24.65610145     2    230   234   235   236
H 1504.53631660 -19.09938738 -25.19277071     6    233    0    0    0
H 1501.49784337 -19.91633495 -25.68722067     6    233    0    0    0
C 1502.18309655 -15.79390533 -25.47228407     1    233   237   238   239
H 1502.94123801 -15.50666407 -27.39573508     6    236    0    0    0
H 1503.10293668 -14.55581917 -23.99807019     6    236    0    0    0
H 1500.14874610 -15.31716372 -25.38889757     6    236    0    0    0
H 1475.18639991 -41.51045323 -14.00177379     6     241    0    0    0 
C 1475.43536477 -41.73780988 -12.02706612     1     240    242    243    244
H 1476.87756624 -43.23297810 -11.85990671     6     241    0    0    0
H 1476.20287045 -40.07957994 -11.37521032     6     241    0    0    0
C 1473.07283889 -42.92194541 -10.61491881     2     241    245    246    247
H 1472.49271080 -44.68170965 -11.36645644     6     244    0    0    0
H 1473.70692703 -43.45434006 -8.71697342     6     244    0    0    0
C 1470.75217270 -41.15909956 -10.25389219     2     244    248   249   250
H 1469.30916614 -41.84399436 -9.00619839     6     247    0    0    0
H 1471.33450854 -39.47063043 -9.35921358     6     247    0    0    0
C 1469.52584200 -40.43051917 -12.78442584     2     247   251   252   253
H 1468.12605802 -38.95100638 -12.54354491     6    250    0    0    0
H 1471.01730737 -40.09551327 -14.13171329     6    250    0    0    0
C 1467.95492469 -42.70024035 -13.79283357     2    250   254   255   256
H 1469.16526662 -44.29265331 -14.25524859     6    253    0    0    0
H 1466.76572442 -43.51817086 -12.22117348     6    253    0    0    0
C 1466.08185042 -41.94761518 -15.98747715     2    253   257   258   259
H 1464.80845341 -43.44722014 -16.32996636     6    256    0    0    0
H 1465.03979376 -40.20973626 -15.33580680     6    256    0    0    0
C 1467.37959538 -41.38484143 -18.54254050     2    256   260   261   262
H 1468.69461521 -39.71395422 -18.12052573     6    259    0    0    0
H 1468.40740809 -43.07784709 -19.18643783     6    259    0    0    0
C 1465.47656087 -40.50807251 -20.60711406     2    259   263   264   265
H 1464.61323719 -42.16649649 -21.38015229     6    262    0    0    0
H 1463.95918626 -39.19861053 -20.11373527     6    262    0    0    0
C 1466.91463544 -39.12840715 -22.74105189     2    262   266   267   268
H 1467.99525277 -37.54388486 -21.89895573     6    265    0    0    0
H 1468.31630946 -40.46902064 -23.32956204     6    265    0    0    0
C 1465.15777174 -38.13815215 -24.86152435     2    265   269   270   271
H 1464.18573917 -39.85810004 -25.51278812     6    268    0    0    0
H 1463.90531526 -36.77537985 -23.94943499     6    268    0    0    0
C 1466.54289616 -36.85196668 -26.97474036     2    268   272   273   274
H 1467.66682450 -35.25635779 -26.09592380     6    271    0    0    0
H 1467.76952191 -38.32950710 -27.79548115     6    271    0    0    0
C 1464.95721142 -36.01441434 -29.14501459     1    271   275   276   277
H 1463.93131943 -37.76822957 -29.85967710     6    274    0    0    0
H 1465.93066258 -35.38119783 -30.74590832     6    274    0    0    0
H 1463.61933076 -34.73023848 -28.36827736     6    274    0    0    0
H 1491.51683961 -41.19103632 -8.34249630     6     279    0    0    0 
C 1491.29139215 -41.82557895 -10.28078019     1     278    280    281    282
H 1493.10453366 -41.88513734 -11.34053638     6     279    0    0    0
H 1490.43195171 -43.67287997 -10.10861696     6     279    0    0    0
C 1489.81585938 -39.93714655 -11.73317465     2     279    283    284    285
H 1487.68071007 -39.92924546 -11.44100207     6     282    0    0    0
H 1490.51266613 -37.97584391 -11.30426341     6     282    0    0    0
C 1490.04167066 -40.16219974 -14.72276273     2     282    286   287   288
H 1491.66367010 -40.56738416 -15.61801368     6     285    0    0    0
H 1488.95300530 -41.87516894 -15.20090181     6     285    0    0    0
C 1489.22222240 -37.62200601 -15.87952774     2     285   289   290   291
H 1487.41192314 -37.08295340 -14.99497578     6    288    0    0    0
H 1490.67332194 -36.17648059 -15.58885359     6    288    0    0    0
C 1488.59073237 -38.00322746 -18.73231357     2    288   292   293   294
H 1490.01168807 -39.07424598 -19.72449052     6    291    0    0    0
H 1486.72246384 -39.10969227 -18.68688751     6    291    0    0    0
C 1488.34799012 -35.38177760 -20.06078008     2    291   295   296   297
H 1487.45467742 -34.05081675 -18.66502082     6    294    0    0    0
H 1490.19351740 -34.61539890 -20.60914519     6    294    0    0    0
C 1487.22304611 -35.68204181 -22.87444380     2    294   298   299   300
H 1488.27325200 -37.25484135 -23.72613786     6    297    0    0    0
H 1485.44050471 -36.47319630 -22.43871632     6    297    0    0    0
C 1487.15935939 -33.16339852 -24.38024771     2    297   301   302   303
H 1486.41340190 -31.86848398 -23.11490453     6    300    0    0    0
H 1489.16854388 -32.80220300 -25.00863892     6    300    0    0    0
C 1485.49391351 -33.18167334 -26.66669226     2    300   304   305   306
H 1486.34485874 -34.46059150 -28.13218981     6    303    0    0    0
H 1483.89360208 -34.36572426 -26.11378799     6    303    0    0    0
C 1484.74751254 -30.47787219 -27.29389888     2    303   307   308   309
H 1483.95462208 -29.46320471 -25.55319960     6    306    0    0    0
H 1486.49244096 -29.44458852 -27.72003217     6    306    0    0    0
C 1482.87694935 -30.46808671 -29.63703585     2    306   310   311   312
H 1483.80985511 -31.28554658 -31.31187330     6    309    0    0    0
H 1481.21952851 -31.62353829 -29.41871422     6    309    0    0    0
C 1482.18161476 -27.68617779 -30.17323698     1    309   313   314   315
H 1483.82312697 -26.31085144 -30.32144433     6    312    0    0    0
H 1480.91223733 -27.05488618 -28.59766933     6    312    0    0    0
H 1481.32523479 -27.25867616 -31.95108583     6    312    0    0    0
H 1488.93864927 -41.71569938 10.19044737     6     317    0    0    0 
C 1489.85483115 -40.93090099 8.69285483     1     316    318    319    320
H 1491.79022837 -40.84004608 9.26392627     6     317    0    0    0
H 1489.81579014 -42.35127943 7.41578421     6     317    0    0    0
C 1488.70914334 -38.45039782 7.65728023     2     317    321    322    323
H 1489.31331065 -38.35838376 5.69242691     6     320    0    0    0
H 1486.80612092 -39.14868540 7.47969437     6     320    0    0    0
C 1488.66202567 -36.06167996 9.33333203     2     320    324   325   326
H 1488.04070243 -36.53740973 11.33560261     6     323    0    0    0
H 1490.60744630 -35.20539749 9.25658430     6     323    0    0    0
C 1486.92607410 -34.01587450 8.19045632     2     323   327   328   329
H 1487.67123787 -33.11441894 6.40405149     6    326    0    0    0
H 1485.12540849 -34.79160529 7.68030691     6    326    0    0    0
C 1486.52216490 -31.80151185 9.90026971     2    326   330   331   332
H 1485.67742298 -32.17083716 11.76254557     6    329    0    0    0
H 1488.41024819 -31.05895944 10.24974589     6    329    0    0    0
C 1485.10764125 -29.48928953 8.81644589     2    329   333   334   335
H 1486.52801217 -28.61962893 7.47231796     6    332    0    0    0
H 1483.39933923 -30.23835176 7.92622554     6    332    0    0    0
C 1484.54289898 -27.45115464 10.82695392     2    332   336   337   338
H 1486.00139692 -27.38388262 12.35917296     6    335    0    0    0
H 1484.69114573 -25.57996163 9.88028667     6    335    0    0    0
C 1481.84653256 -27.69976724 12.03165236     2    335   339   340   341
H 1480.57782770 -28.57775526 10.65279745     6    338    0    0    0
H 1482.03834492 -29.15573348 13.54247447     6    338    0    0    0
C 1480.89296902 -25.16965523 13.25538571     2    338   342   343   344
H 1482.04706770 -24.78309039 14.87934887     6    341    0    0    0
H 1481.06990525 -23.74702823 11.91387472     6    341    0    0    0
C 1478.05448651 -25.23214556 14.03645531     2    341   345   346   347
H 1477.67510932 -23.53753056 15.14736637     6    344    0    0    0
H 1477.01668903 -25.19003421 12.36200835     6    344    0    0    0
C 1477.32290856 -27.48962393 15.58162266     2    344   348   349   350
H 1477.92852993 -29.29306763 14.60358519     6    347    0    0    0
H 1478.01957495 -27.47429968 17.53158726     6    347    0    0    0
C 1474.52109131 -27.69106867 15.97667216     1    347   351   352   353
H 1474.10585607 -29.46353196 17.04609214     6    350    0    0    0
H 1473.51331551 -27.75875974 14.31530653     6    350    0    0    0
H 1473.84948795 -26.07631673 17.10684774     6    350    0    0    0
H 1479.52867971 -39.77983658 -7.77519236     6     355    0    0    0 
C 1480.47093899 -40.36082878 -6.02792219     1     354    356    357    358
H 1479.26052379 -39.85336366 -4.49099498     6     355    0    0    0
H 1480.53110618 -42.38902580 -6.13626747     6     355    0    0    0
C 1483.07242708 -39.10936987 -5.65599822     2     355    359    360    361
H 1484.39237175 -39.31354401 -7.23996633     6     358    0    0    0
H 1482.40319033 -37.08230852 -5.41042082     6     358    0    0    0
C 1484.58755551 -40.05898969 -3.27176868     2     358    362   363   364
H 1483.63530600 -39.60343125 -1.50898857     6     361    0    0    0
H 1484.61709082 -42.11265851 -3.48210958     6     361    0    0    0
C 1487.43440209 -39.11756574 -3.31892061     2     361   365   366   367
H 1488.54629700 -40.05965462 -4.70163115     6    364    0    0    0
H 1487.64211625 -37.17427326 -3.99646251     6    364    0    0    0
C 1488.88205861 -39.51932687 -0.78293449     2    364   368   369   370
H 1488.31137827 -38.35563129 0.80421496     6    367    0    0    0
H 1488.42644382 -41.41888813 -0.27682902     6    367    0    0    0
C 1491.67190513 -39.18690225 -1.07104769     2    367   371   372   373
H 1492.27679238 -40.66669251 -2.30555558     6    370    0    0    0
H 1492.11452400 -37.35476918 -1.99250061     6    370    0    0    0
C 1492.78570406 -39.18621170 1.58056403     2    370   374   375   376
H 1491.86910828 -37.71953525 2.64556573     6    373    0    0    0
H 1492.28867516 -41.07557099 2.35394877     6    373    0    0    0
C 1495.66286332 -39.18342281 1.52937984     2    373   377   378   379
H 1496.22875390 -40.90931359 0.62935033     6    376    0    0    0
H 1496.62654114 -37.50726583 0.47662836     6    376    0    0    0
C 1496.87195637 -39.26787639 4.15820231     2    376   380   381   382
H 1495.75262914 -40.57448134 5.34011359     6    379    0    0    0
H 1498.75146468 -40.00042129 4.00463711     6    379    0    0    0
C 1496.92517113 -36.79820080 5.63695525     2    379   383   384   385
H 1497.76453594 -35.16881960 4.62851128     6    382    0    0    0
H 1495.01647940 -36.24372753 5.96395932     6    382    0    0    0
C 1498.10236558 -37.19187209 8.25733338     2    382   386   387   388
H 1497.69635169 -35.46982114 9.15406998     6    385    0    0    0
H 1497.32324758 -38.68000371 9.41765547     6    385    0    0    0
C 1500.88492942 -37.85204643 7.90657772     1    385   389   390   391
H 1501.91041342 -36.28562356 6.84677881     6    388    0    0    0
H 1501.07467328 -39.62906991 7.04782689     6    388    0    0    0
H 1501.81052410 -38.21470838 9.83314455     6    388    0    0    0
H 1468.18664343 -4.51421956 16.15940764     6     393    0    0    0 
C 1467.87449498 -5.26031369 14.32607681     1     392    394    395    396
H 1468.90517574 -3.94886836 13.19727935     6     393    0    0    0
H 1468.93572653 -6.93441082 14.44813031     6     393    0    0    0
C 1465.21211491 -5.96640921 13.40503892     2     393    397    398    399
H 1464.52147267 -7.44283789 14.69273502     6     396    0    0    0
H 1463.96135315 -4.46355063 13.43117118     6     396    0    0    0
C 1465.08831034 -6.63550342 10.61612285     2     396    400   401   402
H 1465.80882549 -5.10881634 9.41631176     6     399    0    0    0
H 1466.72436841 -7.89373691 10.38109209     6     399    0    0    0
C 1462.73729996 -8.04145686 9.53312209     2     399   403   404   405
H 1462.59028003 -9.84937182 10.58665200     6    402    0    0    0
H 1461.14436438 -7.07192483 10.20095810     6    402    0    0    0
C 1462.31787085 -8.24108876 6.70475262     2    402   406   407   408
H 1462.03542428 -6.43376407 6.02844882     6    405    0    0    0
H 1464.08237651 -8.96556751 5.88220271     6    405    0    0    0
C 1459.91136838 -9.83629417 6.04963307     2    405   409   410   411
H 1460.16419238 -11.76764672 6.77928936     6    408    0    0    0
H 1458.30674367 -9.08947780 7.08327514     6    408    0    0    0
C 1459.26611141 -9.86196609 3.18785602     2    408   412   413   414
H 1458.98239522 -8.10962177 2.33141053     6    411    0    0    0
H 1461.06540309 -10.43598615 2.31280645     6    411    0    0    0
C 1457.08691288 -11.75681105 2.46191150     2    411   415   416   417
H 1457.98090973 -13.47152275 1.87180220     6    414    0    0    0
H 1455.80814544 -12.29577976 3.98754580     6    414    0    0    0
C 1455.44269094 -10.76799736 0.25635490     2    414   418   419   420
H 1455.14998274 -8.71675302 0.47924219     6    417    0    0    0
H 1456.32443246 -10.91696017 -1.53546381     6    417    0    0    0
C 1452.95310992 -12.07626203 -0.01369914     2    417   421   422   423
H 1452.85142370 -14.01729393 -0.87869778     6    420    0    0    0
H 1452.31717417 -12.33037348 1.91891975     6    420    0    0    0
C 1450.84963130 -10.57579356 -1.34200206     2    420   424   425   426
H 1448.90371512 -11.51431205 -1.74953097     6    423    0    0    0
H 1450.36708104 -8.81914991 -0.21929714     6    423    0    0    0
C 1451.77969468 -9.90583071 -4.04470552     1    423   427   428   429
H 1450.12555940 -9.38422378 -5.23118907     6    426    0    0    0
H 1452.97087105 -11.23604715 -5.10348142     6    426    0    0    0
H 1452.80784423 -8.08322030 -3.90477164     6    426    0    0    0
H 1454.40213608 -37.54641474 0.38227581     6     431    0    0    0 
C 1455.30584140 -37.11443511 2.21375029     1     430    432    433    434
H 1454.21539949 -37.83443496 3.69271057     6     431    0    0    0
H 1456.97873775 -38.20559079 2.42700507     6     431    0    0    0
C 1455.86506438 -34.26022882 2.27617771     2     431    435    436    437
H 1457.09863340 -33.77238209 0.68993579     6     434    0    0    0
H 1454.18448190 -33.22897654 2.14118908     6     434    0    0    0
C 1457.17218913 -33.26442854 4.78252354     2     434    438   439   440
H 1456.02852561 -33.76683406 6.35268601     6     437    0    0    0
H 1458.86539445 -34.35219917 5.02289394     6     437    0    0    0
C 1457.87041747 -30.37258942 4.79157548     2     437   441   442   443
H 1459.06066097 -30.05241077 6.49111984     6    440    0    0    0
H 1458.75787539 -29.71394420 3.07754853     6    440    0    0    0
C 1455.51530962 -28.69742493 5.25865736     2    440   444   445   446
H 1454.53034945 -28.77703370 3.48985202     6    443    0    0    0
H 1454.30294792 -29.51732996 6.61344104     6    443    0    0    0
C 1456.35284708 -26.11297342 6.31594796     2    443   447   448   449
H 1457.60716240 -26.53422873 7.76738337     6    446    0    0    0
H 1457.55505111 -24.96828750 5.03194540     6    446    0    0    0
C 1454.14835194 -24.50740927 7.39379755     2    446   450   451   452
H 1453.02602847 -23.50832456 5.81598988     6    449    0    0    0
H 1452.92793474 -25.48414411 8.69474004     6    449    0    0    0
C 1455.27347041 -22.32767069 9.06356816     2    449   453   454   455
H 1456.82029870 -22.90615378 10.18857266     6    452    0    0    0
H 1456.13257046 -20.90569914 7.79554876     6    452    0    0    0
C 1453.44367545 -20.96908774 11.01287825     2    452   456   457   458
H 1452.02838412 -19.94925991 9.74843693     6    455    0    0    0
H 1452.27328437 -22.33881909 11.95276697     6    455    0    0    0
C 1454.76418692 -19.19109614 12.98286845     2    455   459   460   461
H 1453.44581349 -18.61778305 14.37922071     6    458    0    0    0
H 1456.22943581 -20.25235420 13.93753756     6    458    0    0    0
C 1455.59779466 -16.73550035 11.64295031     2    458   462   463   464
H 1456.67374100 -17.29663961 9.94580948     6    461    0    0    0
H 1453.84793105 -15.68749364 10.96223165     6    461    0    0    0
C 1457.17721238 -14.94752802 13.46457678     1    461   465   466   467
H 1458.81393920 -16.01652648 14.34646908     6    464    0    0    0
H 1455.93894854 -14.48268163 14.98977373     6    464    0    0    0
H 1457.93119654 -13.28613711 12.51719213     6    464    0    0    0
H 1494.55271808 -44.51898877 1.63310064     6     469    0    0    0 
C 1494.39067201 -46.65355231 1.53392990     1     468    470    471    472
H 1495.80501033 -47.61067389 0.34239763     6     469    0    0    0
H 1494.78412885 -47.47915822 3.40206579     6     469    0    0    0
C 1491.66301642 -47.54508537 0.90425022     2     469    473    474    475
H 1491.58484188 -49.68855171 0.89608918     6     472    0    0    0
H 1490.42058695 -46.57581960 2.27667369     6     472    0    0    0
C 1490.91901533 -46.81461424 -1.86649003     2     472    476   477   478
H 1491.19160700 -44.79059067 -2.12413116     6     475    0    0    0
H 1492.23780760 -47.63244997 -3.20337638     6     475    0    0    0
C 1488.23448761 -47.43268199 -2.45494788     2     475   479   480   481
H 1487.94818137 -49.43517676 -2.16049589     6    478    0    0    0
H 1486.98242925 -46.32815817 -1.33460759     6    478    0    0    0
C 1487.75961588 -46.72370694 -5.21372429     2    478   482   483   484
H 1487.78160018 -44.68721372 -5.44606270     6    481    0    0    0
H 1488.80667674 -47.69378152 -6.69328274     6    481    0    0    0
C 1485.02816762 -47.39739200 -5.91084134     2    481   485   486   487
H 1484.74801630 -49.43010885 -5.72104596     6    484    0    0    0
H 1483.69924787 -46.35653191 -4.78354330     6    484    0    0    0
C 1484.52250234 -46.86073950 -8.68557366     2    484   488   489   490
H 1484.17188714 -44.82470650 -8.76390082     6    487    0    0    0
H 1486.05291217 -47.59243357 -9.86627545     6    487    0    0    0
C 1482.11442780 -48.12361705 -9.63086194     2    487   491   492   493
H 1482.32415144 -50.22463716 -9.73659449     6    490    0    0    0
H 1480.52481376 -47.61109696 -8.42637932     6    490    0    0    0
C 1481.46244407 -47.35278745 -12.23946764     2    490   494   495   496
H 1480.97530654 -45.26937892 -12.24416180     6    493    0    0    0
H 1482.97399669 -47.69896591 -13.49949072     6    493    0    0    0
C 1479.15181228 -48.66665391 -13.38924341     2    493   497   498   499
H 1479.39204008 -50.52964161 -13.51607087     6    496    0    0    0
H 1477.49765787 -48.45260130 -12.05372997     6    496    0    0    0
C 1478.62086634 -47.34377208 -15.88982695     2    496   500   501   502
H 1477.40591760 -45.68181737 -15.74436284     6    499    0    0    0
H 1480.38117407 -46.81187119 -16.80653839     6    499    0    0    0
C 1477.24555269 -49.10324209 -17.78223204     1    499   503   504   505
H 1476.58710078 -48.08727344 -19.49035502     6    502    0    0    0
H 1475.48274945 -49.92948356 -17.11490526     6    502    0    0    0
H 1478.46400747 -50.57180080 -18.58597792     6    502    0    0    0
H 1460.06869516 -40.72520819 -14.83096081     6     507    0    0    0 
C 1458.63616109 -39.39740242 -14.24535649     1     506    508    509    510
H 1458.55803663 -38.05942461 -15.88028085     6     507    0    0    0
H 1456.98484461 -40.47733265 -13.89445754     6     507    0    0    0
C 1459.65252009 -37.85831105 -11.89655805     2     507    511    512    513
H 1460.01278278 -38.98603540 -10.11841355     6     510    0    0    0
H 1461.57942886 -36.88324169 -12.40693227     6     510    0    0    0
C 1457.84106653 -35.69366114 -11.16894372     2     510    514   515   516
H 1457.36354322 -34.77255644 -12.87387980     6     513    0    0    0
H 1456.00784746 -36.46583857 -10.63566586     6     513    0    0    0
C 1458.84144177 -33.80307862 -9.09552262     2     513   517   518   519
H 1459.33925468 -34.89583973 -7.52331261     6    516    0    0    0
H 1460.49313934 -32.90448618 -9.76183229     6    516    0    0    0
C 1456.73106938 -31.86974177 -8.30792237     2    516   520   521   522
H 1456.27205831 -30.78493183 -10.00552818     6    519    0    0    0
H 1455.10542675 -33.03433205 -7.75220361     6    519    0    0    0
C 1457.74286891 -30.06212825 -6.27404185     2    519   523   524   525
H 1458.18923470 -31.09553878 -4.51617379     6    522    0    0    0
H 1459.66970154 -29.27782074 -6.66407116     6    522    0    0    0
C 1455.76252124 -28.24071925 -5.10641996     2    522   526   527   528
H 1454.56326293 -26.99022118 -6.23745821     6    525    0    0    0
H 1454.34365916 -29.38777360 -4.06480883     6    525    0    0    0
C 1456.95568509 -26.27850395 -3.29215536     2    525   529   530   531
H 1457.93242818 -27.16340961 -1.72948175     6    528    0    0    0
H 1458.41064198 -25.22079257 -4.11092054     6    528    0    0    0
C 1455.03892761 -24.32070196 -2.37284228     2    528   532   533   534
H 1453.93481026 -23.34702582 -3.86648834     6    531    0    0    0
H 1453.52842359 -25.40870213 -1.45561678     6    531    0    0    0
C 1456.43743761 -22.24808216 -0.75470213     2    531   535   536   537
H 1457.44873713 -23.00215718 0.75068757     6    534    0    0    0
H 1457.72128529 -21.44776011 -2.07780120     6    534    0    0    0
C 1454.63621966 -20.26296823 0.35240977     2    534   538   539   540
H 1453.37537997 -19.32282139 -0.99617856     6    537    0    0    0
H 1453.24698437 -21.26317976 1.47658378     6    537    0    0    0
C 1456.04017983 -18.32871413 2.01118833     1    537   541   542   543
H 1454.86091821 -16.70054701 2.53271764     6    540    0    0    0
H 1457.74242451 -17.69315070 1.11587175     6    540    0    0    0
H 1456.46553539 -19.17951008 3.82195346     6    540    0    0    0
H 1470.31964059 -21.76302614 10.16625430     6     545    0    0    0 
C 1470.67033397 -20.17209979 11.25946594     1     544    546    547    548
H 1469.79612101 -18.51101555 10.43080504     6     545    0    0    0
H 1469.60943326 -20.21316653 12.99043744     6     545    0    0    0
C 1473.47570603 -19.65195227 11.40829132     2     545    549    550    551
H 1474.30012078 -20.97091543 12.77712719     6     548    0    0    0
H 1474.59348495 -20.20323077 9.69967593     6     548    0    0    0
C 1474.13383040 -16.70080044 12.00467269     2     548    552   553   554
H 1473.59422613 -15.30432390 10.45600619     6     551    0    0    0
H 1473.18876373 -15.98840134 13.66175954     6     551    0    0    0
C 1476.89555395 -16.47222999 12.79349681     2     551   555   556   557
H 1477.41161202 -17.13746973 14.82482645     6    554    0    0    0
H 1478.08849955 -17.80755746 11.66001803     6    554    0    0    0
C 1478.07159023 -13.78700614 12.48216931     2    554   558   559   560
H 1478.00010048 -13.20606757 10.51138061     6    557    0    0    0
H 1477.21061241 -12.43578237 13.76230470     6    557    0    0    0
C 1480.77808676 -13.75144201 13.15657940     2    557   561   562   563
H 1480.80831605 -14.50675334 15.05142057     6    560    0    0    0
H 1481.80076515 -15.16179839 11.82760315     6    560    0    0    0
C 1481.98461602 -11.22212680 12.87997616     2    560   564   565   566
H 1482.18945780 -10.95445577 10.92996142     6    563    0    0    0
H 1480.86096576 -9.67234550 13.71860752     6    563    0    0    0
C 1484.65594480 -11.26984843 13.90004219     2    563   567   568   569
H 1484.80829115 -10.58730968 15.81300627     6    566    0    0    0
H 1485.21745211 -13.22921228 13.97500387     6    566    0    0    0
C 1486.57873582 -9.62432748 12.52125336     2    566   570   571   572
H 1486.30279565 -9.85759739 10.54755838     6    569    0    0    0
H 1485.92832169 -7.67896742 13.10790537     6    569    0    0    0
C 1489.22201447 -10.23997959 13.40393444     2    569   573   574   575
H 1489.50746218 -9.68831951 15.55810476     6    572    0    0    0
H 1489.52943800 -12.31327876 12.86309960     6    572    0    0    0
C 1491.25747668 -8.68000276 11.86008014     2    572   576   577   578
H 1490.94305797 -6.56522351 11.90149610     6    575    0    0    0
H 1492.93004128 -8.94565521 13.06300569     6    575    0    0    0
C 1491.96439317 -9.59282269 9.19116427     1    575   579   580   581
H 1490.34226101 -9.18014984 8.14360154     6    578    0    0    0
H 1492.44986542 -11.62013433 9.15875579     6    578    0    0    0
H 1493.64587920 -8.59861880 8.46456639     6    578    0    0    0
H 1504.27351250 -39.69298585 -7.30952553     6     583    0    0    0 
C 1504.88920580 -37.86221161 -6.52086123     1     582    584    585    586
H 1506.94017872 -37.59079245 -6.49456637     6     583    0    0    0
H 1504.16226810 -36.43215412 -7.82319445     6     583    0    0    0
C 1503.73783967 -37.34688833 -4.01639033     2     583    587    588    589
H 1501.69015750 -37.36521774 -3.99334756     6     586    0    0    0
H 1504.41271185 -38.66983106 -2.57528183     6     586    0    0    0
C 1504.42550255 -34.62316357 -3.31055354     2     586    590   591   592
H 1506.43764164 -34.69634128 -2.87801700     6     589    0    0    0
H 1504.15599792 -33.38507707 -4.91835745     6     589    0    0    0
C 1502.88574992 -33.73136685 -0.95125592     2     589   593   594   595
H 1500.95790534 -33.02452510 -1.35890156     6    592    0    0    0
H 1502.73354934 -35.26866271 0.31727771     6    592    0    0    0
C 1504.07193846 -31.48785128 0.29644151     2    592   596   597   598
H 1506.02698771 -31.92361662 0.39713581     6    595    0    0    0
H 1504.14748430 -30.12382711 -1.23680378     6    595    0    0    0
C 1502.79324290 -30.88735912 2.91389670     2    595   599   600   601
H 1500.77024839 -30.86754642 2.39910588     6    598    0    0    0
H 1503.25101444 -32.37492611 4.32606595     6    598    0    0    0
C 1503.59367433 -28.44909263 4.20189792     2    598   602   603   604
H 1505.64959987 -28.55177355 4.71044609     6    601    0    0    0
H 1503.58189948 -27.02098082 2.80335555     6    601    0    0    0
C 1501.88664763 -27.85677727 6.58184851     2    601   605   606   607
H 1499.78304784 -27.74326877 6.30510907     6    604    0    0    0
H 1502.21417584 -29.18359016 7.90248753     6    604    0    0    0
C 1502.72782995 -25.54989548 8.13961639     2    604   608   609   610
H 1504.69079192 -25.78981423 8.55222885     6    607    0    0    0
H 1502.83162652 -23.77277937 7.01968584     6    607    0    0    0
C 1501.05152029 -25.36707591 10.52842175     2    607   611   612   613
H 1499.02853749 -25.09686318 10.05746961     6    610    0    0    0
H 1501.26341906 -27.08087301 11.58041146     6    610    0    0    0
C 1501.69889654 -23.04438340 12.10903734     2    610   614   615   616
H 1503.78827687 -23.03425020 12.17312815     6    613    0    0    0
H 1501.14486411 -21.29037791 11.23671860     6    613    0    0    0
C 1500.43518155 -23.16914655 14.69386449     1    613   617   618   619
H 1500.24992882 -21.41649068 15.76702957     6    616    0    0    0
H 1501.52203053 -24.38215283 15.97363963     6    616    0    0    0
H 1498.46664866 -23.71410491 14.48657222     6    616    0    0    0
H 1475.05079997 -2.90963136 -13.49905779     6     621    0    0    0 
C 1476.31602681 -4.57596913 -13.99961111     1     620    622    623    624
H 1476.24739750 -5.86935563 -12.39024187     6     621    0    0    0
H 1475.35842132 -5.72522610 -15.50624710     6     621    0    0    0
C 1479.06503129 -3.98683504 -14.93103139     2     621    625    626    627
H 1480.08074225 -3.58501302 -13.14435687     6     624    0    0    0
H 1479.71189486 -5.79974210 -15.70012270     6     624    0    0    0
C 1479.15713096 -2.11906883 -17.05393283     2     624    628   629   630
H 1479.64463787 -3.30678546 -18.69054904     6     627    0    0    0
H 1477.39450464 -1.22568333 -17.18190810     6     627    0    0    0
C 1481.22934955 -0.15255358 -16.92625715     2     627   631   632   633
H 1480.53269640 1.47858290 -18.04048907     6    630    0    0    0
H 1481.57914746 0.62179659 -15.01862676     6    630    0    0    0
C 1483.89127228 -0.89531307 -18.08305646     2    630   634   635   636
H 1483.38540162 -1.72573289 -19.88749387     6    633    0    0    0
H 1485.01849022 0.78406723 -18.45947761     6    633    0    0    0
C 1485.50869795 -2.63712277 -16.37310653     2    633   637   638   639
H 1485.82114532 -1.45597713 -14.66279372     6    636    0    0    0
H 1484.40459458 -4.30135555 -15.90726795     6    636    0    0    0
C 1488.10325456 -3.62549349 -17.46471008     2    636   640   641   642
H 1487.88715526 -4.54667081 -19.35005668     6    639    0    0    0
H 1489.44677356 -2.03981482 -17.69386020     6    639    0    0    0
C 1489.50916716 -5.35332370 -15.59049002     2    639   643   644   645
H 1489.49088685 -4.68343686 -13.66162889     6    642    0    0    0
H 1488.40574148 -7.11232776 -15.39506546     6    642    0    0    0
C 1492.23913061 -5.97419187 -16.41440339     2    642   646   647   648
H 1492.73559730 -7.45907589 -15.00113123     6    645    0    0    0
H 1492.25743887 -7.01451335 -18.26289639     6    645    0    0    0
C 1494.06215632 -3.67981126 -16.18804677     2    645   649   650   651
H 1493.65468507 -2.43529855 -17.78710784     6    648    0    0    0
H 1493.61612845 -2.55277066 -14.38454793     6    648    0    0    0
C 1496.76447072 -4.57381548 -16.25396775     2    648   652   653   654
H 1496.93231711 -5.60715548 -14.56556817     6    651    0    0    0
H 1497.13407435 -6.07496503 -17.67870255     6    651    0    0    0
C 1498.84118899 -2.62049342 -16.17064251     1    651   655   656   657
H 1498.33486889 -1.30141525 -17.68093782     6    654    0    0    0
H 1500.52311061 -3.22720100 -16.97355132     6    654    0    0    0
H 1499.02767966 -1.46238537 -14.52461826     6    654    0    0    0
H 1494.77626495 -24.24017446 -7.61618477     6     659    0    0    0 
C 1495.10299145 -23.58555463 -5.58015698     1     658    660    661    662
H 1494.75032814 -21.61586489 -5.64942467     6     659    0    0    0
H 1493.59994476 -24.44115852 -4.37773329     6     659    0    0    0
C 1497.78172205 -24.25579401 -4.77265090     2     659    663    664    665
H 1498.07495849 -26.28307974 -4.93969290     6     662    0    0    0
H 1498.94949201 -23.41314672 -6.22010550     6     662    0    0    0
C 1498.86802866 -23.04486449 -2.38828993     2     662    666   667   668
H 1500.88300917 -23.64690618 -2.04450455     6     665    0    0    0
H 1499.09618339 -21.03121867 -2.59521218     6     665    0    0    0
C 1497.50341161 -23.82373909 0.04114130     2     665   669   670   671
H 1495.47299238 -23.53651459 -0.06248412     6    668    0    0    0
H 1497.47735635 -25.89689215 0.18813284     6    668    0    0    0
C 1498.58948481 -22.52309976 2.26798452     2    668   672   673   674
H 1500.25568275 -23.45411082 2.86329594     6    671    0    0    0
H 1499.32822126 -20.66759608 1.58598371     6    671    0    0    0
C 1496.85138495 -22.47355814 4.68696857     2    671   675   676   677
H 1494.98923985 -21.92567060 4.14797658     6    674    0    0    0
H 1496.84735077 -24.51396216 5.35265176     6    674    0    0    0
C 1497.63551070 -20.43692937 6.61850277     2    674   678   679   680
H 1496.92342295 -21.04453656 8.44296327     6    677    0    0    0
H 1499.66167965 -20.34051482 6.90286092     6    677    0    0    0
C 1496.88782065 -17.72279808 6.00181478     2    677   681   682   683
H 1497.76246823 -17.25355322 4.12522233     6    680    0    0    0
H 1494.86825625 -17.41216850 5.72465137     6    680    0    0    0
C 1497.87696104 -15.89117214 8.04646519     2    680   684   685   686
H 1499.86184078 -15.98005686 8.34361200     6    683    0    0    0
H 1497.53637054 -13.96880153 7.24454248     6    683    0    0    0
C 1496.38513583 -15.99058868 10.53135806     2    683   687   688   689
H 1494.40753664 -15.26640899 10.18552588     6    686    0    0    0
H 1495.92473664 -17.83209107 11.41583441     6    686    0    0    0
C 1497.55004646 -14.40794624 12.68667887     2    686   690   691   692
H 1499.25454970 -15.36448211 13.51017040     6    689    0    0    0
H 1498.00070747 -12.59884971 11.97486789     6    689    0    0    0
C 1495.75834098 -13.88344240 14.76102033     1    689   693   694   695
H 1496.37854522 -12.10799633 15.86919211     6    692    0    0    0
H 1495.70084281 -15.40668723 16.10158755     6    692    0    0    0
H 1493.95801256 -13.17255953 14.13344981     6    692    0    0    0
H 1477.19306648 9.50745117 23.61028254     6     697    0    0    0 
C 1478.73252616 8.34501679 24.27409186     1     696    698    699    700
H 1479.99599582 8.03816168 22.80231137     6     697    0    0    0
H 1479.74588315 9.46731604 25.67113228     6     697    0    0    0
C 1477.95131344 5.78885739 25.33077015     2     697    701    702    703
H 1479.57125322 5.13360953 26.45142356     6     700    0    0    0
H 1476.59286391 6.33824334 26.78641491     6     700    0    0    0
C 1476.85066234 3.83454797 23.47188853     2     700    704   705   706
H 1475.35715757 4.79929720 22.68499159     6     703    0    0    0
H 1478.33399174 3.35389331 22.09409658     6     703    0    0    0
C 1475.82566579 1.59644384 24.85691584     2     703   707   708   709
H 1477.24212016 0.48153509 25.87211715     6    706    0    0    0
H 1474.40322485 2.35487198 26.09947379     6    706    0    0    0
C 1474.43684770 -0.02246505 22.72825009     2    706   710   711   712
H 1473.07047091 1.21624989 22.01496421     6    709    0    0    0
H 1475.70858097 -0.44192082 21.34755758     6    709    0    0    0
C 1473.13517329 -2.28290684 23.78992847     2    709   713   714   715
H 1474.49093801 -3.54069584 24.71904162     6    712    0    0    0
H 1471.92356258 -1.47771739 25.32090927     6    712    0    0    0
C 1471.66262852 -3.98979007 21.92758977     2    712   716   717   718
H 1470.29821810 -2.85572431 20.97942518     6    715    0    0    0
H 1472.95344421 -4.32528351 20.33156414     6    715    0    0    0
C 1470.55419242 -6.43396983 23.12655628     2    715   719   720   721
H 1471.81347879 -7.27074895 24.52825167     6    718    0    0    0
H 1468.86240746 -6.11155772 24.22677909     6    718    0    0    0
C 1469.79045359 -8.34693138 21.05345036     2    718   722   723   724
H 1468.45042854 -7.43256473 19.97324807     6    721    0    0    0
H 1471.10767606 -9.05236530 19.76836934     6    721    0    0    0
C 1468.35424736 -10.63387050 22.21573109     2    721   725   726   727
H 1469.31981412 -11.62141582 23.78377495     6    724    0    0    0
H 1466.76600676 -9.75571392 23.26871440     6    724    0    0    0
C 1467.26638029 -12.42393306 20.12395436     2    724   728   729   730
H 1468.62283221 -13.20600572 18.78247793     6    727    0    0    0
H 1466.35704834 -14.04879356 20.97591281     6    727    0    0    0
C 1465.38798677 -11.12792155 18.36925850     1    727   731   732   733
H 1464.11669043 -12.35576651 17.22620446     6    730    0    0    0
H 1466.40505861 -9.93686242 17.12913462     6    730    0    0    0
H 1464.14338380 -9.88369625 19.50670740     6    730    0    0    0
H 1477.04756220 -39.25037425 14.25362807     6     735    0    0    0 
C 1478.84995055 -39.39207675 15.29188693     1     734    736    737    738
H 1478.55064641 -38.71007282 17.23705458     6     735    0    0    0
H 1479.36803751 -41.39077479 15.57980634     6     735    0    0    0
C 1480.96956501 -38.20681449 13.76256488     2     735    739    740    741
H 1480.68057110 -36.21147380 14.09956086     6     738    0    0    0
H 1482.76504726 -38.91563660 14.65672200     6     738    0    0    0
C 1480.93332448 -39.10476574 11.04585318     2     738    742   743   744
H 1479.01526778 -38.96465284 10.44992843     6     741    0    0    0
H 1482.16460358 -38.04280171 9.78649978     6     741    0    0    0
C 1481.74630980 -41.95508271 10.69418488     2     741   745   746   747
H 1483.50291837 -42.04698798 11.82677066     6    744    0    0    0
H 1480.49423125 -43.15651807 11.80396112     6    744    0    0    0
C 1482.02647974 -42.98690077 7.91976777     2    744   748   749   750
H 1482.83424170 -41.65201115 6.57752655     6    747    0    0    0
H 1483.30075449 -44.69649425 7.94074274     6    747    0    0    0
C 1479.71575065 -44.15425967 6.78274763     2    747   751   752   753
H 1479.46480864 -46.02803984 7.56037673     6    750    0    0    0
H 1477.94103037 -43.29649177 7.37559361     6    750    0    0    0
C 1479.86351801 -44.20585158 3.86610510     2    750   754   755   756
H 1480.25430172 -42.40251509 3.27710781     6    753    0    0    0
H 1481.52193092 -45.27163529 3.28581325     6    753    0    0    0
C 1477.56592742 -45.33519185 2.54331384     2    753   757   758   759
H 1477.46764370 -47.34355588 2.83075152     6    756    0    0    0
H 1476.00313948 -44.27584530 3.37061106     6    756    0    0    0
C 1477.50356090 -44.87837110 -0.27088793     2    756   760   761   762
H 1477.63896269 -42.81262646 -0.61906586     6    759    0    0    0
H 1479.18973764 -45.43739934 -1.20545981     6    759    0    0    0
C 1475.22077062 -46.12590927 -1.39044088     2    759   763   764   765
H 1475.20046760 -48.04631797 -0.77114973     6    762    0    0    0
H 1473.45640081 -45.29720104 -0.61428610     6    762    0    0    0
C 1475.40368112 -46.28254355 -4.25607067     2    762   766   767   768
H 1475.80747359 -44.35307083 -5.07343681     6    765    0    0    0
H 1477.05599538 -47.49088479 -4.86816901     6    765    0    0    0
C 1472.85817385 -47.36887280 -5.38895483     1    765   769   770   771
H 1472.48901782 -49.18095310 -4.51124273     6    768    0    0    0
H 1473.09686981 -47.70935054 -7.38404856     6    768    0    0    0
H 1471.21886009 -46.39782167 -4.90269854     6    768    0    0    0
H 1478.54707659 -9.81344411 -19.39995878     6     773    0    0    0 
C 1478.66256627 -9.20257220 -21.33400210     1     772    774    775    776
H 1480.11787599 -7.77019816 -21.60683324     6     773    0    0    0
H 1479.20838132 -10.97672312 -22.29548118     6     773    0    0    0
C 1476.11311194 -8.34855582 -22.41744498     2     773    777    778    779
H 1476.49033434 -7.14637402 -24.03194718     6     776    0    0    0
H 1475.12173391 -9.91210755 -23.18966487     6     776    0    0    0
C 1474.39775345 -6.80929827 -20.67347849     2     776    780   781   782
H 1474.84522854 -7.48988323 -18.77547125     6     779    0    0    0
H 1475.14905836 -4.84302824 -20.87037671     6     779    0    0    0
C 1471.56041562 -6.93944546 -21.05513461     2     779   783   784   785
H 1470.73030869 -5.83053739 -22.51947548     6    782    0    0    0
H 1471.31269756 -8.94567975 -21.59156710     6    782    0    0    0
C 1470.09718607 -6.59080292 -18.60747128     2    782   786   787   788
H 1470.31914174 -8.15284030 -17.33769767     6    785    0    0    0
H 1470.78627070 -4.96913483 -17.67552247     6    785    0    0    0
C 1467.24525161 -6.26423476 -19.11608719     2    785   789   790   791
H 1466.55386809 -4.85744185 -20.43972098     6    788    0    0    0
H 1466.64680776 -7.99243468 -20.10521647     6    788    0    0    0
C 1465.73853678 -6.27108148 -16.63621861     2    788   792   793   794
H 1466.21763113 -8.04055825 -15.66670624     6    791    0    0    0
H 1466.66002842 -4.93482303 -15.33293958     6    791    0    0    0
C 1462.96799973 -5.91778068 -17.03897794     2    791   795   796   797
H 1462.51846137 -3.96617919 -17.86409659     6    794    0    0    0
H 1462.03811524 -7.34764043 -18.20544781     6    794    0    0    0
C 1461.51205645 -6.28610634 -14.51971960     2    794   798   799   800
H 1461.30621787 -8.23930699 -14.24616623     6    797    0    0    0
H 1462.69540131 -5.60788859 -12.97023144     6    797    0    0    0
C 1458.96497847 -5.09868197 -14.53441091     2    797   801   802   803
H 1459.09273885 -3.07145631 -15.17474730     6    800    0    0    0
H 1457.56421160 -6.00556341 -15.68960062     6    800    0    0    0
C 1457.96255851 -4.79584896 -11.75248839     2    800   804   805   806
H 1457.90098644 -6.61756162 -10.73452298     6    803    0    0    0
H 1459.18383739 -3.66160933 -10.61243335     6    803    0    0    0
C 1455.33335567 -3.60178467 -11.72621980     1    803   807   808   809
H 1454.64264087 -3.32294960 -9.73310618     6    806    0    0    0
H 1453.99886782 -4.86998242 -12.60728776     6    806    0    0    0
H 1455.44411353 -1.75170027 -12.93587603     6    806    0    0    0
H 1497.61218426 -30.96411920 -1.52963471     6     811    0    0    0 
C 1496.80415651 -31.75220417 -3.29948788     1     810    812    813    814
H 1497.70594286 -31.43080521 -4.99708073     6     811    0    0    0
H 1496.69033259 -33.85656220 -3.09195694     6     811    0    0    0
C 1493.93052629 -30.94810261 -3.57306077     2     811    815    816    817
H 1492.95791161 -31.48568231 -1.71689257     6     814    0    0    0
H 1493.78553316 -28.89983806 -3.87177642     6     814    0    0    0
C 1492.64314493 -32.26944971 -5.73579895     2     814    818   819   820
H 1493.45368512 -31.72530296 -7.36140509     6     817    0    0    0
H 1493.01573769 -34.25111628 -5.50899470     6     817    0    0    0
C 1489.71435561 -31.79899819 -5.57019187     2     817   821   822   823
H 1489.01144220 -32.80448358 -3.93431614     6    820    0    0    0
H 1489.47573266 -29.85897188 -5.29178166     6    820    0    0    0
C 1488.70278470 -32.75031695 -8.21900305     2    820   824   825   826
H 1489.46842741 -31.65017375 -9.80671324     6    823    0    0    0
H 1489.34490671 -34.62282797 -8.40847234     6    823    0    0    0
C 1485.76376235 -32.89454851 -8.39083169     2    823   827   828   829
H 1484.82034181 -34.42097934 -7.25803225     6    826    0    0    0
H 1485.22529278 -31.02260367 -7.81685859     6    826    0    0    0
C 1484.98423593 -33.49992079 -11.15333779     2    826   830   831   832
H 1485.94914511 -32.13755122 -12.42279670     6    829    0    0    0
H 1485.52739324 -35.42706160 -11.68636508     6    829    0    0    0
C 1482.12124198 -33.46623013 -11.45135613     2    829   833   834   835
H 1481.43853921 -34.47812626 -9.84354818     6    832    0    0    0
H 1481.26914951 -31.56990558 -11.35579376     6    832    0    0    0
C 1481.09280084 -34.76693250 -13.85707132     2    832   836   837   838
H 1482.10140621 -36.66106792 -13.83212217     6    835    0    0    0
H 1479.09857131 -34.87035116 -14.05946016     6    835    0    0    0
C 1481.85770971 -33.24153040 -16.24590549     2    835   839   840   841
H 1481.02683796 -31.23021893 -16.05861862     6    838    0    0    0
H 1483.77797192 -32.87754831 -16.43327167     6    838    0    0    0
C 1480.81300020 -34.41070100 -18.63201877     2    838   842   843   844
H 1481.79229827 -36.14016368 -19.11862300     6    841    0    0    0
H 1478.86172038 -34.87243755 -18.15117013     6    841    0    0    0
C 1480.91177179 -32.60758332 -20.94921730     1    841   845   846   847
H 1482.80229411 -31.77007506 -21.24793482     6    844    0    0    0
H 1479.41304266 -31.33587353 -21.09308109     6    844    0    0    0
H 1480.58653188 -33.57499828 -22.71917366     6    844    0    0    0
H 1507.48724911 -15.73038466 17.34583301     6     849    0    0    0 
C 1506.77059982 -13.87343553 17.13958540     1     848    850    851    852
H 1505.39867027 -13.37783135 18.72586874     6     849    0    0    0
H 1508.26765108 -12.59984330 17.17772651     6     849    0    0    0
C 1505.40909707 -13.70064343 14.47629765     2     849    853    854    855
H 1503.47811888 -14.55066704 14.58071834     6     852    0    0    0
H 1504.93632833 -11.88532462 13.70521387     6     852    0    0    0
C 1506.95060321 -15.09941462 12.47150173     2     852    856   857   858
H 1508.93119377 -14.23760864 12.37015591     6     855    0    0    0
H 1507.17968000 -16.98986284 13.24744858     6     855    0    0    0
C 1505.72212735 -15.38775561 9.85615613     2     855   859   860   861
H 1504.02070231 -16.52732424 10.04499939     6    858    0    0    0
H 1505.37757161 -13.57478168 8.97239004     6    858    0    0    0
C 1507.47322968 -16.73682851 8.06134037     2    858   862   863   864
H 1509.33838109 -15.79380834 8.04610072     6    861    0    0    0
H 1507.87066488 -18.64189313 8.81630562     6    861    0    0    0
C 1506.27221327 -16.84930085 5.54853398     2    861   865   866   867
H 1504.51033766 -18.14669068 5.57083163     6    864    0    0    0
H 1505.63063065 -14.94644984 4.88342355     6    864    0    0    0
C 1508.21998433 -17.94675292 3.71011965     2    864   868   869   870
H 1509.78897365 -16.65187376 3.24493789     6    867    0    0    0
H 1509.08256038 -19.51987388 4.66120478     6    867    0    0    0
C 1506.97570892 -19.12604132 1.39038069     2    867   871   872   873
H 1505.20907343 -20.13283637 1.71311782     6    870    0    0    0
H 1506.19535731 -17.61251557 0.32047708     6    870    0    0    0
C 1508.84882039 -20.76529274 0.07883461     2    870   874   875   876
H 1508.49725660 -21.05302511 -1.98727426     6    873    0    0    0
H 1510.78838593 -19.91649278 -0.20074984     6    873    0    0    0
C 1508.95162121 -23.55326516 1.19558455     2    873   877   878   879
H 1508.92141153 -23.46430032 3.25476247     6    876    0    0    0
H 1507.09556971 -24.48718287 1.07357958     6    876    0    0    0
C 1511.19322023 -25.01915805 0.21076051     2    876   880   881   882
H 1510.89021196 -25.22112421 -1.87334272     6    879    0    0    0
H 1512.93091871 -24.01083470 0.25657197     6    879    0    0    0
C 1511.66448071 -27.63534839 1.33066871     1    879   883   884   885
H 1509.95424989 -28.76557138 0.73607375     6    882    0    0    0
H 1512.09002769 -27.95882230 3.28726616     6    882    0    0    0
H 1513.37619588 -28.58759463 0.45821268     6    882    0    0    0
H 1477.49581346 -26.59360951 -10.30019971     6     887    0    0    0 
C 1477.28543363 -24.60088450 -9.69862242     1     886    888    889    890
H 1478.53983118 -23.34946520 -10.69637040     6     887    0    0    0
H 1475.26756333 -24.17516816 -9.91341463     6     887    0    0    0
C 1478.10333101 -24.49053538 -6.92716274     2     887    891    892    893
H 1477.66747286 -22.55568126 -6.37432390     6     890    0    0    0
H 1476.88819967 -25.79494242 -5.95891303     6     890    0    0    0
C 1480.95744440 -25.18675819 -6.55082658     2     890    894   895   896
H 1481.09365408 -26.99950919 -7.53889205     6     893    0    0    0
H 1481.96229274 -23.63027574 -7.55350259     6     893    0    0    0
C 1482.03178763 -25.44351285 -3.85070389     2     893   897   898   899
H 1481.67800942 -23.71844466 -2.69357743     6    896    0    0    0
H 1481.02577087 -27.06922935 -3.04791607     6    896    0    0    0
C 1484.94473809 -25.91738359 -3.79402959     2    896   900   901   902
H 1485.30137675 -27.60842889 -4.82975687     6    899    0    0    0
H 1485.68594543 -24.46123854 -4.91865942     6    899    0    0    0
C 1485.75819442 -26.12285280 -0.96907274     2    899   903   904   905
H 1485.84572294 -24.38059884 -0.00828956     6    902    0    0    0
H 1484.50030608 -27.23937638 0.13642501     6    902    0    0    0
C 1488.28677732 -27.40289757 -0.49421168     2    902   906   907   908
H 1488.40166620 -29.34032426 -0.80982457     6    905    0    0    0
H 1489.64490848 -26.63790965 -1.83120338     6    905    0    0    0
C 1489.04927281 -27.11488612 2.19387220     2    905   909   910   911
H 1489.38361544 -25.12503985 2.70033130     6    908    0    0    0
H 1487.71597778 -27.81854697 3.53787378     6    908    0    0    0
C 1491.53663654 -28.55601127 2.71149702     2    908   912   913   914
H 1491.14014577 -30.54176054 2.44820709     6    911    0    0    0
H 1493.09665381 -28.07082581 1.64264568     6    911    0    0    0
C 1492.44576351 -28.29716450 5.41667225     2    911   915   916   917
H 1492.63378339 -26.29519302 5.88213611     6    914    0    0    0
H 1490.77326708 -29.10129729 6.34860574     6    914    0    0    0
C 1494.75474279 -29.82809647 6.01421537     2    914   918   919   920
H 1494.41863950 -31.75890971 5.63232103     6    917    0    0    0
H 1496.08051679 -29.36500271 4.67598865     6    917    0    0    0
C 1495.70573521 -29.72169229 8.67059437     1    917   921   922   923
H 1494.45473701 -30.83045675 9.93292240     6    920    0    0    0
H 1495.28450458 -27.86827441 9.49695794     6    920    0    0    0
H 1497.75860106 -30.11263327 8.83974378     6    920    0    0    0
H 1502.19568273 -19.22325578 -4.08004708     6     925    0    0    0 
C 1503.38701671 -18.11346826 -5.31992001     1     924    926    927    928
H 1502.49058062 -16.19862935 -5.84359946     6     925    0    0    0
H 1504.99771277 -17.98864222 -4.10174696     6     925    0    0    0
C 1503.93784000 -19.57111221 -7.67945759     2     925    929    930    931
H 1502.15935498 -20.22738290 -8.64758389     6     928    0    0    0
H 1504.61332309 -18.30777826 -9.02275627     6     928    0    0    0
C 1505.85486395 -21.74628330 -7.08791987     2     928    932   933   934
H 1507.69670237 -20.88377333 -7.13118872     6     931    0    0    0
H 1505.75002450 -22.51098307 -5.13938663     6     931    0    0    0
C 1505.47061072 -23.91698935 -9.04188794     2     931   935   936   937
H 1503.61101664 -24.64607209 -8.62322845     6    934    0    0    0
H 1505.45140644 -23.02942174 -10.87587612     6    934    0    0    0
C 1507.38443711 -26.12122264 -8.87990888     2    934   938   939   940
H 1506.79861623 -27.23330313 -10.54059869     6    937    0    0    0
H 1509.27458529 -25.42553187 -9.11345015     6    937    0    0    0
C 1506.98365020 -27.96774231 -6.61612728     2    937   941   942   943
H 1506.00965068 -26.91026931 -5.23451227     6    940    0    0    0
H 1505.67383510 -29.57775808 -7.39838707     6    940    0    0    0
C 1509.42813739 -29.15525989 -5.72623744     2    940   944   945   946
H 1510.44062845 -27.60864152 -5.05334134     6    943    0    0    0
H 1509.17789198 -30.31461360 -4.06226945     6    943    0    0    0
C 1511.00480593 -30.69172239 -7.75693865     2    943   947   948   949
H 1509.70548429 -31.87505589 -8.80775689     6    946    0    0    0
H 1511.81268919 -29.51848667 -9.16669152     6    946    0    0    0
C 1513.15773033 -32.11621526 -6.42512204     2    946   950   951   952
H 1514.47861801 -30.78896534 -5.77454378     6    949    0    0    0
H 1512.46279246 -32.92074339 -4.66969774     6    949    0    0    0
C 1514.57252212 -34.01202376 -8.08291268     2    949   953   954   955
H 1513.39073443 -34.99504961 -9.39901390     6    952    0    0    0
H 1515.99137954 -32.97960225 -9.30243502     6    952    0    0    0
C 1515.99440541 -35.88265765 -6.28406426     2    952   956   957   958
H 1517.62216526 -36.84240953 -7.38831333     6    955    0    0    0
H 1517.16280196 -34.77909179 -4.99306454     6    955    0    0    0
C 1514.32105030 -37.70295705 -4.67360587     1    955   959   960   961
H 1515.53732808 -39.37265916 -4.44833546     6    958    0    0    0
H 1512.56216390 -38.36556203 -5.53547361     6    958    0    0    0
H 1513.95445470 -36.98233472 -2.80634463     6    958    0    0    0
H 1462.50925509 -34.12107459 2.43954368     6     963    0    0    0 
C 1463.84883484 -33.75935607 0.86767819     1     962    964    965    966
H 1465.87751309 -34.23212132 1.35768743     6     963    0    0    0
H 1463.23056242 -35.04290242 -0.67836061     6     963    0    0    0
C 1463.25971453 -30.84995798 0.25720313     2     963    967    968    969
H 1464.27140467 -30.33198768 -1.47583824     6     966    0    0    0
H 1461.32208815 -30.51857711 -0.05758050     6     966    0    0    0
C 1464.07587381 -29.12712231 2.47671135     2     966    970   971   972
H 1463.26765897 -30.00265045 4.15139490     6     969    0    0    0
H 1466.13894434 -29.35058129 2.88636992     6     969    0    0    0
C 1463.36519380 -26.26162973 2.27214824     2     969   973   974   975
H 1464.32752870 -25.57489676 0.51137969     6    972    0    0    0
H 1461.29666534 -25.92865350 1.94262154     6    972    0    0    0
C 1464.13750890 -24.77318355 4.55294526     2    972   976   977   978
H 1463.25626541 -25.69560125 6.18453617     6    975    0    0    0
H 1466.12360312 -24.81746095 4.81419623     6    975    0    0    0
C 1463.14828575 -22.18403759 4.40146281     2    975   979   980   981
H 1464.09173511 -21.23989183 2.80073749     6    978    0    0    0
H 1461.11379307 -22.22081959 4.01781379     6    978    0    0    0
C 1463.30402190 -20.80456724 6.95619576     2    978   982   983   984
H 1462.03459453 -21.85168893 8.18175677     6    981    0    0    0
H 1465.18803098 -20.95553584 7.52310729     6    981    0    0    0
C 1462.16498954 -18.26218540 6.78366925     2    981   985   986   987
H 1463.17882327 -17.14160004 5.38365884     6    984    0    0    0
H 1460.16903586 -18.45939959 6.19982056     6    984    0    0    0
C 1462.12483507 -16.99135020 9.35289344     2    984   988   989   990
H 1460.77223689 -15.49874580 9.05685329     6    987    0    0    0
H 1461.56476655 -18.46724949 10.77078367     6    987    0    0    0
C 1464.69860181 -15.98089738 10.18659615     2    987   991   992   993
H 1465.81509373 -17.77752716 9.96545731     6    990    0    0    0
H 1465.30633171 -14.42741126 9.06606584     6    990    0    0    0
C 1465.06841789 -15.16547244 13.03722692     2    990   994   995   996
H 1466.94771086 -14.61346203 13.35133663     6    993    0    0    0
H 1464.03597073 -13.33357270 13.46310757     6    993    0    0    0
C 1464.57507482 -17.39749317 14.85985521     1    993   997   998   999
H 1462.54977430 -17.33450959 15.15643071     6    996    0    0    0
H 1465.40616662 -17.21735716 16.81914637     6    996    0    0    0
H 1465.09509526 -19.04303455 13.94300426     6    996    0    0    0
H 1465.16108744 -49.24268725 -11.07994876     6     1001    0    0    0 
C 1465.01942757 -49.63705850 -9.09414447     1     1000    1002    1003    1004
H 1463.37048797 -50.98341748 -8.60820934     6     1001    0    0    0
H 1466.85816570 -50.73051800 -8.65766800     6     1001    0    0    0
C 1464.96267734 -47.12307285 -7.50314050     2     1001    1005    1006    1007
H 1466.51716600 -45.68529561 -7.95520525     6     1004    0    0    0
H 1463.20766741 -46.07249401 -7.63335715     6     1004    0    0    0
C 1464.88010325 -47.85915112 -4.61735671     2     1004    1008   1009   1010
H 1463.51216840 -49.38059339 -4.55287308     6     1007    0    0    0
H 1466.76108216 -48.55771514 -4.15133321     6     1007    0    0    0
C 1464.30584787 -45.50943232 -3.04777375     2     1007   1011   1012   1013
H 1465.94775689 -44.31941173 -2.89000926     6    1010    0    0    0
H 1462.84204747 -44.18464680 -3.67474758     6    1010    0    0    0
C 1463.84335821 -46.27954737 -0.30578088     2    1010   1014   1015   1016
H 1462.21814017 -47.56808023 -0.25375165     6    1013    0    0    0
H 1465.55867212 -47.03725224 0.39729639     6    1013    0    0    0
C 1463.12546954 -44.25459896 1.54752242     2    1013   1017   1018   1019
H 1464.34364765 -42.62310145 1.37960307     6    1016    0    0    0
H 1461.41661554 -43.67785226 0.70646305     6    1016    0    0    0
C 1462.91518491 -45.14886548 4.32117781     2    1016   1020   1021   1022
H 1461.91017104 -46.95267765 4.47621850     6    1019    0    0    0
H 1464.78121340 -45.49274843 5.07668644     6    1019    0    0    0
C 1461.38302949 -43.03193692 5.89253793     2    1019   1023   1024   1025
H 1459.53679294 -42.77369085 5.14127784     6    1022    0    0    0
H 1461.16632971 -43.88909545 7.72426605     6    1022    0    0    0
C 1462.64934500 -40.47201717 6.31240307     2    1022   1026   1027   1028
H 1464.61434994 -40.52536466 6.39419373     6    1025    0    0    0
H 1462.16696759 -39.27382338 4.72435200     6    1025    0    0    0
C 1461.51550686 -38.90663574 8.45502832     2    1025   1029   1030   1031
H 1459.53386156 -38.44259236 8.15605957     6    1028    0    0    0
H 1461.53569740 -40.03263894 10.18897546     6    1028    0    0    0
C 1463.13282343 -36.67100913 8.93114706     2    1028   1032   1033   1034
H 1464.96153335 -37.42412283 9.58515113     6    1031    0    0    0
H 1463.55676964 -35.60272953 7.27558965     6    1031    0    0    0
C 1461.90368096 -34.69015189 10.66046755     1    1031   1035   1036   1037
H 1463.11159571 -33.12185184 10.99757875     6    1034    0    0    0
H 1461.64128818 -35.46078871 12.58229588     6    1034    0    0    0
H 1460.16973892 -34.04376430 9.69919155     6    1034    0    0    0
H 1470.57431477 -15.40697769 -18.48808985     6     1039    0    0    0 
C 1472.63226189 -15.17295996 -18.82894940     1     1038    1040    1041    1042
H 1472.90544762 -13.09944297 -18.91810036     6     1039    0    0    0
H 1473.82741529 -15.82309487 -17.25573218     6     1039    0    0    0
C 1473.17301967 -16.35931774 -21.47794682     2     1039    1043    1044    1045
H 1472.70049546 -18.33729585 -21.40752246     6     1042    0    0    0
H 1472.11331891 -15.51580649 -23.05990665     6     1042    0    0    0
C 1475.98026482 -16.13738163 -22.42095766     2     1042    1046   1047   1048
H 1476.53361334 -14.10614617 -22.13687322     6     1045    0    0    0
H 1477.19049292 -17.30217942 -21.24962852     6     1045    0    0    0
C 1476.47636300 -16.85018270 -25.18740961     2     1045   1049   1050   1051
H 1475.17933581 -18.16885364 -26.11011834     6    1048    0    0    0
H 1476.29115559 -15.35410521 -26.57906001     6    1048    0    0    0
C 1479.08019916 -17.92058142 -25.38892324     2    1048   1052   1053   1054
H 1480.30508135 -16.88034614 -24.06767782     6    1051    0    0    0
H 1479.18052441 -19.93142506 -24.74856789     6    1051    0    0    0
C 1480.35438022 -17.62093454 -27.98713392     2    1051   1055   1056   1057
H 1479.00273763 -18.21695673 -29.49237978     6    1054    0    0    0
H 1480.65600876 -15.56061632 -28.38659326     6    1054    0    0    0
C 1482.92456977 -19.08170147 -27.83183813     2    1054   1058   1059   1060
H 1483.99421794 -18.46543448 -26.14808410     6    1057    0    0    0
[...]
 1803      H    1489.1070197200    -5.6094545600    -5.9265065700
 1804      H    1488.3896711800    -5.9705540400    -8.9973705100
 1805      C    1492.2302651300    -6.9113530100    -8.3279249500
 1806      H    1492.7050351100    -6.7712554500   -10.2561768600
 1807      H    1493.8703469900    -5.8925519800    -7.4048798200
 1808      C    1491.9915091900    -9.7952753300    -7.6935206500
 1809      H    1493.9519464500   -10.7515850200    -7.8797802700
 1810      H    1491.1296789500   -10.4277958500    -5.8964100800
 1811      C    1490.5732615900   -11.3032788200    -9.6079462900
 1812      H    1488.6180370000   -10.6175432200    -9.4803401400
 1813      H    1491.2265506900   -10.7211787900   -11.5448974700
 1814      C    1490.6220841500   -14.2612699500    -9.2385164900
 1815      H    1492.5461321500   -14.8564420800    -9.4060755300
 1816      H    1490.0604251200   -14.7409931800    -7.3392501400
 1817      C    1488.8183144100   -15.5297906900   -11.1943254100
 1818      H    1487.0282687200   -14.5446997200   -11.1544708500
 1819      H    1489.4730076300   -15.2149747200   -13.0368966700
 1820      C    1488.6171651700   -18.4053634900   -10.7593685400
 1821      H    1490.2467679400   -19.2369242400   -11.2936214800
 1822      H    1488.1921983900   -19.0774607900    -8.9073769100
 1823      C    1486.4747285100   -19.4532655300   -12.3461347900
 1824      H    1484.9437641800   -18.2324787900   -11.9514083700
 1825      H    1486.7567710700   -19.3166144500   -14.3152629500
 1826      C    1485.9803466500   -22.2401471000   -11.4675765600
 1827      H    1487.7180285000   -23.3218915200   -11.4273782300
 1828      H    1485.3344277100   -22.0685831800    -9.4995836900
 1829      C    1484.1874845600   -23.5963729700   -13.4273447800
 1830      H    1482.4303182400   -22.4908781100   -13.1630044300
 1831      H    1484.7384687700   -23.1897031600   -15.4209147100
 1832      C    1483.7058657800   -26.4213781800   -13.0162407400
 1833      H    1482.0583236100   -26.9854930700   -14.2715921600
 1834      H    1483.2220428800   -26.9257942200   -11.1013719000
 1835      H    1485.4197107000   -27.6577096300   -13.3410947700
 1836      H    1485.5667735400   -19.3363507200    -3.9951902200
 1837      C    1485.6410916800   -18.7621163700    -2.0639700300
 1838      H    1484.8572817700   -16.8096082300    -2.2348300800
 1839      H    1484.5789114500   -20.1849038800    -0.8129837100
 1840      C    1488.2605467900   -18.7953397800    -1.0744391000
 1841      H    1488.4915699900   -18.1349355000     0.9508750600
 1842      H    1488.7593504000   -20.7816054400    -1.2580377400
 1843      C    1490.2357794700   -17.4505104600    -2.7367379100
 1844      H    1490.6190684400   -18.5735378100    -4.4114219900
 1845      H    1489.7117763800   -15.4455359300    -3.1881365400
 1846      C    1492.8292965700   -17.0196762500    -1.4291826500
 1847      H    1492.4561747300   -15.9329692000     0.1785377600
 1848      H    1493.6370602200   -18.8166884000    -0.7470731100
 1849      C    1494.7221987900   -15.4272227600    -2.9034591800
 1850      H    1495.0203636900   -16.8208136700    -4.3527255100
 1851      H    1493.8194747200   -13.7460529100    -3.6740617700
 1852      C    1497.1802092700   -14.9637939100    -1.5183593900
 1853      H    1497.9147881600   -16.8323270100    -1.0286698800
 1854      H    1498.6079017700   -14.6287293700    -2.9326170100
 1855      C    1497.3797395900   -12.7543468400     0.4796046900
 1856      H    1496.6884308500   -11.1721641700    -0.3727439100
 1857      H    1496.1289408200   -13.2308175600     2.1552295700
 1858      C    1499.9652342700   -12.5397839900     1.5434791300
 1859      H    1500.6538963000   -14.2256158800     2.5142232000
 1860      H    1501.2703361700   -12.1578874400    -0.0040591600
 1861      C    1499.9860010400   -10.5099704700     3.5829003800
 1862      H    1499.8090032400    -8.8336891100     2.4502213000
 1863      H    1498.4585826400   -10.7048474500     4.9750417400
 1864      C    1502.5813170800   -10.3211812000     4.8487268400
 1865      H    1503.1502119800   -12.1996148200     5.5434653700
 1866      H    1503.7427993000    -9.6886281700     3.3038128200
 1867      C    1503.1152525400    -8.5212807500     7.0168181900
 1868      H    1501.8120456700    -6.9990327600     7.0911912100
 1869      H    1502.8186239900    -9.6611080800     8.6924495100
 1870      C    1505.9164270200    -7.6493862500     7.2249182900
 1871      H    1506.1132219000    -6.7588946200     9.0056674400
 1872      H    1506.4562644700    -6.4129702900     5.5832185600
 1873      H    1507.2530520100    -9.1952062800     7.4094427700
 1874      H    1476.6137574500    -4.8057051000    16.8732019300
 1875      C    1476.1587618000    -4.3723248300    14.9364615800
 1876      H    1475.1388460700    -2.5701366700    14.8721042500
 1877      H    1477.9519455400    -4.0915846800    14.1477563300
 1878      C    1474.8502285500    -6.6333020000    13.8260917800
 1879      H    1476.3307658400    -8.1392862700    14.0650654100
 1880      H    1473.3772220500    -6.9057351300    15.1320619600
 1881      C    1474.1820774300    -6.1839570800    11.1773432500
 1882      H    1473.1402494400    -4.3606382800    11.1850113800
 1883      H    1476.0038210100    -6.0099163200     9.9735639200
 1884      C    1472.5752198800    -8.4209831800    10.0531428700
 1885      H    1474.0137949900   -10.0160102100    10.0570322900
 1886      H    1471.1357154000    -8.8406439900    11.3224634000
 1887      C    1471.7292868100    -8.1041712500     7.2622819300
 1888      H    1470.4030719300    -6.5222744000     7.2620418100
 1889      H    1473.5119811600    -7.8751607400     6.3301544700
 1890      C    1470.5259745400   -10.4936774100     6.0916133900
 1891      H    1471.6146084300   -12.2687505400     6.2600137400
 1892      H    1469.0187950300   -10.5671630700     7.4722939600
 1893      C    1469.3840142000    -9.9892979500     3.3598594000
 1894      H    1467.9838298700    -8.5389129400     3.5849958900
 1895      H    1470.9313386300    -9.1561345400     2.0669883100
 1896      C    1468.1755719500   -12.2593905600     2.0238201500
 1897      H    1469.6553249600   -13.7022396700     1.6136245100
 1898      H    1466.8160101400   -13.0318780500     3.3743233500
 1899      C    1466.3270961800   -11.6716647900    -0.2650497400
 1900      H    1465.0875852500   -10.1793024600     0.5044756700
 1901      H    1467.4271163500   -11.0527507300    -1.9204408400
 1902      C    1464.5553394800   -14.0022421900    -0.8764630500
 1903      H    1465.6105777900   -15.6469636000    -0.8562233300
 1904      H    1463.3793230800   -14.4082323300     0.6888745200
 1905      C    1463.2480102400   -13.7599780700    -3.3602335900
 1906      H    1462.3246836000   -11.8977998400    -3.5565039000
 1907      H    1464.6951097900   -13.7983840100    -4.8573910200
 1908      C    1461.2729958100   -15.8292248800    -3.7348552000
 1909      H    1459.6554150100   -16.0079320400    -2.4139234000
 1910      H    1462.3483126200   -17.5481035700    -3.2003605600
 1911      H    1460.7136240200   -15.8719342500    -5.7091254400
 ----------------------------------------------------------------
 Nuclear Repulsion Energy =           0.00000000 hartrees
 There are     2498 alpha and     2498 beta electrons

 Total QAlloc Memory Limit   2000 MB
 Mega-Array Size       204 MB
 MEM_STATIC part       192 MB
   **** Step 1: MM calculation on the entire system **** 
 OPLSAA force field loaded.
Reading user-defined FF parameters...
 Reading user defined atom types.
 Found 3 user defined AtomTypes
finished.
Determining angles, torsions, etc. from user defined input
Determining VDW/Coulomb pairs... (useList = 0)

 Time req'd to get MM system information: 0.2 s (CPU) 0.3 s (wall)

 ------ MM Energies ------
   Ebond:           580.630062621562
   Eangle:          875.985190819574
   EUreyBrad:         0.000000000000
   Eimptors:          0.000000000000
   Etorsion:        220.697472688667
   Evdw:         980779.072642424959
   Ecoulomb:        184.682287057351
   Etot:         982641.067655612133 Kcal/mol (   1565.938225744504 hartree)
 -------------------------
 Time req'd to calc MM energy: 0.1 s (CPU) 0.1 s (wall)
 OPLSAA force field loaded.
Reading user-defined FF parameters...
 Reading user defined atom types.
 Found 3 user defined AtomTypes
finished.
 Time req'd to get MM system information: 0.0 s (CPU) 0.0 s (wall)
 Time req'd to calc MM gradient: 0.2 s (CPU) 0.2 s (wall)
   **** Step 2: MM calculation on the model system **** 
 Reading user defined atom types.
 Found 3 user defined AtomTypes
 ----------------------------------------------------------------
             Standard Nuclear Orientation (Bohr)
    I     Atom           X                Y                Z
 ----------------------------------------------------------------
    1      Fe   1477.1873474100   -16.9746519800     3.0058525700
    2      C    1473.7456486200   -17.1667826400     3.5901274800
    3      C    1478.4746139400   -15.4868389600     0.2346018400
    4      C    1479.1642069400   -18.2736082500     5.7097195400
    5      C    1477.3033756800   -19.8194420700     1.2353466500
    6      C    1477.4062511900   -14.0249225500     4.8873714300
    7      O    1471.5260101600   -17.3388693500     3.9116941800
    8      O    1479.3110348500   -14.5418608100    -1.6084927200
    9      O    1480.4419221300   -19.3190136000     7.1137388800
   10      O    1477.6155822300   -21.4744208000    -0.2713739400
   11      O    1477.1126481200   -11.9491580700     5.6447772800
 ----------------------------------------------------------------
 Nuclear Repulsion Energy =         789.72413358 hartrees
 There are       48 alpha and       48 beta electrons
 OPLSAA force field loaded.
Reading user-defined FF parameters...
 Reading user defined atom types.
 Found 3 user defined AtomTypes
finished.
Determining VDW/Coulomb pairs... (useList = 0)

 No MM bonds in system. Return all possible pairs.
 Time req'd to get MM system information: 0.0 s (CPU) 0.0 s (wall)

 ------ MM Energies ------
   Ebond:             0.000000000000
   Eangle:            0.000000000000
   EUreyBrad:         0.000000000000
   Eimptors:          0.000000000000
   Etorsion:          0.000000000000
   Evdw:         981241.850244621746
   Ecoulomb:         -6.427750532563
   Etot:         981235.422494089231 Kcal/mol (   1563.698187583354 hartree)
 -------------------------
 Eold: 1565.9382257 mm_energy: 1563.6981876 Enew:    2.2400382
 Time req'd to calc MM energy: 0.0 s (CPU) 0.0 s (wall)
 OPLSAA force field loaded.
Reading user-defined FF parameters...
 Reading user defined atom types.
 Found 3 user defined AtomTypes
finished.
Determining VDW/Coulomb pairs... (useList = 0)

 No MM bonds in system. Return all possible pairs.
 Time req'd to get MM system information: 0.0 s (CPU) 0.0 s (wall)
 Number of fixed atoms: 0
 Time req'd to calc MM gradient: 0.0 s (CPU) 0.0 s (wall)
   **** Step 3: QM calculation on the model system **** 
 Requested basis set is def2-mSVP
 There are 80 shells and 174 basis functions

                       Distance Matrix (Bohrs)
             Fe(  1)   C (  2)   C (  3)   C (  4)   C (  5)   C (  6)
   C (  2)  3.496224
   C (  3)  3.398599  6.036959
   C (  4)  3.592514  5.922711  6.182114
   C (  5)  3.352758  5.023845  4.598341  5.086483
   C (  6)  3.505558  4.995412  4.992681  4.670974  6.850133
   O (  7)  5.744906  2.249403  8.076764  7.902448  6.833303  6.819928
   O (  8)  5.632114  8.055395  2.233737  8.216065  6.322261  6.789085
   O (  9)  5.741343  7.866894  8.116550  2.167187  6.682544  6.496107
   O ( 10)  5.583146  6.960124  6.070015  6.958227  2.259786  9.063746
   O ( 11)  5.676715  6.540786  6.606068  6.649194  9.023349  2.229050
             O (  7)   O (  8)   O (  9)   O ( 10)
   O (  8)  9.944965
   O (  9)  9.678200 10.008867
   O ( 10)  8.466625  7.261049  8.195967
   O ( 11)  7.953810  8.010302  8.219287 11.224278

 A cutoff of  1.0D-11 yielded   2480 shell pairs
 There are     12730 function pairs (     14546 Cartesian)
 Smallest overlap matrix eigenvalue = 2.87E-03
 Guess MOs from SCF MO coefficient file
 Reading MOs from coefficient file
 Reading MOs from coefficient file
 A restricted Kohn-Sham SCF calculation will be
 performed using Pulay DIIS extrapolation
 Exchange:  B88      Correlation:  P86
 Using SG-1 standard quadrature grid
 SCF converges when DIIS error is below 1.0E-08
 Using Q-Chem read-in guess as SCF_GUESS READ specified.

 using 2 threads for integral computing
 -------------------------------------------------------
 OpenMP Integral computing Module                
 Release: version 1.0, May 2013, Q-Chem Inc. Pittsburgh 
 -------------------------------------------------------
 ---------------------------------------
  Cycle       Energy         DIIS Error
 ---------------------------------------
    1   -1830.5101947280      2.69E-09
    2   -1830.5101947276      1.90E-08
    3   -1830.5101947280      8.98E-09 Convergence criterion met
 ---------------------------------------
 SCF time:  CPU 4.03 s  wall 2.22 s
 E(QM + QM/MM):    -1830.5101947280 E(MM):    2.2400382 E(Tot): -1828.270156566820 
 SCF   energy in the final basis set = -1828.27015657
 Total energy in the final basis set = -1828.27015657

 --------------------------------------------------------------

                    Orbital Energies (a.u.)
 --------------------------------------------------------------

 Alpha MOs
 -- Occupied --
******** -29.6351 -25.5958 -25.5817 -25.5786 -18.8949 -18.8931 -18.8770
-18.8759 -18.8698 -10.0652 -10.0553 -10.0513 -10.0457 -10.0398  -3.3185
 -2.1558  -2.1281  -2.1207  -1.0730  -1.0574  -1.0339  -1.0329  -1.0322
 -0.5734  -0.5302  -0.5242  -0.5162  -0.5109  -0.4565  -0.4449  -0.4363
 -0.4340  -0.4323  -0.4288  -0.4197  -0.4160  -0.4086  -0.4037  -0.4027
 -0.3984  -0.3956  -0.3881  -0.3758  -0.2754  -0.2685  -0.2289  -0.2230
 -- Virtual --
 -0.1231  -0.1000  -0.0911  -0.0869  -0.0788  -0.0727  -0.0659  -0.0632
 -0.0586  -0.0380  -0.0329   0.0121   0.1897   0.2147   0.2200   0.2462
  0.2896   0.3176   0.3297   0.3944   0.3999   0.4169   0.4280   0.4345
  0.4461   0.4702   0.4962   0.5018   0.5170   0.5525   0.5657   0.5834
  0.5905   0.6012   0.6139   0.6397   0.7410   0.7418   0.7622   0.7759
  0.7817   0.8132   0.8290   0.8624   0.8781   0.8957   0.9354   0.9536
  0.9638   0.9731   0.9848   0.9968   1.0147   1.0212   1.0364   1.0500
  1.1880   1.2535   1.2734   1.3074   1.3952   1.4050   1.4120   1.4128
  1.4184   1.4228   1.4275   1.4322   1.4364   1.4527   1.4570   1.4671
  1.4973   1.5049   1.5373   1.5528   1.6081   1.6215   1.6323   1.6613
  1.6870   1.8139   1.8232   1.8295   1.8327   1.8376   1.8443   1.8455
  1.8528   1.8588   1.8706   1.8780   1.8837   1.9004   1.9090   1.9402
  2.3274   2.3834   2.4009   2.4430   2.4453   2.4511   2.4593   2.4655
  2.4894   2.5044   2.6046   2.6109   2.6460   2.6478   2.6554   2.7908
  2.8032   2.8692   2.8937   2.9405  13.2465  13.2689  13.2835  13.3403
 13.4383  24.9032  24.9156  24.9408  24.9678  25.0038
 --------------------------------------------------------------

          Ground-State Mulliken Net Atomic Charges

     Atom                 Charge (a.u.)
  ----------------------------------------
      1 Fe                   -0.440845
      2 C                     0.232895
      3 C                     0.208062
      4 C                     0.209233
      5 C                     0.185324
      6 C                     0.210765
      7 O                    -0.134975
      8 O                    -0.135763
      9 O                    -0.082079
     10 O                    -0.144365
     11 O                    -0.108253
  ----------------------------------------
  Sum of atomic charges =     0.000000

 -----------------------------------------------------------------
                    Cartesian Multipole Moments
 -----------------------------------------------------------------
    Charge (ESU x 10^10)
                 0.0000
    Dipole Moment (Debye)
         X       0.3702907124      Y       0.0742009272      Z       1.1671742058
       Tot       1.2267504294
    Quadrupole Moments (Debye-Ang)
        XX     508.6664     XY      55.0429     YY     -71.0228
        XZ     914.3656     YZ     -10.2399     ZZ     -65.9308
    Octopole Moments (Debye-Ang^2)
       XXX  514080.6141    XXY   41344.8761    XYY  -55497.4365
       YYY    1891.5935    XXZ  716196.6853    XYZ   -8018.7084
       YYZ     -19.1996    XZZ  -51538.4821    YZZ     592.4679
       ZZZ    -318.1070
    Hexadecapole Moments (Debye-Ang^3)
      XXXX ************   XXXY ************   XXYY ************
      XYYY 1478551.0203   YYYY  -34559.7555   XXXZ ************
      XXYZ ************   XYYZ  -14910.3662   YYYZ    2077.2836
      XXZZ ************   XYZZ  463150.0657   YYZZ   -5763.2349
      XZZZ -248660.6700   YZZZ    2825.5709   ZZZZ   -1765.5320
 -----------------------------------------------------------------
 Calculating MO derivatives via CPSCF
 Full subspace dimension requested for CIS/TDDFT
 MAX_CIS_SUBSPACE fits in available memory
    1     0    36    0.0407655  
    2     0    36    0.0068313  
    3     0    36    0.0007959  
    4     0    36    0.0000698  
    5    35     1    0.0000023  
    6    36     0    0.0000001  Converged
 Time for AOints: 6.4 s (CPU) 3.3 s (wall)
 ------------------------------------------------------------------------------
                     AOints        : Timing summary (seconds)
 ------------------------------------------------------------------------------
     job step          cpu (% of tot)      sys (% of tot)     wall (% of tot)
 ------------------------------------------------------------------------------
  AOints            0.6398E+01 ( 3.6)   0.1600E-04 (15.4)   0.3260E+01 ( 3.7)
 ------------------------------------------------------------------------------
   Grand Totals     0.1765E+03          0.1040E-03          0.8905E+02
 ------------------------------------------------------------------------------
 Polarizability Matrix (a.u.)
            1           2           3
    1 -88.4965409   1.5953762   2.7142676
    2   1.5953762 -96.8848545  -6.8124887
    3   2.7142676  -6.8124887 -97.8667150
 Derivative of Dipole Moment Matrix (a.u.)
            1           2           3
    1  -1.7906584  -0.0762606   0.0154477
    2   0.0467332  -1.8566282  -0.0118857
    3   0.0819894   0.0065366  -1.7485732
    4   2.3332182   0.0993918  -0.2585490
    5   0.1466574   0.3885335  -0.0220893
    6  -0.2786702  -0.0337814   0.4387009
    7   0.6816895   0.3398381  -0.5965538
    8   0.3254922   0.7175608  -0.6967910
    9  -0.6206540  -0.7421075   1.7254821
   10   1.0517963  -0.4838087   0.8050433
   11  -0.5452575   0.7627738  -0.6690680
   12   0.7509656  -0.6019475   1.2695085
   13   0.4488625  -0.1376713  -0.0973441
   14  -0.0982338   1.5878896   0.7791901
   15  -0.0669341   0.9428030   1.0234394
   16   0.3992327  -0.0582081  -0.0636001
   17   0.0053382   1.8320653   0.7353396
   18  -0.0194830   0.6729020   0.7069039
   19  -1.7029253  -0.0966138   0.2273035
   20  -0.1240386  -0.1735194   0.0253999
   21   0.2187714   0.0254217  -0.2095119
   22  -0.4020453  -0.2567706   0.4757306
   23  -0.2472215  -0.4414515   0.5433393
   24   0.4834312   0.5717980  -1.2235708
   25  -0.6967103   0.3800164  -0.6894330
   26   0.4509506  -0.4441405   0.5814955
   27  -0.5931199   0.4356032  -0.8914952
   28  -0.1858244   0.1610075   0.1053570
   29   0.0652091  -1.0505741  -0.5952070
   30   0.0525499  -0.7930157  -0.6836514
   31  -0.1366355   0.1290794   0.0765977
   32  -0.0256294  -1.3225095  -0.6697234
   33  -0.0088465  -0.4842124  -0.4072324
 -----------------------------------------
 Net:   0.00000   0.00000   0.00000
 -----------------------------------------

 Calculating analytic Hessian of the SCF energy
