                  Welcome to Q-Chem
     A Quantum Leap Into The Future Of Chemistry


 Q-Chem 5.4 (devel), Q-Chem, Inc., Pleasanton, CA (2021)

 E. Epifanovsky,  A. T. B. Gilbert,  Xintian Feng,  Joonho Lee,  Yuezhi Mao,  
 N. Mardirossian,  P. Pokhilko,  A. White,  M. Wormit,  M. P. Coons,  
 A. L. Dempwolff,  Zhengting Gan,  D. Hait,  P. R. Horn,  L. D. Jacobson,  
 I. Kaliman,  J. Kussmann,  A. W. Lange,  Ka Un Lao,  D. S. Levine,  Jie Liu,  
 S. C. McKenzie,  A. F. Morrison,  K. Nanda,  F. Plasser,  D. R. Rehn,  
 M. L. Vidal,  Zhi-Qiang You,  Ying Zhu,  B. Alam,  B. Albrecht,  
 A. Aldossary,  E. Alguire,  J. H. Andersen,  D. Barton,  K. Begam,  A. Behn,  
 Y. A. Bernard,  E. J. Berquist,  H. Burton,  A. Carreras,  K. Carter-Fenk,  
 R. Chakraborty,  A. D. Chien,  K. D. Closser,  V. Cofer-Shabica,  
 S. Dasgupta,  Jia Deng,  M. de Wergifosse,  M. Diedenhofen,  Hainam Do,  
 S. Ehlert,  Po-Tung Fang,  S. Fatehi,  Qingguo Feng,  T. Friedhoff,  
 J. Gayvert,  Qinghui Ge,  G. Gidofalvi,  M. Goldey,  J. Gomes,  
 C. Gonzalez-Espinoza,  S. Gulania,  A. Gunina,  M. W. D. Hanson-Heine,  
 P. H. P. Harbach,  A. W. Hauser,  M. F. Herbst,  M. Hernandez Vera,  
 M. Hodecker,  Z. C. Holden,  S. Houck,  Xunkun Huang,  Kerwin Hui,  
 B. C. Huynh,  M. Ivanov,  Hyunjun Ji,  Hanjie Jiang,  B. Kaduk,  S. Kaehler,  
 K. Khistyaev,  Jaehoon Kim,  P. Klunzinger,  Z. Koczor-Benda,  
 Joong Hoon Koh,  D. Kosenkov,  L. Koulias,  T. Kowalczyk,  C. M. Krauter,  
 K. Kue,  A. Kunitsa,  T. Kus,  A. Landau,  K. V. Lawler,  D. Lefrancois,  
 S. Lehtola,  Rain Li,  Yi-Pei Li,  Jiashu Liang,  M. Liebenthal,  
 Hung-Hsuan Lin,  You-Sheng Lin,  Fenglai Liu,  Kuan-Yu Liu,  
 M. Loipersberger,  A. Luenser,  A. Manjanath,  P. Manohar,  E. Mansoor,  
 S. F. Manzer,  Shan-Ping Mao,  A. V. Marenich,  T. Markovich,  S. Mason,  
 S. A. Maurer,  P. F. McLaughlin,  M. F. S. J. Menger,  J.-M. Mewes,  
 S. A. Mewes,  P. Morgante,  J. W. Mullinax,  K. J. Oosterbaan,  G. Paran,  
 Alexander C. Paul,  Suranjan K. Paul,  F. Pavosevic,  Zheng Pei,  S. Prager,  
 E. I. Proynov,  E. Ramos,  B. Rana,  A. E. Rask,  A. Rettig,  R. M. Richard,  
 F. Rob,  E. Rossomme,  T. Scheele,  M. Scheurer,  M. Schneider,  
 N. Sergueev,  S. M. Sharada,  W. Skomorowski,  D. W. Small,  C. J. Stein,  
 Yu-Chuan Su,  E. J. Sundstrom,  Zhen Tao,  J. Thirman,  T. Tsuchimochi,  
 N. M. Tubman,  S. P. Veccham,  O. Vydrov,  J. Wenzel,  J. Witte,  A. Yamada,  
 Kun Yao,  S. Yeganeh,  S. R. Yost,  A. Zech,  Igor Ying Zhang,  Xing Zhang,  
 Yu Zhang,  D. Zuev,  A. Aspuru-Guzik,  A. T. Bell,  N. A. Besley,  
 K. B. Bravaya,  B. R. Brooks,  D. Casanova,  Jeng-Da Chai,  S. Coriani,  
 C. J. Cramer,  A. E. DePrince, III,  R. A. DiStasio Jr.,  A. Dreuw,  
 B. D. Dunietz,  T. R. Furlani,  W. A. Goddard III,  S. Grimme,  
 S. Hammes-Schiffer,  T. Head-Gordon,  W. J. Hehre,  Chao-Ping Hsu,  
 T.-C. Jagau,  Yousung Jung,  A. Klamt,  Jing Kong,  D. S. Lambrecht,  
 WanZhen Liang,  N. J. Mayhall,  C. W. McCurdy,  J. B. Neaton,  
 C. Ochsenfeld,  J. A. Parkhill,  R. Peverati,  V. A. Rassolov,  Yihan Shao,  
 L. V. Slipchenko,  T. Stauch,  R. P. Steele,  J. E. Subotnik,  
 A. J. W. Thom,  A. Tkatchenko,  D. G. Truhlar,  T. Van Voorhis,  
 T. A. Wesolowski,  K. B. Whaley,  H. L. Woodcock III,  P. M. Zimmerman,  
 S. Faraji,  P. M. W. Gill,  M. Head-Gordon,  J. M. Herbert,  A. I. Krylov

 Additional authors for Version 5.4.1: 
 S. Kotaru,  Shaozhi Li,  Xiangyuan Li,  F. Matz,  A. Molle,  Haisheng Ren,  
 Yingli Su,  Hung-Yi Tsai,  C. Utku,  Fang Wang

 Contributors to earlier versions of Q-Chem not listed above: 
 R. D. Adamson,  B. Austin,  R. Baer,  J. Baker,  G. J. O. Beran,  
 K. Brandhorst,  S. T. Brown,  E. F. C. Byrd,  A. K. Chakraborty,  
 G. K. L. Chan,  Chun-Min Chang,  Yunqing Chen,  C.-L. Cheng,  
 Siu Hung Chien,  D. M. Chipman,  D. L. Crittenden,  H. Dachsel,  
 R. J. Doerksen,  A. D. Dutoi,  R. G. Edgar,  J. Fosso-Tande,  
 L. Fusti-Molnar,  D. Ghosh,  A. Ghysels,  A. Golubeva-Zadorozhnaya,  
 J. Gonthier,  M. S. Gordon,  S. R. Gwaltney,  G. Hawkins,  J. E. Herr,  
 A. Heyden,  S. Hirata,  E. G. Hohenstein,  G. Kedziora,  F. J. Keil,  
 C. Kelley,  Jihan Kim,  R. A. King,  R. Z. Khaliullin,  P. P. Korambath,  
 W. Kurlancheek,  A. Laurent,  A. M. Lee,  M. S. Lee,  S. V. Levchenko,  
 Ching Yeh Lin,  D. Liotard,  E. Livshits,  R. C. Lochan,  I. Lotan,  
 L. A. Martinez-Martinez,  P. E. Maslen,  N. Nair,  D. P. O'Neill,  
 D. Neuhauser,  E. Neuscamman,  C. M. Oana,  R. Olivares-Amaya,  R. Olson,  
 T. M. Perrine,  B. Peters,  P. A. Pieniazek,  A. Prociuk,  Y. M. Rhee,  
 J. Ritchie,  M. A. Rohrdanz,  E. Rosta,  N. J. Russ,  H. F. Schaefer III,  
 M. W. Schmidt,  N. E. Schultz,  S. Sharma,  N. Shenvi,  C. D. Sherrill,  
 A. C. Simmonett,  A. Sodt,  T. Stein,  D. Stuck,  K. S. Thanthiriwatte,  
 V. Vanovschi,  L. Vogt,  Tao Wang,  A. Warshel,  M. A. Watson,  
 C. F. Williams,  Q. Wu,  X. Xu,  Jun Yang,  W. Zhang,  Yan Zhao

 Please cite Q-Chem as follows:
 Y. Shao et al., Mol. Phys. 113, 184-215 (2015)
 DOI: 10.1080/00268976.2014.952696

 Q-Chem 5.4.1 for Intel X86 EM64T Linux

 Parts of Q-Chem use Armadillo 9.900.5 (Nocturnal Misbehaviour).
 http://arma.sourceforge.net/

 Q-Chem begins on Wed Jun 22 08:05:25 2022  

 Host: p09r16n04.grace.hpc.yale.internal
0

     Scratch files written to /home/tl686/scratch60/qchem_dev/scratch/qchem69510//
 Processing $rem in /home/tl686/qchem_dev/qchem/config/preferences:
 Processing $rem in /home/tl686/.qchemrc:
Applying user defined connections for MM calculations

 Checking the input file for inconsistencies... 	...done.

--------------------------------------------------------------
User input:
--------------------------------------------------------------
$molecule
0   1
 Fe 1477.70705582 -16.34253203 4.43471471    -1  0   0   0   0
C 1474.30805983 -16.61090313 4.82245004    -2  0   0   0   0 
C 1478.72004212 -15.01069497 1.74649514    -2  0   0   0   0
C 1479.74061649 -17.60526900 6.76546256    -2  0   0   0   0
C 1478.04626358 -19.30112191 2.58203794    -2  0   0   0   0
C 1477.60204320 -13.36483546 5.66998576    -2  0   0   0   0
O 1472.27063749 -16.41215288 5.26085022    -3  0   0   0   0
O 1479.52819663 -13.87248166 -0.65671428    -3  0   0   0   0 
O 1480.99232864 -18.18342470 8.48156139    -3  0   0   0   0
O 1478.65218008 -20.97163389 1.38508181    -3  0   0   0   0 
O 1477.65929187 -11.48350915 6.80227688    -3  0   0   0   0
H 1462.52378061 -44.95947212 19.94144604      6     13    0    0    0 
C 1462.23652074 -43.07653260 19.63901664     1     12    14    15    16
H 1460.52737768 -42.61417866 20.49574246     6     13    0    0    0
H 1463.57410088 -42.15120271 20.85674078     6     13    0    0    0
C 1462.34580939 -42.38546638 16.96732674     2     13    17    18    19
H 1460.99079991 -43.52192571 15.78419195     6     16    0    0    0
H 1462.10991865 -40.41904283 16.77861594     6     16    0    0    0
C 1465.11418788 -42.95299907 16.00448387     2     16    20   21   22
H 1466.61737353 -41.60849282 16.80472193     6     19    0    0    0
H 1465.58245839 -44.83080365 16.75424595     6     19    0    0    0
C 1465.32707394 -43.05667193 13.11156136     2     19   23   24   25
H 1463.74167667 -44.04643215 12.44127405     6    22    0    0    0
H 1465.27405065 -41.07686715 12.27760694     6    22    0    0    0
C 1467.96303719 -44.34929973 12.55126936     2    22   26   27   28
H 1469.65535808 -43.50253880 13.42647865     6    25    0    0    0
H 1467.84196837 -46.29804456 13.16827290     6    25    0    0    0
C 1468.43116075 -44.97033662 9.67741707     2    25   29   30   31
H 1469.89630825 -46.45575211 9.56578494     6    28    0    0    0
H 1466.70750409 -45.71304293 8.78487271     6    28    0    0    0
C 1469.26064822 -42.69582124 8.23552104     2    28   32   33   34
H 1467.86791985 -41.26395848 8.59513073     6    31    0    0    0
H 1471.10769445 -42.10464752 9.03284871     6    31    0    0    0
C 1469.59921914 -43.24206583 5.42102151     2    31   35   36   37
H 1471.05871770 -44.72684997 4.96163693     6    34    0    0    0
H 1467.84756993 -44.15658465 4.60574413     6    34    0    0    0
C 1470.47867366 -40.85666448 3.90754471     2    34   38   39   40
H 1469.28007392 -39.09851575 4.17339090     6    37    0    0    0
H 1472.32901323 -40.40723286 4.83993375     6    37    0    0    0
C 1470.93813305 -41.22254140 1.13440826     2    37   41   42   43
H 1472.01411708 -42.92016761 0.68368503     6    40    0    0    0
H 1469.24808950 -41.41636168 0.22410645     6    40    0    0    0
C 1472.60031504 -39.13070125 0.23078502     2    40   44   45   46
H 1471.89243096 -37.28047406 0.60628213     6    43    0    0    0
H 1474.38838652 -39.30630415 1.24810475     6    43    0    0    0
C 1473.02902417 -39.42196000 -2.70013135     1    43   47   48   49
H 1474.00734717 -41.13894922 -3.27891743     6    46    0    0    0
H 1474.26262181 -37.95650349 -3.43049305     6    46    0    0    0
H 1471.45468170 -39.17231528 -4.02331254     6    46    0    0    0
H 1470.90316588 -24.83085705 -2.47727774     6     51    0    0    0 
C 1472.26264113 -23.68012458 -1.49951523     1     50    52    53    54
H 1473.79935952 -22.90685936 -2.64180707     6     51    0    0    0
H 1471.34887255 -21.92646077 -0.96776019     6     51    0    0    0
C 1473.39844585 -25.17669627 0.71390510     2     51    55    56    57
H 1474.64451480 -24.12617607 1.99108509     6     54    0    0    0
H 1471.95450437 -25.72246967 1.98288685     6     54    0    0    0
C 1474.58664348 -27.66748028 -0.20334039     2     54    58   59   60
H 1476.55847881 -27.60343847 -0.55319822     6     57    0    0    0
H 1474.27882708 -28.86953363 1.32633649     6     57    0    0    0
C 1473.39166116 -28.93562595 -2.53192739     2     57   61   62   63
H 1471.46867766 -29.14488623 -2.00538790     6    60    0    0    0
H 1473.58669645 -27.52529478 -4.06841627     6    60    0    0    0
C 1474.80257571 -31.36291203 -3.38798928     2    60   64   65   66
H 1476.88727558 -31.07289322 -3.48866319     6    63    0    0    0
H 1474.58415419 -32.81270006 -1.78689957     6    63    0    0    0
C 1473.95055656 -32.72973086 -5.72958801     2    63   67   68   69
H 1474.77237794 -34.59916083 -5.60015744     6    66    0    0    0
H 1471.96582357 -33.21253978 -5.64758867     6    66    0    0    0
C 1474.74696932 -31.36873388 -8.10228195     2    66   70   71   72
H 1474.04230052 -29.44014876 -8.13005231     6    69    0    0    0
H 1476.80301937 -31.18387958 -8.17279949     6    69    0    0    0
C 1473.93323480 -32.96760875 -10.48064874     2    69   73   74   75
H 1475.08813734 -34.69604164 -10.25841794     6    72    0    0    0
H 1471.94334826 -33.55318858 -10.28308290     6    72    0    0    0
C 1474.34533220 -31.74563133 -13.04252601     2    72   76   77   78
H 1473.32316558 -30.02507234 -13.11551447     6    75    0    0    0
H 1476.36951146 -31.45228295 -13.26786661     6    75    0    0    0
C 1473.27021043 -33.58136825 -15.09218536     2    75   79   80   81
H 1474.36632541 -35.21517210 -15.39348386     6    78    0    0    0
H 1471.42273631 -34.28476306 -14.56212016     6    78    0    0    0
C 1473.12714047 -32.31623819 -17.55900717     2    78   82   83   84
H 1471.84207346 -30.85992127 -17.64419966     6    81    0    0    0
H 1474.91070718 -31.60653166 -18.15763928     6    81    0    0    0
C 1472.11076235 -34.08636599 -19.64678018     1    81   85   86   87
H 1471.33184143 -33.04649790 -21.15260890     6    84    0    0    0
H 1470.48823571 -35.35951425 -18.93248657     6    84    0    0    0
H 1473.38510527 -35.37336441 -20.57264129     6    84    0    0    0
H 1494.85771814 -48.21793572 13.77876027     6     89    0    0    0 
C 1494.12121629 -49.90106585 12.85940469     1     88    90    91    92
H 1495.42192687 -50.63986803 11.24377246     6     89    0    0    0
H 1494.03428627 -51.50830602 14.12380211     6     89    0    0    0
C 1491.51888784 -49.31261214 11.63707500     2     89    93    94    95
H 1490.26741296 -48.00483203 12.68304105     6     92    0    0    0
H 1491.71271179 -48.27340359 9.80467632     6     92    0    0    0
C 1490.02769766 -51.63004733 10.84114739     2     92    96   97   98
H 1491.23827454 -52.94901823 9.64438112     6     95    0    0    0
H 1489.50493682 -52.51543290 12.72108600     6     95    0    0    0
C 1487.60969907 -50.82369035 9.31615894     2     95   99   100   101
H 1486.58772122 -49.69184911 10.61183595     6    98    0    0    0
H 1488.44886588 -49.88957355 7.65860315     6    98    0    0    0
C 1485.93536100 -52.93230977 8.38211591     2    98   102   103   104
H 1487.06855208 -54.55962700 8.10916131     6    101    0    0    0
H 1484.44204232 -53.46288081 9.75862768     6    101    0    0    0
C 1484.68760366 -52.37079320 5.98147236     2    101   105   106   107
H 1483.30746455 -50.93290448 6.40607769     6    104    0    0    0
H 1485.91680834 -51.34545015 4.65290317     6    104    0    0    0
C 1483.10947618 -54.22928010 4.33455817     2    104   108   109   110
H 1484.31521735 -55.84464814 3.96635850     6    107    0    0    0
H 1481.58413001 -54.96085020 5.42946996     6    107    0    0    0
C 1481.88545192 -53.05615861 1.89192255     2    107   111   112   113
H 1480.61298472 -51.58926902 2.29021383     6    110    0    0    0
H 1483.47450571 -52.11267596 1.02390245     6    110    0    0    0
C 1480.46236584 -55.03277925 0.25146367     2    110   114   115   116
H 1481.69054872 -56.55511121 -0.50164264     6    113    0    0    0
H 1479.17824964 -56.05658450 1.42438203     6    113    0    0    0
C 1478.97724768 -53.72245622 -1.89410894     2    113   117   118   119
H 1477.15575041 -52.98315727 -1.26038960     6    116    0    0    0
H 1480.09088542 -52.09324955 -2.42834132     6    116    0    0    0
C 1478.45131069 -55.48542996 -4.12291803     2    116   120   121   122
H 1477.47555462 -54.41432800 -5.57536195     6    119    0    0    0
H 1480.32043635 -56.21215643 -4.81091357     6    119    0    0    0
C 1476.91240685 -57.81117067 -3.43130402     1    119   123   124   125
H 1476.34879349 -59.14000533 -4.94584738     6    122    0    0    0
H 1475.28075563 -57.46301105 -2.32376953     6    122    0    0    0
H 1478.09699210 -59.16155687 -2.28850224     6    122    0    0    0
H 1498.94621947 -34.43976029 14.34568739     6     127    0    0    0 
C 1498.84779868 -32.27013070 14.41118291     1     126    128    129    130
H 1500.47655138 -31.78924056 15.50490775     6     127    0    0    0
H 1499.17025967 -31.42705338 12.47013662     6     127    0    0    0
C 1496.41815740 -31.43149705 15.80316224     2     127    131    132    133
H 1494.80064792 -32.49277642 15.17315272     6     130    0    0    0
H 1496.55851271 -32.14517555 17.70912608     6     130    0    0    0
C 1496.17426823 -28.53319705 15.70998093     2     130    134   135   136
H 1497.76370903 -27.72126416 16.69581151     6     133    0    0    0
H 1496.16935174 -27.88085004 13.83755259     6     133    0    0    0
C 1493.74495487 -27.19055656 16.86488190     2     133   137   138   139
H 1492.16756251 -27.94426996 15.63892389     6    136    0    0    0
H 1493.39242367 -27.37517919 18.79532378     6    136    0    0    0
C 1493.87121552 -24.35453627 16.18035393     2    136   140   141   142
H 1495.62290968 -23.65149097 17.03383913     6    139    0    0    0
H 1494.14089429 -24.30347664 14.17742987     6    139    0    0    0
C 1491.66141080 -22.77464039 16.98066191     2    139   143   144   145
H 1489.81731646 -23.45426758 16.10614425     6    142    0    0    0
H 1491.22804575 -23.39366177 18.92213690     6    142    0    0    0
C 1492.35878587 -20.02170271 16.69575977     2    142   146   147   148
H 1494.11725447 -19.68798133 17.69907108     6    145    0    0    0
H 1492.43486264 -19.42412717 14.80205089     6    145    0    0    0
C 1490.67360210 -18.42442087 18.28990147     2    145   149   150   151
H 1488.63002697 -18.73406611 17.82224677     6    148    0    0    0
H 1491.04762843 -18.67886224 20.21269962     6    148    0    0    0
C 1491.12706374 -15.77700787 17.59968353     2    148   152   153   154
H 1493.18097373 -15.08530503 17.57854586     6    151    0    0    0
H 1490.72860990 -15.49726518 15.64633086     6    151    0    0    0
C 1489.37712689 -13.95801776 19.08572590     2    151   155   156   157
H 1489.50187387 -12.17601654 18.06696363     6    154    0    0    0
H 1487.30736167 -14.25123922 18.91487604     6    154    0    0    0
C 1489.84395903 -13.40427751 21.86423596     2    154   158   159   160
H 1489.83513922 -15.23223100 22.93986751     6    157    0    0    0
H 1491.50893791 -12.37978023 21.99636938     6    157    0    0    0
C 1487.70117432 -11.83416469 22.92765283     1    157   161   162   163
H 1487.72139834 -11.22962462 24.95168867     6    160    0    0    0
H 1485.74929658 -12.66502605 22.64391074     6    160    0    0    0
H 1487.46345322 -10.03055265 21.84448713     6    160    0    0    0
H 1508.68178060 -41.54921709 -0.69848848     6     165    0    0    0 
C 1508.68555979 -41.07635909 1.37801153     1     164    166    167    168
H 1507.28653734 -42.26399995 2.19999900     6     165    0    0    0
H 1510.60140476 -41.54100658 2.14347845     6     165    0    0    0
C 1508.49802305 -38.17018218 2.06329784     2     165    169    170    171
H 1509.84018556 -37.00693365 0.97104281     6     168    0    0    0
H 1506.62604419 -37.45748671 1.80670366     6     168    0    0    0
C 1509.08771465 -37.80220666 4.93455422     2     168    172   173   174
H 1507.82675602 -38.89300069 6.13722804     6     171    0    0    0
H 1511.01372923 -38.38075791 5.37851096     6     171    0    0    0
C 1508.62394008 -35.02917105 5.77068343     2     171   175   176   177
H 1510.13596498 -33.90831601 4.84926712     6    174    0    0    0
H 1506.70033326 -34.41478811 5.07254900     6    174    0    0    0
C 1508.84510590 -34.79769428 8.64778191     2    174   178   179   180
H 1507.64949079 -36.28226310 9.64302534     6    177    0    0    0
H 1510.84588786 -35.61185373 8.96157268     6    177    0    0    0
C 1508.37538625 -32.22881367 9.61693000     2    177   181   182   183
H 1506.34969227 -31.81627766 9.22041936     6    180    0    0    0
H 1508.25526518 -32.28693890 11.61463727     6    180    0    0    0
C 1510.18998433 -30.05702340 8.95587232     2    180   184   185   186
H 1512.02833812 -30.68329661 9.61959757     6    183    0    0    0
H 1510.18656071 -29.91653745 6.92775208     6    183    0    0    0
C 1509.36033976 -27.57744167 9.87345597     2    183   187   188   189
H 1508.11980073 -26.72662993 8.44192196     6    186    0    0    0
H 1507.91113262 -27.71800171 11.28410912     6    186    0    0    0
C 1511.58813856 -25.83302528 10.79926744     2    186   190   191   192
H 1512.46942906 -26.59690716 12.51282467     6    189    0    0    0
H 1512.99139931 -25.77579704 9.24924245     6    189    0    0    0
C 1510.74553078 -23.02977933 11.41403722     2    189   193   194   195
H 1510.18612578 -21.89807558 9.70977253     6    192    0    0    0
H 1509.04626567 -22.80465672 12.58387636     6    192    0    0    0
C 1513.12514159 -21.71814644 12.57627265     2    192   196   197   198
H 1513.95529619 -22.77335239 14.05407616     6    195    0    0    0
H 1514.54663272 -21.50348974 11.22117895     6    195    0    0    0
C 1512.37657975 -19.17860088 13.86897622     1    195   199   200   201
H 1514.08925227 -18.10997239 14.33805555     6    198    0    0    0
H 1511.24952644 -19.37323340 15.59693334     6    198    0    0    0
H 1511.26649969 -17.93499448 12.71841960     6    198    0    0    0
H 1497.95717432 -35.03406527 -13.78198302     6     203    0    0    0 
C 1498.56808263 -34.07592962 -12.05799870     1     202    204    205    206
H 1496.97839921 -34.00076740 -10.81577552     6     203    0    0    0
H 1499.86262348 -35.08159729 -10.87884584     6     203    0    0    0
C 1499.73167994 -31.52406797 -12.43650975     2     203    207    208    209
H 1498.24037519 -30.50539867 -13.12473427     6     206    0    0    0
H 1500.40886955 -30.58859262 -10.65966397     6     206    0    0    0
C 1501.97714824 -31.51407259 -14.38599305     2     206    210   211   212
H 1503.56612953 -32.61299299 -13.62578667     6     209    0    0    0
H 1501.42573408 -32.54584372 -16.05011502     6     209    0    0    0
C 1502.93322725 -28.92580684 -15.15766371     2     209   213   214   215
H 1503.22567518 -27.76499505 -13.47502993     6    212    0    0    0
H 1504.63594667 -29.25490005 -16.24179968     6    212    0    0    0
C 1501.19646561 -27.44107251 -16.94194775     2    212   216   217   218
H 1500.79138046 -28.53984849 -18.64408388     6    215    0    0    0
H 1499.26722281 -27.13832806 -16.13705088     6    215    0    0    0
C 1502.28656062 -24.87761521 -17.65492129     2    215   219   220   221
H 1502.34802908 -23.53526934 -16.22245828     6    218    0    0    0
H 1504.25734855 -25.30336120 -18.17515276     6    218    0    0    0
C 1501.07894855 -23.70930038 -20.03079498     2    218   222   223   224
H 1500.99307398 -25.12738193 -21.57108935     6    221    0    0    0
H 1499.12977024 -23.30027290 -19.78851007     6    221    0    0    0
C 1502.40853098 -21.58221937 -21.38889020     2    221   225   226   227
H 1502.55445628 -19.78534653 -20.26074974     6    224    0    0    0
H 1504.40167728 -22.19718668 -21.54028555     6    224    0    0    0
C 1501.29204207 -20.78595607 -24.02770956     2    224   228   229   230
H 1501.13641607 -22.33782088 -25.33636786     6    227    0    0    0
H 1499.41718646 -20.01201838 -23.89896858     6    227    0    0    0
C 1502.98140716 -18.66637767 -25.25639684     2    227   231   232   233
H 1503.04590317 -16.93178287 -24.12081681     6    230    0    0    0
H 1504.87812695 -19.60244290 -25.21784355     6    230    0    0    0
C 1502.18303577 -17.84804687 -27.90971043     2    230   234   235   236
H 1502.99683870 -19.06444992 -29.31732152     6    233    0    0    0
H 1500.15775447 -17.54925368 -28.18855085     6    233    0    0    0
C 1503.27889614 -15.25501042 -28.67949478     1    233   237   238   239
H 1502.24082796 -14.18301393 -30.17781636     6    236    0    0    0
H 1505.25780311 -15.23562838 -29.36032764     6    236    0    0    0
H 1503.07784394 -13.84809717 -27.13718072     6    236    0    0    0
H 1476.51410333 -40.78478390 -13.51985004     6     241    0    0    0 
C 1477.19119644 -41.21260087 -11.64002948     1     240    242    243    244
H 1478.86067455 -42.30597468 -11.94404178     6     241    0    0    0
H 1477.61229234 -39.41358288 -10.86928862     6     241    0    0    0
C 1474.97244321 -42.34000456 -10.10183852     2     241    245    246    247
H 1474.26313692 -44.11809061 -11.15419566     6     244    0    0    0
H 1475.82037220 -43.26959808 -8.46135474     6     244    0    0    0
C 1472.82726467 -40.44649511 -9.49232654     2     244    248   249   250
H 1471.37752964 -41.27851756 -8.19863335     6     247    0    0    0
H 1473.59049928 -38.69627768 -8.46567544     6     247    0    0    0
C 1471.45049720 -39.51493123 -11.82253416     2     247   251   252   253
H 1470.55661832 -37.66557965 -11.50525017     6    250    0    0    0
H 1472.69542947 -39.11793903 -13.45076625     6    250    0    0    0
C 1469.52429499 -41.46080033 -12.82954091     2    250   254   255   256
H 1470.42578063 -43.27553191 -13.22257232     6    253    0    0    0
H 1468.11099076 -41.97657525 -11.47135826     6    253    0    0    0
C 1468.04671815 -40.53820016 -15.07550758     2    253   257   258   259
H 1466.45621825 -41.84435639 -15.29262588     6    256    0    0    0
H 1467.29511834 -38.72938346 -14.78959951     6    256    0    0    0
C 1469.30608403 -40.55312388 -17.65377350     2    256   260   261   262
H 1471.01102318 -39.49189006 -17.57865358     6    259    0    0    0
H 1469.89588667 -42.47658659 -18.22259305     6    259    0    0    0
C 1467.51643314 -39.61007408 -19.90682302     2    259   263   264   265
H 1465.75447945 -40.69164581 -19.72883361     6    262    0    0    0
H 1466.84900594 -37.68831399 -19.72438141     6    262    0    0    0
C 1468.61571328 -39.97588968 -22.60239625     2    262   266   267   268
H 1470.10153182 -38.65153426 -22.86421274     6    265    0    0    0
H 1469.30388955 -41.85816999 -22.92833132     6    265    0    0    0
C 1466.67641539 -39.22966481 -24.48439882     2    265   269   270   271
H 1465.17529292 -40.58319605 -24.46923112     6    268    0    0    0
H 1465.58608756 -37.60905304 -23.73911638     6    268    0    0    0
C 1467.55834626 -38.63867353 -27.16825144     2    268   272   273   274
H 1468.18772979 -36.65298368 -27.09733321     6    271    0    0    0
H 1469.32486709 -39.83106902 -27.62636084     6    271    0    0    0
C 1465.41886267 -38.74432101 -29.18816549     1    271   275   276   277
H 1464.60897657 -40.48655891 -29.35201711     6    274    0    0    0
H 1465.92578744 -37.85282758 -31.05453254     6    274    0    0    0
H 1463.83817321 -37.54661143 -28.49975596     6    274    0    0    0
H 1493.34650986 -43.17136413 -7.58504683     6     279    0    0    0 
C 1492.43073377 -43.83773300 -9.31306011     1     278    280    281    282
H 1493.56601790 -45.22182034 -10.37972540     6     279    0    0    0
H 1490.68051841 -44.65940499 -8.71974913     6     279    0    0    0
C 1491.94750376 -41.37444749 -10.90408723     2     279    283    284    285
H 1491.39252974 -39.76726966 -9.78915648     6     282    0    0    0
H 1493.70720282 -41.06407710 -12.01799613     6     282    0    0    0
C 1489.82655909 -41.74711310 -12.91303123     2     282    286   287   288
H 1490.50159281 -43.31191752 -14.22650345     6     285    0    0    0
H 1488.06427710 -42.27370910 -12.13205502     6     285    0    0    0
C 1489.80275736 -39.27740809 -14.59742069     2     285   289   290   291
H 1489.29811300 -37.78509777 -13.42197791     6    288    0    0    0
H 1491.65855908 -38.68040245 -15.39078579     6    288    0    0    0
C 1488.11395375 -39.78339017 -16.97352409     2    288   292   293   294
H 1488.34588790 -41.63737969 -17.94354045     6    291    0    0    0
H 1486.21182148 -39.60696603 -16.34393730     6    291    0    0    0
C 1488.63669717 -37.85650047 -18.98734244     2    291   295   296   297
H 1488.33377091 -35.87846259 -18.34406852     6    294    0    0    0
H 1490.59073823 -37.87430761 -19.81469041     6    294    0    0    0
C 1487.08657457 -38.19899500 -21.38415145     2    294   298   299   300
H 1487.85238232 -39.66399353 -22.61403223     6    297    0    0    0
H 1485.10021044 -38.67002976 -20.88486571     6    297    0    0    0
C 1487.37930887 -35.61915173 -22.91238311     2    297   301   302   303
H 1486.79693376 -33.92741041 -21.70347667     6    300    0    0    0
H 1489.23531691 -35.17708606 -23.42880991     6    300    0    0    0
C 1486.26108232 -35.53011163 -25.67445136     2    300   304   305   306
H 1487.26772087 -36.75937750 -27.03789202     6    303    0    0    0
H 1484.17453502 -36.10862011 -25.68941398     6    303    0    0    0
C 1485.95577971 -32.81828227 -26.56662542     2    303   307   308   309
H 1484.80648353 -32.06172988 -25.21257442     6    306    0    0    0
H 1487.57439245 -31.57133743 -26.83749775     6    306    0    0    0
C 1484.64797560 -32.65745100 -29.02124389     2    306   310   311   312
H 1485.84896760 -33.10921928 -30.55430172     6    309    0    0    0
H 1483.20010771 -34.10672113 -29.06705969     6    309    0    0    0
C 1483.66444894 -30.06622928 -29.71571090     1    309   313   314   315
H 1484.88482782 -28.55291954 -29.40590183     6    312    0    0    0
H 1481.85458072 -29.87825391 -28.85679777     6    312    0    0    0
H 1483.32325990 -30.08437978 -31.79430590     6    312    0    0    0
H 1487.77889824 -41.19931277 8.02414646     6     317    0    0    0 
C 1489.20829913 -40.06303936 6.91406674     1     316    318    319    320
H 1490.96774919 -40.39385874 7.93930167     6     317    0    0    0
H 1489.22314242 -41.03525737 5.11484943     6     317    0    0    0
C 1488.44734682 -37.26602788 6.70181936     2     317    321    322    323
H 1489.70618211 -36.48315580 5.26729266     6     320    0    0    0
H 1486.66374218 -36.77891917 5.77457598     6     320    0    0    0
C 1488.44626007 -35.99658573 9.26608748     2     320    324   325   326
H 1487.56797174 -37.08408528 10.74671004     6     323    0    0    0
H 1490.44150972 -35.67480988 9.63355292     6     323    0    0    0
C 1487.10660380 -33.48112492 8.79241862     2     323   327   328   329
H 1488.13046064 -32.33208120 7.48145554     6    326    0    0    0
H 1485.25128234 -33.86954794 7.89464480     6    326    0    0    0
C 1486.44359573 -31.97775619 11.11444863     2    326   330   331   332
H 1486.12020863 -33.26402892 12.70600447     6    329    0    0    0
H 1488.12630451 -31.01151339 11.92253035     6    329    0    0    0
C 1484.22390748 -30.30014140 10.67678709     2    329   333   334   335
H 1484.50351308 -28.85946345 9.21424755     6    332    0    0    0
H 1482.42658719 -31.40853118 10.26286803     6    332    0    0    0
C 1483.56979438 -28.69337861 13.08587267     2    332   336   337   338
H 1483.60912757 -30.17099435 14.59014351     6    335    0    0    0
H 1485.07166573 -27.22336759 13.52883298     6    335    0    0    0
C 1481.07234997 -27.27541649 12.94104358     2    335   339   340   341
H 1481.30064754 -25.91279425 11.34522735     6    338    0    0    0
H 1479.61543212 -28.67506985 12.24816233     6    338    0    0    0
C 1480.31350354 -25.76281558 15.26209009     2    338   342   343   344
H 1480.97899915 -26.95149837 16.79232398     6    341    0    0    0
H 1481.27693814 -23.92603727 15.34163546     6    341    0    0    0
C 1477.39648609 -25.35485826 15.41228272     2    341   345   346   347
H 1476.97819888 -24.27433734 17.09395306     6    344    0    0    0
H 1476.80825842 -24.39538297 13.68074782     6    344    0    0    0
C 1475.78339726 -27.77043964 15.59530109     2    344   348   349   350
H 1475.89157444 -28.56635114 13.70064530     6    347    0    0    0
H 1476.77866462 -29.21926278 16.78747673     6    347    0    0    0
C 1473.16373381 -27.00499982 16.40091079     1    347   351   352   353
H 1471.86242350 -28.56121440 16.51602549     6    350    0    0    0
H 1472.23375732 -25.46901944 15.41239489     6    350    0    0    0
H 1473.39029151 -26.15478979 18.25792544     6    350    0    0    0
H 1482.70662592 -41.36345072 -8.83423426     6     355    0    0    0 
C 1483.23387158 -41.10985876 -6.92513749     1     354    356    357    358
H 1482.87694159 -39.10270670 -6.35621625     6     355    0    0    0
H 1482.10190019 -42.20654434 -5.54083156     6     355    0    0    0
C 1485.87922574 -41.57303903 -6.65104121     2     355    359    360    361
H 1486.46262775 -43.27737808 -7.40125392     6     358    0    0    0
H 1486.92290272 -40.20285284 -7.70312109     6     358    0    0    0
C 1486.86254223 -41.23804036 -3.94679626     2     358    362   363   364
H 1486.33127241 -39.39461959 -3.34072790     6     361    0    0    0
H 1485.89272020 -42.34691000 -2.58345203     6     361    0    0    0
C 1489.73167231 -41.66619026 -3.75033701     2     361   365   366   367
H 1490.19858600 -43.60150703 -4.49265186     6    364    0    0    0
H 1490.48389413 -40.24937894 -5.05202654     6    364    0    0    0
C 1490.77981452 -41.28003163 -1.09882429     2    364   368   369   370
H 1490.22032180 -39.43493219 -0.48658365     6    367    0    0    0
H 1490.09562847 -42.70279933 0.14432884     6    367    0    0    0
C 1493.72500432 -41.53174629 -0.87855847     2    367   371   372   373
H 1494.29511951 -43.55601496 -0.87062816     6    370    0    0    0
H 1494.56872997 -40.69745014 -2.55140149     6    370    0    0    0
C 1494.68354793 -40.32926501 1.70213055     2    370   374   375   376
H 1493.76769902 -38.41342111 1.98273132     6    373    0    0    0
H 1494.02593239 -41.46294391 3.24319332     6    373    0    0    0
C 1497.53249474 -40.09103303 1.77120765     2    373   377   378   379
H 1498.43816312 -41.74927237 0.74654797     6    376    0    0    0
H 1497.91554122 -38.35119746 0.84402211     6    376    0    0    0
C 1498.55043306 -39.76267354 4.47833946     2    376   380   381   382
H 1498.25848731 -41.19084918 5.78224601     6    379    0    0    0
H 1500.61341689 -39.73978378 4.31287578     6    379    0    0    0
C 1497.77872431 -37.14524722 5.63730507     2    379   383   384   385
H 1498.28433197 -35.57808754 4.46579721     6    382    0    0    0
H 1495.72162910 -37.02729728 5.66537592     6    382    0    0    0
C 1498.97204543 -36.63604648 8.21009774     2    382   386   387   388
H 1498.25305188 -34.83860741 8.89896849     6    385    0    0    0
H 1498.33906133 -38.00389840 9.57880460     6    385    0    0    0
C 1501.79455198 -36.70728036 8.37886523     1    385   389   390   391
H 1502.77223037 -35.34665301 7.25498402     6    388    0    0    0
H 1502.29790450 -38.82506944 8.05038311     6    388    0    0    0
H 1502.29772175 -36.44521603 10.40572119     6    388    0    0    0
H 1466.34352507 -2.38770563 12.84077003     6     393    0    0    0 
C 1465.67073669 -2.43636574 10.92789768     1     392    394    395    396
H 1465.19870712 -0.64581247 10.22936677     6     393    0    0    0
H 1467.29398798 -2.92261490 9.68907278     6     393    0    0    0
C 1463.75215547 -4.64411400 10.46132958     2     393    397    398    399
H 1464.53768069 -6.24731718 11.37700799     6     396    0    0    0
H 1461.73009698 -4.10273531 11.18628151     6     396    0    0    0
C 1463.31197260 -5.00271122 7.61799107     2     396    400   401   402
H 1462.29895568 -3.42444278 6.80447420     6     399    0    0    0
H 1465.11615363 -5.08373482 6.52725493     6     399    0    0    0
C 1461.73632076 -7.17072312 7.27890944     2     399   403   404   405
H 1462.64351268 -8.98616110 7.75019913     6    402    0    0    0
H 1459.92620422 -6.94646232 8.46672972     6    402    0    0    0
C 1460.80243834 -7.31062160 4.51261540     2    402   406   407   408
H 1459.65208085 -5.63037843 4.19137110     6    405    0    0    0
H 1462.56995531 -7.43609360 3.37347498     6    405    0    0    0
C 1459.26392906 -9.76698050 4.28828627     2    405   409   410   411
H 1460.38964442 -11.46148860 4.61367000     6    408    0    0    0
H 1457.59331570 -9.68310024 5.59531752     6    408    0    0    0
C 1458.27593369 -9.99030843 1.57726229     2    408   412   413   414
H 1457.66472190 -8.15920564 1.00992558     6    411    0    0    0
H 1459.89191603 -10.44880563 0.35922761     6    411    0    0    0
C 1456.11129884 -11.83977058 1.26304273     2    411   415   416   417
H 1456.59121937 -13.82320102 1.65310637     6    414    0    0    0
H 1454.58753931 -11.42191395 2.55847041     6    414    0    0    0
C 1455.11388844 -11.68943485 -1.48122688     2    414   418   419   420
H 1455.35596253 -9.74011474 -2.08674399     6    417    0    0    0
H 1456.28445177 -12.78821596 -2.80615472     6    417    0    0    0
C 1452.28702446 -12.38343928 -1.79322747     2    417   421   422   423
H 1451.96763914 -14.35059104 -1.57240532     6    420    0    0    0
H 1451.33711214 -11.44703068 -0.32883126     6    420    0    0    0
C 1451.04779898 -11.31576428 -4.15756524     2    420   424   425   426
H 1449.10742919 -11.58786602 -4.14824279     6    423    0    0    0
H 1450.82907115 -9.21819679 -4.15099642     6    423    0    0    0
C 1452.41144411 -12.41620998 -6.50310220     1    423   427   428   429
H 1451.75173777 -11.33666240 -8.13350319     6    426    0    0    0
H 1451.73098981 -14.34519550 -6.60126840     6    426    0    0    0
H 1454.44739888 -12.21932400 -6.55860550     6    426    0    0    0
H 1458.75051948 -34.37084097 -1.77954072     6     431    0    0    0 
C 1459.34079008 -33.88553353 0.13060994     1     430    432    433    434
H 1458.23758675 -35.19269155 1.34025575     6     431    0    0    0
H 1461.32679838 -34.49058951 0.23947749     6     431    0    0    0
C 1458.83482956 -31.08014342 0.71413590     2     431    435    436    437
H 1460.09085639 -29.94701746 -0.32528012     6     434    0    0    0
H 1456.83437556 -30.53712211 0.25588949     6     434    0    0    0
C 1459.27758427 -30.51196216 3.54847187     2     434    438   439   440
H 1458.21153258 -31.77536597 4.74068063     6     437    0    0    0
H 1461.17195782 -31.27248033 3.97835382     6     437    0    0    0
C 1459.20796071 -27.74509316 4.66106460     2     437   441   442   443
H 1460.02473690 -27.97228361 6.54238731     6    440    0    0    0
H 1460.41986312 -26.45694230 3.56810034     6    440    0    0    0
C 1456.46921580 -26.59389628 5.18708617     2    440   444   445   446
H 1455.43868764 -26.69462664 3.38587120     6    443    0    0    0
H 1455.33156352 -27.90797356 6.50114050     6    443    0    0    0
C 1456.75185813 -23.78790285 6.15074877     2    443   447   448   449
H 1457.94676539 -23.91553182 7.83107108     6    446    0    0    0
H 1457.76109236 -22.70291715 4.69692451     6    446    0    0    0
C 1454.16002322 -22.43319949 6.52217206     2    446   450   451   452
H 1453.52892911 -21.73592273 4.79687379     6    449    0    0    0
H 1452.57124942 -23.61090681 7.20699819     6    449    0    0    0
C 1454.64891857 -20.06448485 8.19042836     2    449   453   454   455
H 1455.93007347 -20.50507457 9.86142659     6    452    0    0    0
H 1455.96052678 -18.68890466 7.28558637     6    452    0    0    0
C 1452.15032876 -18.60549490 8.79798374     2    452   456   457   458
H 1451.12766719 -17.77984015 7.28089065     6    455    0    0    0
H 1450.84429559 -19.92963867 9.71617481     6    455    0    0    0
C 1452.35202611 -16.42743997 10.65473393     2    455   459   460   461
H 1450.45615835 -15.80382025 11.12971029     6    458    0    0    0
H 1453.29259336 -17.15468797 12.32509437     6    458    0    0    0
C 1453.68654263 -14.25702330 9.42935580     2    458   462   463   464
H 1455.61303310 -14.97926862 8.97081786     6    461    0    0    0
H 1453.00854926 -13.81589504 7.58100691     6    461    0    0    0
C 1453.93454666 -11.98296404 11.08104135     1    461   465   466   467
H 1454.49475867 -12.40222314 12.92945480     6    464    0    0    0
H 1452.03955456 -11.06687125 11.14370849     6    464    0    0    0
H 1455.19490819 -10.69111330 10.04595738     6    464    0    0    0
H 1490.33182616 -47.25822206 5.01897999     6     469    0    0    0 
C 1492.10786271 -47.94613206 4.23704873     1     468    470    471    472
H 1492.98230766 -46.20663584 3.57168115     6     469    0    0    0
H 1493.20839865 -48.89775683 5.69422881     6     469    0    0    0
C 1491.67240318 -49.59541336 1.78295522     2     469    473    474    475
H 1493.34495079 -50.36585031 0.90264453     6     472    0    0    0
H 1490.85551915 -51.26392381 2.59746379     6     472    0    0    0
C 1489.89564731 -48.38074500 0.00494176     2     472    476   477   478
H 1488.25784667 -47.67613213 0.97648135     6     475    0    0    0
H 1490.79817243 -46.70449540 -0.76561601     6     475    0    0    0
C 1489.05504909 -50.16308934 -2.13533753     2     475   479   480   481
H 1490.71876800 -51.13659965 -2.87657374     6    478    0    0    0
H 1487.47879187 -51.42960379 -1.40174762     6    478    0    0    0
C 1487.84488592 -48.84036336 -4.38459823     2    478   482   483   484
H 1486.93620632 -47.25723618 -3.61030574     6    481    0    0    0
H 1489.13524133 -47.84067513 -5.55833715     6    481    0    0    0
C 1485.97309598 -50.33616869 -5.75695140     2    481   485   486   487
H 1486.87508433 -52.10817177 -6.50594158     6    484    0    0    0
H 1484.34922947 -50.89045115 -4.53064782     6    484    0    0    0
C 1485.16048152 -48.93726823 -8.24803517     2    484   488   489   490
H 1484.47935878 -47.22433147 -7.53268821     6    487    0    0    0
H 1486.71295178 -48.35725979 -9.41201107     6    487    0    0    0
C 1483.31936889 -50.25171198 -9.95056246     2    487   491   492   493
H 1484.32833439 -51.47202745 -11.20771113     6    490    0    0    0
H 1482.15116244 -51.51422054 -8.77888210     6    490    0    0    0
C 1481.61997853 -48.56755116 -11.66373552     2    490   494   495   496
H 1480.50571048 -47.38993845 -10.56329535     6    493    0    0    0
H 1482.99369674 -47.41076606 -12.62108837     6    493    0    0    0
C 1480.12306457 -50.19117665 -13.46414020     2    493   497   498   499
H 1481.48554560 -51.57746589 -14.12205333     6    496    0    0    0
H 1478.78706799 -51.04184716 -12.34908328     6    496    0    0    0
C 1478.99535554 -48.60768862 -15.68793159     2    496   500   501   502
H 1477.36222056 -47.41977180 -15.21802583     6    499    0    0    0
H 1480.24883945 -46.96144336 -16.25952551     6    499    0    0    0
C 1478.07798869 -50.33563422 -17.80108394     1    499   503   504   505
H 1477.14269596 -49.07453075 -19.00881638     6    502    0    0    0
H 1476.83080465 -51.85368744 -17.23194515     6    502    0    0    0
H 1479.58042637 -51.26829586 -18.76957340     6    502    0    0    0
H 1458.59203596 -39.36400916 -17.40166015     6     507    0    0    0 
C 1458.56161299 -37.43207378 -16.75478735     1     506    508    509    510
H 1460.23722671 -36.55985020 -17.23465037     6     507    0    0    0
H 1457.08930324 -36.31251049 -17.67440570     6     507    0    0    0
C 1457.95586903 -37.47458788 -13.98765808     2     507    511    512    513
H 1456.58850629 -38.86376947 -13.59947224     6     510    0    0    0
H 1459.57087286 -38.18857069 -13.26236671     6     510    0    0    0
C 1456.91533829 -34.79423827 -12.89929940     2     510    514   515   516
H 1457.67274959 -33.29932660 -14.03613189     6     513    0    0    0
H 1454.88421757 -34.53917547 -12.96594242     6     513    0    0    0
C 1457.67675887 -34.49487731 -10.09363983     2     513   517   518   519
H 1456.79812209 -36.07810450 -8.78813218     6    516    0    0    0
H 1459.79012964 -34.69551712 -9.89455652     6    516    0    0    0
C 1456.59225343 -31.85069323 -8.98406600     2    516   520   521   522
H 1457.80017177 -30.26681162 -9.41922459     6    519    0    0    0
H 1454.83052840 -31.36555602 -9.82403505     6    519    0    0    0
C 1456.51097427 -31.81397126 -6.03329372     2    519   523   524   525
H 1455.50882045 -33.51055952 -5.41261220     6    522    0    0    0
H 1458.46532462 -31.83032720 -5.42196998     6    522    0    0    0
C 1454.98718289 -29.59852377 -4.88031487     2    522   526   527   528
H 1453.55683247 -29.17350210 -6.27739771     6    525    0    0    0
H 1454.00687267 -30.06213444 -3.26007718     6    525    0    0    0
C 1456.55812012 -27.14130926 -4.54317609     2    525   529   530   531
H 1458.23393608 -27.51089867 -3.46279870     6    528    0    0    0
H 1457.25343428 -26.44657735 -6.36864967     6    528    0    0    0
C 1455.03940727 -24.82551660 -3.33036654     2    528   532   533   534
H 1453.69000779 -24.17335784 -4.80415413     6    531    0    0    0
H 1453.93490482 -25.73832673 -1.77360150     6    531    0    0    0
C 1456.37469664 -22.67595594 -1.91054557     2    531   535   536   537
H 1457.42940408 -23.40961926 -0.34429204     6    534    0    0    0
H 1457.72589886 -21.71810785 -3.09629443     6    534    0    0    0
C 1454.56129689 -20.59901866 -1.22875824     2    534   538   539   540
H 1453.68705102 -19.77681005 -2.84988136     6    537    0    0    0
H 1453.31385185 -21.40535306 0.17952319     6    537    0    0    0
C 1455.73417105 -18.45424160 0.21628855     1    537   541   542   543
H 1454.14077152 -17.23792762 0.54995337     6    540    0    0    0
H 1457.13170888 -17.39177496 -0.94161272     6    540    0    0    0
H 1456.63720049 -19.09995157 2.04874953     6    540    0    0    0
H 1470.87509548 -18.61162797 9.76918852     6     545    0    0    0 
C 1471.34673957 -17.00556492 10.99927100     1     544    546    547    548
H 1470.60498253 -15.43380095 9.90841934     6     545    0    0    0
H 1470.25009306 -17.35206145 12.67740132     6     545    0    0    0
C 1474.11659931 -16.89421708 11.66573823     2     545    549    550    551
H 1474.65178155 -18.57941075 12.78717792     6     548    0    0    0
H 1475.09837441 -17.10677072 9.87705029     6     548    0    0    0
C 1474.99556218 -14.48717769 12.96590887     2     548    552   553   554
H 1474.41006752 -12.89361798 11.61572368     6     551    0    0    0
H 1473.92478309 -14.17957319 14.76466890     6     551    0    0    0
C 1477.92247897 -14.41938903 13.50231667     2     551   555   556   557
H 1478.41998549 -15.77897177 14.85217090     6    554    0    0    0
H 1478.91950754 -14.94183883 11.76837182     6    554    0    0    0
C 1479.01883310 -11.82444692 14.33909349     2    554   558   559   560
H 1478.26455157 -10.40201320 13.04060605     6    557    0    0    0
H 1478.08110259 -11.72307752 16.12833745     6    557    0    0    0
C 1481.90991078 -11.70121009 14.92367223     2    557   561   562   563
H 1482.20878211 -9.87093890 15.98760937     6    560    0    0    0
H 1482.35960762 -13.46043632 15.89092664     6    560    0    0    0
C 1483.60463305 -11.90902330 12.59227815     2    560   564   565   566
H 1483.43720274 -13.85092804 11.64354197     6    563    0    0    0
H 1482.99943436 -10.43911631 11.31795940     6    563    0    0    0
C 1486.42483114 -11.69600004 13.24734650     2    563   567   568   569
H 1486.66045851 -10.88469681 15.15589650     6    566    0    0    0
H 1487.09818909 -13.59872544 13.36590591     6    566    0    0    0
C 1488.09805629 -10.20673702 11.30850610     2    566   570   571   572
H 1487.71509282 -10.62695551 9.27281149     6    569    0    0    0
H 1487.76950293 -8.15364829 11.47800839     6    569    0    0    0
C 1490.88097660 -10.39713044 12.15702572     2    569   573   574   575
H 1491.12300749 -9.46137001 13.88147281     6    572    0    0    0
H 1491.50264555 -12.31591770 12.62959380     6    572    0    0    0
C 1493.09367801 -9.33553090 10.61721946     2    572   576   577   578
H 1492.88888138 -7.29095644 10.52457256     6    575    0    0    0
H 1494.89302492 -9.76859571 11.56680329     6    575    0    0    0
C 1493.28395201 -10.45231329 7.92055032     1    575   579   580   581
H 1491.55102858 -10.08814429 6.79773647     6    578    0    0    0
H 1493.89859984 -12.33790729 7.71653585     6    578    0    0    0
H 1494.68865792 -9.30798230 6.96190267     6    578    0    0    0
H 1502.14204058 -38.86065482 -5.58990180     6     583    0    0    0 
C 1503.08859026 -37.22607882 -4.80996302     1     582    584    585    586
H 1504.86305781 -37.89458281 -4.21710083     6     583    0    0    0
H 1503.27781401 -35.85198568 -6.33060076     6     583    0    0    0
C 1501.83272540 -36.22537115 -2.50909487     2     583    587    588    589
H 1499.71551464 -36.43147802 -2.43038226     6     586    0    0    0
H 1502.48963786 -37.52540336 -1.00487929     6     586    0    0    0
C 1502.89717055 -33.65194254 -1.73823633     2     586    590   591   592
H 1504.83506765 -34.05109948 -1.37407990     6     589    0    0    0
H 1502.77102928 -32.42126844 -3.35515136     6     589    0    0    0
C 1501.59191519 -32.55381006 0.49686301     2     589   593   594   595
H 1499.59676898 -32.45588382 0.16165245     6    592    0    0    0
H 1501.87671340 -33.94776948 2.02226671     6    592    0    0    0
C 1502.76300051 -30.06892651 1.63765722     2    592   596   597   598
H 1504.78620816 -30.44332554 1.94527473     6    595    0    0    0
H 1502.43552552 -28.56607541 0.27371301     6    595    0    0    0
C 1501.43936615 -29.51876950 4.07489775     2    595   599   600   601
H 1499.35689680 -29.43373897 3.62680876     6    598    0    0    0
H 1501.41026432 -31.08951596 5.30064634     6    598    0    0    0
C 1502.50982669 -27.37642934 5.86956641     2    598   602   603   604
H 1504.41486035 -27.73425473 6.31470838     6    601    0    0    0
H 1502.56958465 -25.72770116 4.61744877     6    601    0    0    0
C 1501.11749589 -26.93093085 8.49329686     2    601   605   606   607
H 1499.18805971 -26.90330936 7.86575358     6    604    0    0    0
H 1501.35671622 -28.56761067 9.68211601     6    604    0    0    0
C 1502.15748712 -24.42345667 9.77996318     2    604   608   609   610
H 1504.14265014 -24.91782831 10.03130991     6    607    0    0    0
H 1502.18029261 -22.94724855 8.53885729     6    607    0    0    0
C 1500.99535524 -23.74806559 12.19411350     2    607   611   612   613
H 1499.29975921 -22.65367953 11.72468377     6    610    0    0    0
H 1500.48908036 -25.67278869 12.92063240     6    610    0    0    0
C 1502.56313550 -22.20972801 14.11066109     2    610   614   615   616
H 1504.35455086 -23.23271113 14.27956810     6    613    0    0    0
H 1503.04118850 -20.38471614 13.36135926     6    613    0    0    0
C 1501.29218939 -22.12774701 16.77643432     1    613   617   618   619
H 1501.92119651 -20.36132539 17.55664072     6    616    0    0    0
H 1501.91367638 -23.64942279 17.98885385     6    616    0    0    0
H 1499.31689684 -21.87005523 16.54427731     6    616    0    0    0
H 1474.60651474 -4.32357870 -12.69116363     6     621    0    0    0 
C 1474.84347916 -3.13447164 -11.06474457     1     620    622    623    624
H 1473.83233307 -1.30133344 -11.08540245     6     621    0    0    0
H 1474.27743232 -3.99261316 -9.37140111     6     621    0    0    0
C 1477.62415129 -2.25849906 -10.78098928     2     621    625    626    627
H 1477.89712959 -1.27634994 -9.07303642     6     624    0    0    0
H 1478.93720481 -3.88390617 -10.78642097     6     624    0    0    0
C 1478.50882778 -0.70688915 -12.94748545     2     624    628   629   630
H 1478.47285162 -1.77989915 -14.65826238     6     627    0    0    0
H 1477.44679323 1.06416625 -13.47061956     6     627    0    0    0
C 1481.17074440 0.36226118 -12.42118708     2     627   631   632   633
H 1481.06981593 2.33489599 -12.15529268     6    630    0    0    0
H 1482.03067995 -0.37770297 -10.64066235     6    630    0    0    0
C 1482.90377669 0.04027069 -14.87858769     2    630   634   635   636
H 1481.76910414 0.25136581 -16.60064225     6    633    0    0    0
H 1484.36591496 1.50047979 -15.08938543     6    633    0    0    0
C 1484.16071498 -2.55131781 -15.00830548     2    633   637   638   639
H 1484.78697517 -3.05214030 -13.12085127     6    636    0    0    0
H 1482.60598999 -3.91387329 -15.49839384     6    636    0    0    0
C 1486.38642830 -2.67483217 -16.94301061     2    636   640   641   642
H 1485.56052593 -2.57258358 -18.85830001     6    639    0    0    0
H 1487.60073812 -1.02862664 -16.75016731     6    639    0    0    0
C 1487.74710502 -5.18266173 -16.87893020     2    639   643   644   645
H 1488.24050064 -5.56276433 -14.89952322     6    642    0    0    0
H 1486.64659130 -6.79681488 -17.47365392     6    642    0    0    0
C 1490.07703281 -5.27361587 -18.52018317     2    642   646   647   648
H 1490.89423359 -7.09905328 -18.71632745     6    645    0    0    0
H 1489.79521080 -4.70439998 -20.33960666     6    645    0    0    0
C 1492.18812793 -3.51940573 -17.46959380     2    645   649   650   651
H 1491.32187351 -1.57502170 -17.43249147     6    648    0    0    0
H 1492.29415440 -4.13543534 -15.66052290     6    648    0    0    0
C 1494.81606179 -3.39667375 -18.73581766     2    648   652   653   654
H 1495.37396239 -5.34669756 -19.19613741     6    651    0    0    0
H 1494.71516612 -2.35420345 -20.38351574     6    651    0    0    0
C 1496.93301272 -2.23711057 -17.16890650     1    651   655   656   657
H 1496.47912779 -0.61485505 -16.04382165     6    654    0    0    0
H 1498.72663034 -1.81274633 -18.22101826     6    654    0    0    0
H 1497.44931036 -3.57996555 -15.69976841     6    654    0    0    0
H 1495.24984989 -28.47918407 -8.05857791     6     659    0    0    0 
C 1495.59834897 -27.18221654 -6.64785320     1     658    660    661    662
H 1494.71965600 -25.36765848 -7.19358126     6     659    0    0    0
H 1494.64687245 -27.91362819 -5.04191212     6     659    0    0    0
C 1498.40665470 -26.72548795 -5.89237364     2     659    663    664    665
H 1499.24328439 -28.39800906 -5.04130304     6     662    0    0    0
H 1499.35994003 -26.42943434 -7.73591727     6     662    0    0    0
C 1498.81959018 -24.43702048 -4.21473278     2     662    666   667   668
H 1500.75595064 -23.98756456 -3.92976418     6     665    0    0    0
H 1498.14140597 -22.79599532 -5.30734809     6     665    0    0    0
C 1497.51295497 -24.59397388 -1.67129102     2     665   669   670   671
H 1495.43685446 -24.54373276 -1.78608820     6    668    0    0    0
H 1497.82362331 -26.57800759 -1.04591768     6    668    0    0    0
C 1498.38571995 -22.68461612 0.26628068     2    668   672   673   674
H 1500.48815585 -22.79700114 0.36124215     6    671    0    0    0
H 1497.72259798 -20.91470918 -0.51904066     6    671    0    0    0
C 1497.34756436 -23.28283852 2.91029880     2    671   675   676   677
H 1495.27042370 -23.27926673 3.07564859     6    674    0    0    0
H 1498.05137195 -25.05971692 3.45427243     6    674    0    0    0
C 1498.27537601 -21.52207803 5.04328888     2    674   678   679   680
H 1497.89602832 -22.32636560 6.92419242     6    677    0    0    0
H 1500.26534685 -21.15610870 4.73917735     6    677    0    0    0
C 1496.81085164 -19.00641810 5.12653898     2    677   681   682   683
H 1496.58804405 -18.28284176 3.19903504     6    680    0    0    0
H 1494.88562013 -19.04507598 5.90677738     6    680    0    0    0
C 1498.13677045 -16.85622738 6.66303236     2    680   684   685   686
H 1500.09814320 -16.69677694 6.31066824     6    683    0    0    0
H 1497.24576479 -15.15711989 6.25110213     6    683    0    0    0
C 1497.95432870 -17.25064736 9.56086470     2    683   687   688   689
H 1496.15775051 -17.89076514 10.11930155     6    686    0    0    0
H 1499.16544796 -18.70439118 10.06697178     6    686    0    0    0
C 1498.27171333 -14.68721332 10.98475303     2    686   690   691   692
H 1500.06292998 -13.67739581 10.42755591     6    689    0    0    0
H 1496.81596645 -13.28832183 10.20411746     6    689    0    0    0
C 1497.99190176 -15.12801470 13.86290725     1    689   693   694   695
H 1498.54711692 -13.54703696 14.87368199     6    692    0    0    0
H 1499.40327484 -16.56065666 14.48434864     6    692    0    0    0
H 1496.01050701 -15.67253704 14.64367749     6    692    0    0    0
H 1478.84657314 7.15943993 26.05101868     6     697    0    0    0 
C 1479.01731925 7.07274329 24.05132164     1     696    698    699    700
H 1477.59009090 8.30573149 23.15559707     6     697    0    0    0
H 1480.92325123 7.58628017 23.65730268     6     697    0    0    0
C 1478.75185638 4.27549481 23.15671095     2     697    701    702    703
H 1479.53670319 3.88070009 21.28893865     6     700    0    0    0
H 1479.98982509 2.96739966 24.18962286     6     700    0    0    0
C 1476.07539279 3.29631651 23.22375758     2     700    704   705   706
H 1475.13116610 3.91050938 25.01436846     6     703    0    0    0
H 1474.78469704 4.08128221 21.85918676     6     703    0    0    0
C 1476.06857039 0.26422282 23.23153331     2     703   707   708   709
H 1477.21681350 -0.43431830 21.74675095     6    706    0    0    0
H 1476.79427864 -0.50018936 24.99752369     6    706    0    0    0
C 1473.44611715 -0.67396348 22.60537216     2    706   710   711   712
H 1472.01465343 0.06044719 23.97203724     6    709    0    0    0
H 1472.64050948 0.20069912 20.72499772     6    709    0    0    0
C 1473.58278003 -3.60645835 22.89184665     2    709   713   714   715
H 1474.96239194 -4.29754531 21.44952151     6    712    0    0    0
H 1474.36051581 -4.22233042 24.67064920     6    712    0    0    0
C 1470.84395197 -4.87928274 22.80618383     2    712   716   717   718
H 1469.79369998 -4.24165009 24.50939486     6    715    0    0    0
H 1470.01029085 -4.50659912 20.94382640     6    715    0    0    0
C 1470.84063657 -7.76105522 22.96585617     2    715   719   720   721
H 1472.35821397 -8.66810920 21.89679003     6    718    0    0    0
H 1471.32094786 -8.25374401 24.96118616     6    718    0    0    0
C 1468.26286584 -9.09551979 22.53580156     2    718   722   723   724
H 1466.77845611 -7.95059656 23.60593923     6    721    0    0    0
H 1467.54861228 -8.80091466 20.63719973     6    721    0    0    0
C 1468.43401297 -11.94002884 23.19960659     2    721   725   726   727
H 1470.13655075 -12.75802160 22.36178243     6    724    0    0    0
H 1468.81306906 -12.07310154 25.23716569     6    724    0    0    0
C 1466.10640432 -13.53326473 22.53720618     2    724   728   729   730
H 1466.02944486 -13.87494363 20.51977879     6    727    0    0    0
H 1466.65090505 -15.49566443 23.00748705     6    727    0    0    0
C 1463.67835922 -12.58146336 23.81796331     1    727   731   732   733
H 1462.02180324 -13.48549650 23.13428102     6    730    0    0    0
H 1463.21899074 -10.62135984 23.16482715     6    730    0    0    0
H 1463.72701753 -12.73316414 25.83213630     6    730    0    0    0
H 1476.65216074 -38.80684814 13.45764311     6     735    0    0    0 
C 1478.45171039 -38.21596621 14.28343293     1     734    736    737    738
H 1477.83976642 -36.83013536 15.69085154     6     735    0    0    0
H 1479.29905316 -39.96076091 15.00483465     6     735    0    0    0
C 1480.32762572 -37.05803212 12.49208225     2     735    739    740    741
H 1479.79544246 -35.14707681 12.02625936     6     738    0    0    0
H 1482.11306978 -36.74244197 13.28543419     6     738    0    0    0
C 1480.68135057 -38.64188438 10.05126177     2     738    742   743   744
H 1478.84557037 -38.89924346 9.39934442     6     741    0    0    0
H 1481.78779151 -37.46866876 8.88786895     6     741    0    0    0
C 1482.15619971 -41.17722081 9.81067096     2     741   745   746   747
H 1483.93068278 -40.84794330 10.67154621     6    744    0    0    0
H 1481.31450170 -42.71359555 10.89834689     6    744    0    0    0
C 1482.75283891 -41.93157962 6.98585454     2    744   748   749   750
H 1483.62592807 -40.51251858 5.73810501     6    747    0    0    0
H 1484.23254528 -43.40555368 7.06705392     6    747    0    0    0
C 1480.54747528 -43.29543983 5.80070473     2    747   751   752   753
H 1480.25120960 -45.16092790 6.55355961     6    750    0    0    0
H 1478.82324425 -42.45472455 6.33659787     6    750    0    0    0
C 1480.59685450 -43.46914863 2.93457705     2    750   754   755   756
H 1480.67262519 -41.53297041 2.09282035     6    753    0    0    0
H 1482.45687955 -44.21403595 2.23315164     6    753    0    0    0
C 1478.49952762 -45.18280627 1.91742723     2    753   757   758   759
H 1478.14548708 -46.94475300 2.94196016     6    756    0    0    0
H 1476.83549570 -44.16571171 2.17522822     6    756    0    0    0
C 1478.92098296 -45.90038493 -0.95935781     2    756   760   761   762
H 1479.65397029 -44.42220593 -2.08168096     6    759    0    0    0
H 1480.28371486 -47.33089951 -0.80195046     6    759    0    0    0
C 1476.60543747 -46.98724509 -2.19715810     2    759   763   764   765
H 1476.00882952 -48.76735274 -1.38042356     6    762    0    0    0
H 1474.81693943 -45.93005663 -2.07410079     6    762    0    0    0
C 1477.08244218 -47.67492080 -5.03089197     2    762   766   767   768
H 1477.92352188 -46.08155378 -5.95559695     6    765    0    0    0
H 1478.66526361 -48.99778653 -5.20462812     6    765    0    0    0
C 1474.64893157 -48.74911506 -6.30448079     1    765   769   770   771
H 1473.92547863 -50.38218046 -5.30530538     6    768    0    0    0
H 1474.89068543 -49.36826825 -8.22135221     6    768    0    0    0
H 1473.20960928 -47.24951248 -6.39672839     6    768    0    0    0
H 1478.51729228 -11.42452760 -21.96991205     6     773    0    0    0 
C 1479.02422380 -9.48247439 -22.03788035     1     772    774    775    776
H 1480.37195560 -9.45016600 -20.42496838     6     773    0    0    0
H 1480.34285074 -9.15966811 -23.49307787     6     773    0    0    0
C 1476.64070440 -7.94393725 -22.11089276     2     773    777    778    779
H 1477.26057154 -5.97190102 -22.40146434     6     776    0    0    0
H 1475.46677201 -8.31776846 -23.79547622     6     776    0    0    0
C 1475.00955739 -8.15723381 -19.62193522     2     776    780   781   782
H 1474.59862146 -10.14149146 -19.03519902     6     779    0    0    0
H 1475.85909853 -7.06341634 -18.13395189     6     779    0    0    0
C 1472.39304591 -7.04257862 -20.09727924     2     779   783   784   785
H 1472.33014141 -5.14111112 -20.75176206     6    782    0    0    0
H 1471.40505531 -8.09578003 -21.48758438     6    782    0    0    0
C 1470.92423098 -7.04973323 -17.63522451     2    782   786   787   788
H 1471.20741475 -9.01045825 -17.24752486     6    785    0    0    0
H 1471.92124706 -6.06324138 -16.21568207     6    785    0    0    0
C 1468.22085075 -6.33002254 -17.74008017     2    785   789   790   791
H 1468.07592851 -4.26750509 -18.15665793     6    788    0    0    0
H 1467.15294445 -7.44908546 -19.15597520     6    788    0    0    0
C 1467.10158172 -6.76117933 -15.17172219     2    788   792   793   794
H 1467.45201087 -8.68408151 -14.66415846     6    791    0    0    0
H 1467.98441468 -5.79800181 -13.56975027     6    791    0    0    0
C 1464.38167977 -5.93199521 -15.03985610     2    791   795   796   797
H 1464.30087888 -3.96279571 -15.44721319     6    794    0    0    0
H 1463.14991061 -6.83900798 -16.44305537     6    794    0    0    0
C 1463.22803401 -6.25055517 -12.41294127     2    794   798   799   800
H 1463.49561867 -8.08243736 -11.56498188     6    797    0    0    0
H 1464.26712694 -5.06489757 -11.18302986     6    797    0    0    0
C 1460.36029802 -5.48250954 -12.30617133     2    797   801   802   803
H 1460.12844673 -3.50718841 -12.41014323     6    800    0    0    0
H 1459.30860472 -6.29688556 -13.88777455     6    800    0    0    0
C 1458.99709201 -6.49994735 -9.90312251     2    800   804   805   806
H 1459.33283192 -8.52708161 -9.85051888     6    803    0    0    0
H 1460.16577213 -5.83756769 -8.33856982     6    803    0    0    0
C 1456.16060132 -5.72411943 -9.72043348     1    803   807   808   809
H 1455.29763612 -6.30685687 -11.50882220     6    806    0    0    0
H 1455.81074719 -3.82787315 -9.21449281     6    806    0    0    0
H 1455.25585630 -6.83794569 -8.33426637     6    806    0    0    0
H 1493.97945607 -36.22577858 -3.58696937     6     811    0    0    0 
C 1494.17262351 -34.21914411 -3.34156374     1     810    812    813    814
H 1494.62796307 -33.29732066 -1.41608091     6     811    0    0    0
H 1495.48591128 -33.49785649 -4.68427654     6     811    0    0    0
C 1491.45524108 -33.25917229 -4.16752193     2     811    815    816    817
H 1490.11776897 -33.92196916 -2.69519843     6     814    0    0    0
H 1491.39814921 -31.22777935 -4.17046381     6     814    0    0    0
C 1490.64624054 -33.92006691 -6.80395234     2     814    818   819   820
H 1491.78171167 -32.82637913 -8.27924593     6     817    0    0    0
H 1491.27251735 -35.88077317 -7.14114455     6     817    0    0    0
C 1487.69818751 -33.72786631 -7.14345454     2     817   821   822   823
H 1486.95122250 -35.35063703 -6.10736574     6    820    0    0    0
H 1486.84207394 -32.10235193 -6.29136075     6    820    0    0    0
C 1486.77289008 -33.39066541 -9.92484644     2    820   824   825   826
H 1487.75538609 -31.80938364 -10.61320665     6    823    0    0    0
H 1487.19078582 -35.08099494 -11.10552144     6    823    0    0    0
C 1483.94920509 -32.99378859 -10.30888279     2    823   827   828   829
H 1483.02074242 -34.57701792 -9.26642447     6    826    0    0    0
H 1483.46445841 -31.25334114 -9.37363143     6    826    0    0    0
C 1483.32772330 -32.81623931 -13.28325757     2    826   830   831   832
H 1482.09158864 -31.19871656 -13.61598651     6    829    0    0    0
H 1484.97073527 -32.45394473 -14.44750402     6    829    0    0    0
C 1481.94934728 -35.15836472 -14.23770848     2    829   833   834   835
H 1482.86985889 -36.78755057 -13.40801308     6    832    0    0    0
H 1480.04981642 -35.09678102 -13.45639170     6    832    0    0    0
C 1481.75915714 -35.48265880 -17.06477243     2    832   836   837   838
H 1483.72374327 -35.41957217 -17.89612680     6    835    0    0    0
H 1481.01195517 -37.25377700 -17.50691347     6    835    0    0    0
C 1480.10764984 -33.63824291 -18.71135492     2    835   839   840   841
H 1478.21924607 -34.05720139 -18.17858927     6    838    0    0    0
H 1480.63858035 -31.58016126 -18.34081834     6    838    0    0    0
C 1479.99730468 -34.31223322 -21.54606807     2    838   842   843   844
H 1481.88770060 -34.70260524 -22.23993329     6    841    0    0    0
H 1478.95399357 -36.15330451 -21.37611270     6    841    0    0    0
C 1478.27812360 -32.52763740 -22.84222613     1    841   845   846   847
H 1476.53759284 -32.18935622 -21.93277125     6    844    0    0    0
H 1477.54792802 -33.51540187 -24.41421319     6    844    0    0    0
H 1479.17517529 -30.99090806 -23.82920171     6    844    0    0    0
H 1507.71547446 -12.69049164 17.79989746     6     849    0    0    0 
C 1508.14161290 -11.70394798 16.03543038     1     848    850    851    852
H 1507.78848709 -9.86018366 16.54703721     6     849    0    0    0
H 1510.21290146 -11.82805514 15.73621753     6     849    0    0    0
C 1506.59975110 -12.46891160 13.82041768     2     849    853    854    855
H 1504.69478856 -12.75558060 14.58416917     6     852    0    0    0
H 1506.59826649 -10.93573245 12.44693202     6     852    0    0    0
C 1507.36925189 -14.87866943 12.69938066     2     852    856   857   858
H 1509.36557536 -14.75366342 12.22271261     6     855    0    0    0
H 1507.22484102 -16.51208176 14.02602464     6     855    0    0    0
C 1505.75460145 -15.72369566 10.46518854     2     855   859   860   861
H 1503.80225196 -16.21397668 11.11083672     6    858    0    0    0
H 1505.34462117 -13.95299356 9.21350657     6    858    0    0    0
C 1506.83996233 -18.03630103 8.83942953     2    858   862   863   864
H 1508.78852878 -17.58126859 8.55547282     6    861    0    0    0
H 1506.40819922 -19.78730654 9.98302038     6    861    0    0    0
C 1505.42605825 -18.35224978 6.40758102     2    861   865   866   867
H 1503.79020785 -19.57840357 6.85390338     6    864    0    0    0
H 1505.10243045 -16.40404381 5.62454067     6    864    0    0    0
C 1506.77853519 -20.00062225 4.44283220     2    864   868   869   870
H 1508.71303528 -19.30040065 4.45473188     6    867    0    0    0
H 1506.83072717 -21.98811858 5.17760285     6    867    0    0    0
C 1505.82784145 -19.90870519 1.80386543     2    867   871   872   873
H 1503.92720072 -20.41784501 1.91957173     6    870    0    0    0
H 1505.81944266 -18.02481538 1.06993133     6    870    0    0    0
C 1506.88473724 -21.52513977 -0.33718121     2    870   874   875   876
H 1505.65903786 -21.31269296 -1.99981322     6    873    0    0    0
H 1508.65972043 -20.69012956 -0.93354275     6    873    0    0    0
C 1506.98296305 -24.43317462 0.24247024     2    873   877   878   879
H 1505.48578644 -24.88654530 1.61869077     6    876    0    0    0
H 1506.46661485 -25.53466788 -1.43690599     6    876    0    0    0
C 1509.57232686 -25.34966802 1.36498194     2    876   880   881   882
H 1511.03674647 -24.40507764 0.51035575     6    879    0    0    0
H 1509.71572312 -24.87957776 3.36591346     6    879    0    0    0
C 1509.92965363 -28.17653858 1.53189627     1    879   883   884   885
H 1509.75708338 -28.92308979 -0.30974649     6    882    0    0    0
H 1508.53035553 -29.11747681 2.80483181     6    882    0    0    0
H 1511.80584958 -28.40957674 2.03899513     6    882    0    0    0
H 1476.32182518 -26.71877865 -10.54670824     6     887    0    0    0 
C 1476.97945552 -24.85981220 -10.26912251     1     886    888    889    890
H 1478.48653514 -24.46802316 -11.63182228     6     887    0    0    0
H 1475.30026601 -23.80436711 -10.81186201     6     887    0    0    0
C 1477.70888438 -24.51589992 -7.50565003     2     887    891    892    893
H 1477.96399396 -22.39142244 -7.15227767     6     890    0    0    0
H 1476.22972664 -25.02349912 -6.23980254     6     890    0    0    0
C 1480.23353080 -25.65228127 -6.78681140     2     890    894   895   896
H 1480.15565553 -27.77362518 -6.91081041     6     893    0    0    0
H 1481.71079824 -25.08845451 -7.99493139     6     893    0    0    0
C 1481.47768467 -25.01478323 -4.19389216     2     893   897   898   899
H 1482.19591523 -23.11611445 -4.46119474     6    896    0    0    0
H 1479.99212583 -25.14768878 -2.80167446     6    896    0    0    0
C 1483.94997691 -26.63006588 -3.59042858     2    896   900   901   902
H 1483.27555002 -28.56478089 -3.21896522     6    899    0    0    0
H 1485.22092134 -26.67781915 -5.16518450     6    899    0    0    0
C 1485.32590418 -26.13424715 -1.11091758     2    899   903   904   905
H 1485.78717125 -24.13705737 -0.74188423     6    902    0    0    0
H 1483.87756840 -26.56295253 0.28446810     6    902    0    0    0
C 1487.67762818 -27.86613085 -0.64019348     2    902   906   907   908
H 1487.15691073 -29.93776068 -0.71406190     6    905    0    0    0
H 1488.98893428 -27.62537346 -2.11207286     6    905    0    0    0
C 1488.81331656 -27.51951932 2.08310600     2    905   909   910   911
H 1489.43100112 -25.65226724 2.41172490     6    908    0    0    0
H 1487.19311683 -27.59764624 3.43620292     6    908    0    0    0
C 1490.75744352 -29.39286902 2.80177118     2    908   912   913   914
H 1489.94427217 -31.26787828 2.80225240     6    911    0    0    0
H 1492.28106109 -29.37065049 1.25264481     6    911    0    0    0
C 1491.78462455 -28.73216806 5.37163321     2    911   915   916   917
H 1492.96131519 -27.02676207 4.98800719     6    914    0    0    0
H 1490.17516319 -27.95540645 6.46289349     6    914    0    0    0
C 1493.36341399 -30.74315219 6.64480997     2    914   918   919   920
H 1492.39697087 -32.42376374 6.30489258     6    917    0    0    0
H 1495.29371471 -30.62769380 5.81004807     6    917    0    0    0
C 1493.57585904 -30.22981213 9.53038359     1    917   921   922   923
H 1491.90859800 -30.12509093 10.57211098     6    920    0    0    0
H 1494.66463713 -28.34500062 9.71592917     6    920    0    0    0
H 1494.87826355 -31.57792070 10.56991050     6    920    0    0    0
H 1503.08085858 -17.57141217 -4.91753320     6     925    0    0    0 
C 1504.45212226 -17.10559000 -6.50012360     1     924    926    927    928
H 1503.80362466 -15.34576936 -7.15274475     6     925    0    0    0
H 1506.42997173 -17.00521762 -5.78712477     6     925    0    0    0
C 1504.15133277 -19.35084467 -8.32023479     2     925    929    930    931
H 1502.18841831 -19.77424325 -8.61428623     6     928    0    0    0
H 1504.97733087 -18.57795228 -10.13987171     6     928    0    0    0
C 1505.61260987 -21.78857954 -7.72680531     2     928    932   933   934
H 1507.62409999 -21.01643215 -7.46118536     6     931    0    0    0
H 1505.08198751 -22.47370319 -5.91661506     6     931    0    0    0
C 1505.45440764 -23.98765837 -9.68375871     2     931   935   936   937
H 1503.38241911 -24.62480433 -9.76592395     6    934    0    0    0
H 1505.85892505 -23.33431562 -11.57543211     6    934    0    0    0
C 1507.00381116 -26.30794067 -9.10783245     2    934   938   939   940
H 1507.19529291 -27.34552437 -10.84808483     6    937    0    0    0
H 1508.83881066 -25.60363176 -8.63310557     6    937    0    0    0
C 1506.03469215 -28.16403875 -7.11395753     2    937   941   942   943
H 1505.15878381 -26.97163595 -5.58042817     6    940    0    0    0
H 1504.44812095 -29.31943712 -7.76467925     6    940    0    0    0
C 1508.08966946 -29.43245584 -5.81096360     2    940   944   945   946
H 1509.78950842 -28.26319837 -5.58435714     6    943    0    0    0
H 1507.51291310 -29.77759013 -3.82797136     6    943    0    0    0
C 1508.81696932 -31.84825117 -7.00548897     2    943   947   948   949
H 1507.21437646 -33.16163838 -7.09158793     6    946    0    0    0
H 1509.30451309 -31.29019400 -8.95816685     6    946    0    0    0
C 1511.12675830 -33.19559752 -5.94338626     2    946   950   951   952
H 1512.54231694 -31.72999967 -5.84961987     6    949    0    0    0
H 1510.47427295 -33.58593322 -4.04201140     6    949    0    0    0
C 1511.93565584 -35.49998095 -7.71461384     2    949   953   954   955
H 1510.44267554 -36.89857508 -7.91157592     6    952    0    0    0
H 1512.45127568 -34.80955527 -9.51678487     6    952    0    0    0
C 1514.28119717 -36.87466687 -6.76346449     2    952   956   957   958
H 1514.63334432 -38.56589068 -7.70416357     6    955    0    0    0
H 1515.95794322 -35.65462043 -7.04496323     6    955    0    0    0
C 1514.20071871 -37.46922271 -3.94823244     1    955   959   960   961
H 1515.65715617 -38.75237982 -3.33160699     6    958    0    0    0
H 1512.39884374 -38.16464667 -3.34350472     6    958    0    0    0
H 1514.26364936 -35.78534764 -2.76428886     6    958    0    0    0
H 1466.16683045 -34.15573913 4.15743737     6     963    0    0    0 
C 1467.53811770 -33.90391077 2.53803387     1     962    964    965    966
H 1469.33574117 -33.92975776 3.51638551     6     963    0    0    0
H 1467.47391794 -35.43243420 1.06665331     6     963    0    0    0
C 1467.08620729 -31.38081690 1.32781274     2     963    967    968    969
H 1468.43969399 -31.23721550 -0.22175672     6     966    0    0    0
H 1465.21373999 -31.62224116 0.39203531     6     966    0    0    0
C 1466.85733437 -29.17841475 3.24767364     2     966    970   971   972
H 1465.47132717 -29.86197406 4.62574178     6     969    0    0    0
H 1468.68947515 -28.86858972 4.24745013     6     969    0    0    0
C 1465.98301306 -26.74904516 2.10349938     2     969   973   974   975
H 1466.88367114 -26.26194235 0.36618985     6    972    0    0    0
H 1464.02872530 -26.97981859 1.55163143     6    972    0    0    0
C 1466.34602116 -24.28215875 3.73646712     2    972   976   977   978
H 1466.27811688 -24.86134943 5.69550894     6    975    0    0    0
H 1468.26270291 -23.55149085 3.59763922     6    975    0    0    0
C 1464.47673268 -22.13289582 3.08277310     2    975   979   980   981
H 1465.26712589 -20.88661569 1.74185657     6    978    0    0    0
H 1462.60980584 -22.77270977 2.61384587     6    978    0    0    0
C 1464.08363986 -20.55580148 5.38482630     2    978   982   983   984
H 1463.41560246 -21.71457035 6.88591069     6    981    0    0    0
H 1465.95075951 -19.89474570 6.01187818     6    981    0    0    0
C 1462.26519073 -18.32457696 5.02790618     2    981   985   986   987
H 1463.12809737 -16.99046402 3.81104850     6    984    0    0    0
H 1460.47164877 -18.81485600 4.19319890     6    984    0    0    0
C 1461.67397641 -16.88965007 7.43148532     2    984   988   989   990
H 1460.31957555 -15.36860620 6.90928434     6    987    0    0    0
H 1460.47981751 -18.04388916 8.77939302     6    987    0    0    0
C 1463.78079319 -15.48147364 8.64809310     2    987   991   992   993
H 1465.23370165 -17.01969442 8.79554761     6    990    0    0    0
H 1464.67619692 -14.07718850 7.32794266     6    990    0    0    0
C 1463.14751512 -14.51990212 11.40259712     2    990   994   995   996
H 1461.77201704 -12.90124648 11.42999234     6    993    0    0    0
H 1462.18838881 -15.84984124 12.57774800     6    993    0    0    0
C 1465.52656560 -13.81312015 12.87112438     1    993   997   998   999
H 1466.33349966 -15.52944675 13.78857625     6    996    0    0    0
H 1465.37797501 -12.35864747 14.30223689     6    996    0    0    0
H 1467.18382132 -12.99889940 11.99470576     6    996    0    0    0
H 1464.27015233 -49.44536766 -12.74302102     6     1001    0    0    0 
C 1465.01904761 -49.93226211 -10.76373976     1     1000    1002    1003    1004
H 1464.39966560 -51.77805353 -10.23947765     6     1001    0    0    0
H 1467.07400242 -49.97045076 -10.92264726     6     1001    0    0    0
C 1464.18651415 -47.57352027 -9.34203573     2     1001    1005    1006    1007
H 1465.22956220 -45.91446184 -9.91860777     6     1004    0    0    0
H 1462.25086443 -47.04631094 -9.96900844     6     1004    0    0    0
C 1464.04731801 -47.69530696 -6.42867075     2     1004    1008   1009   1010
H 1462.76329447 -49.19713346 -5.73302586     6     1007    0    0    0
H 1465.81825391 -48.35961027 -5.76985281     6     1007    0    0    0
C 1463.24907209 -45.01512508 -5.35949666     2     1007   1011   1012   1013
H 1464.47167700 -43.64098107 -6.09986776     6    1010    0    0    0
H 1461.37782483 -44.38382693 -5.96590808     6    1010    0    0    0
C 1463.46060585 -44.97430943 -2.44106227     2    1010   1014   1015   1016
H 1462.07160229 -46.23948992 -1.59350183     6    1013    0    0    0
H 1465.41958863 -45.51131516 -1.91492495     6    1013    0    0    0
C 1463.11057691 -42.34050819 -1.28078182     2    1013   1017   1018   1019
H 1464.31441838 -40.96962598 -2.10592982     6    1016    0    0    0
H 1461.20950989 -41.65247725 -1.92715154     6    1016    0    0    0
C 1463.14660815 -42.25242481 1.62683444     2    1016   1020   1021   1022
H 1462.15602229 -43.80946938 2.52113442     6    1019    0    0    0
H 1465.10642136 -42.32054257 2.20394287     6    1019    0    0    0
C 1462.17199013 -39.75384907 2.44650027     2    1019   1023   1024   1025
H 1463.51755476 -38.43088350 1.67172484     6    1022    0    0    0
H 1460.33751461 -39.46931316 1.65917488     6    1022    0    0    0
C 1461.82304404 -39.55533079 5.32731362     2    1022   1026   1027   1028
H 1460.25189405 -40.81667150 5.86466521     6    1025    0    0    0
H 1463.42265549 -40.35995520 6.25253024     6    1025    0    0    0
C 1461.08378829 -36.97655176 6.34647252     2    1025   1029   1030   1031
H 1462.48503200 -35.37750168 6.27486108     6    1028    0    0    0
H 1459.48703245 -36.07374879 5.40582969     6    1028    0    0    0
C 1460.30718322 -36.88332299 9.21249386     2    1028   1032   1033   1034
H 1458.29449786 -36.43481257 9.19500511     6    1031    0    0    0
H 1460.69847726 -38.62156681 10.27107481     6    1031    0    0    0
C 1462.02639867 -35.14504021 10.76145131     1    1031   1035   1036   1037
H 1461.08508229 -34.94797157 12.55226770     6    1034    0    0    0
H 1462.22121949 -33.38104251 9.93937099     6    1034    0    0    0
H 1463.93824588 -35.90986918 10.90393119     6    1034    0    0    0
H 1469.00951905 -15.91592867 -18.45945417     6     1039    0    0    0 
C 1470.57696253 -15.06682794 -19.43734184     1     1038    1040    1041    1042
H 1469.97255723 -13.95920697 -21.15563752     6     1039    0    0    0
H 1471.41767150 -14.01798209 -17.79001181     6     1039    0    0    0
C 1472.63008116 -17.03641213 -20.11143264     2     1039    1043    1044    1045
H 1473.35366909 -17.63486043 -18.17163702     6     1042    0    0    0
H 1471.73421000 -18.67225563 -21.13980478     6     1042    0    0    0
C 1474.59719162 -15.94391562 -21.84576029     2     1042    1046   1047   1048
H 1473.80590455 -15.38415944 -23.66996662     6     1045    0    0    0
H 1475.18800075 -14.08790398 -21.05666604     6     1045    0    0    0
C 1476.89519140 -17.62255836 -22.15105381     2     1045   1049   1050   1051
H 1477.55311870 -17.95712568 -20.25910048     6    1048    0    0    0
H 1476.13798030 -19.37980355 -22.92274584     6    1048    0    0    0
C 1479.11855116 -16.34790421 -23.60752758     2    1048   1052   1053   1054
H 1478.26839770 -14.74521089 -24.73079284     6    1051    0    0    0
H 1480.43797983 -15.40022065 -22.44009228     6    1051    0    0    0
C 1480.04429468 -18.33665801 -25.56252962     2    1051   1055   1056   1057
H 1480.64397781 -20.00333891 -24.49226592     6    1054    0    0    0
H 1478.37482867 -18.84128174 -26.76188291     6    1054    0    0    0
C 1482.13918192 -17.24882304 -27.45233664     2    1054   1058   1059   1060
H 1481.38981342 -15.51753049 -28.35837232     6    1057    0    0    0
[...]
 1619      H    1462.7844793700     3.6456500900    -5.7997819100
 1620      H    1461.1883424500     6.6115990500    -6.4602402000
 1621      C    1459.0501499700     3.8068850600    -4.2272171100
 1622      H    1457.1745706500     4.6328039400    -4.7101047500
 1623      H    1459.0162621100     1.8423925800    -4.1100046700
 1624      C    1460.0126994400     5.0008587800    -1.6606723700
 1625      H    1461.6206530300     3.7814101900    -0.8048143000
 1626      H    1460.8073588800     6.9220060700    -2.0343828100
 1627      C    1458.0063279600     5.1727074400     0.3789009200
 1628      H    1457.0087361300     7.0036765400     0.1413053500
 1629      H    1456.6427641200     3.6572986200     0.1270460400
 1630      C    1459.2601210000     5.1591198200     3.1047425400
 1631      H    1460.8360394200     3.8182066200     3.4739450400
 1632      H    1460.2226560800     6.8991811100     3.3944737400
 1633      C    1457.3245534800     4.7736441200     5.2328346700
 1634      H    1455.7192312100     6.0965421800     4.9456845100
 1635      H    1456.5401354100     2.9256344300     4.8342803300
 1636      C    1458.4549504500     4.7586967900     7.9341991700
 1637      H    1460.2269544200     3.6583199700     8.0932458000
 1638      H    1459.1487531600     6.6467893600     8.1511084100
 1639      C    1456.4220435100     4.1587451300     9.7782598400
 1640      H    1454.7165911600     5.2424065200     9.2706400300
 1641      H    1455.8175738300     2.1153201000     9.7044788500
 1642      C    1457.1486806700     4.9371666800    12.5985018000
 1643      H    1455.3753924400     4.7033550000    13.7420505800
 1644      H    1457.7886701300     6.8727521200    12.6205328000
 1645      H    1458.5193577200     3.7687148300    13.4842406200
 1646      H    1452.3539675800   -20.6716084200   -22.9035806600
 1647      C    1453.9486205500   -21.5832301600   -21.8528426500
 1648      H    1453.9419627100   -23.5360355900   -22.4288144100
 1649      H    1455.8247572500   -20.5983321600   -22.5124046800
 1650      C    1453.6480206400   -21.2644900800   -18.9676124900
 1651      H    1455.3584435800   -22.0174279300   -17.9774613500
 1652      H    1453.6946678100   -19.2752420900   -18.6930911100
 1653      C    1451.3435140700   -22.3958536700   -17.8287519600
 1654      H    1449.9417944400   -22.1963030100   -19.2131407300
 1655      H    1451.7221856900   -24.4583938100   -17.6861544800
 1656      C    1450.8294519800   -21.5571966600   -15.1162967500
 1657      H    1452.5234071100   -21.9415423100   -14.0362740500
 1658      H    1450.7380781000   -19.5140176200   -15.0421732900
 1659      C    1448.5529751500   -22.6805742000   -13.8421695700
 1660      H    1447.0917904900   -22.9945933300   -15.3856215400
 1661      H    1448.7910483700   -24.5455626800   -12.9201246900
 1662      C    1447.2101668400   -20.9299256600   -11.9070680000
 1663      H    1448.7117109000   -19.8550994100   -11.0544763700
 1664      H    1446.1379111700   -19.4445866000   -12.8736398000
 1665      C    1445.1931973800   -22.1660307500   -10.1689794700
 1666      H    1443.4536296500   -22.5918233300   -11.1964586200
 1667      H    1445.4874599100   -24.0499622500    -9.5394812900
 1668      C    1444.3961815400   -20.5258772700    -8.0551464200
 1669      H    1444.1538911100   -18.5360559200    -8.5521435100
 1670      H    1442.5761188900   -21.3105253000    -7.5568059700
 1671      C    1446.1932957800   -20.8406829600    -5.7746475000
 1672      H    1445.5920818800   -22.6774907000    -4.7946151700
 1673      H    1448.1879953400   -20.9426547000    -6.4400053700
 1674      C    1446.0311160900   -18.7430978700    -3.6956348400
 1675      H    1447.3675483200   -17.1123961600    -4.3644503400
 1676      H    1444.1648680800   -17.9083067700    -3.6019366200
 1677      C    1446.8847542000   -19.4725758200    -0.9145493900
 1678      H    1445.4599579800   -20.7112040200    -0.0322970300
 1679      H    1448.6762598800   -20.4717534600    -0.7448229400
 1680      C    1446.7327903000   -17.2437541800     0.9417213700
 1681      H    1446.9476549800   -18.1185936300     2.7280122900
 1682      H    1445.0580592700   -16.0214134700     0.6998999800
 1683      H    1448.4412715300   -16.0015922700     0.5575047200
 1684      H    1467.1156513400   -38.0007030700    -4.7155191400
 1685      C    1466.0179190300   -36.6116415100    -5.8222934900
 1686      H    1467.0728173800   -36.5257068600    -7.5995581300
 1687      H    1464.0969548200   -37.2971332500    -6.4123439800
 1688      C    1466.0576191900   -34.0256446700    -4.6010225600
 1689      H    1464.7332088400   -34.0005643700    -2.9239097600
 1690      H    1467.9619546600   -33.4897373300    -3.8497798200
 1691      C    1465.2203700000   -31.8590385500    -6.2841492200
 1692      H    1465.8449722700   -32.1368739500    -8.2309117900
 1693      H    1463.1855882200   -31.9013612400    -6.6101635900
 1694      C    1466.0354746500   -29.1769696100    -5.4098395300
 1695      H    1465.1199838600   -28.8928493300    -3.6358073500
 1696      H    1468.0515704800   -28.9619245400    -5.3551188400
 1697      C    1465.0417563000   -27.0973226900    -7.1812697600
 1698      H    1465.3301650000   -27.8508133900    -9.1002929900
 1699      H    1462.9939341100   -26.8880861200    -7.0468292900
 1700      C    1466.5147223100   -24.6360210200    -7.1088340500
 1701      H    1466.4064125500   -23.8322129500    -5.2165055900
 1702      H    1468.4645433800   -25.3264808500    -7.6809957900
 1703      C    1465.6275747400   -22.6953789800    -8.9797340200
 1704      H    1465.4151046500   -23.8617080200   -10.7567812400
 1705      H    1463.7109756700   -22.1017678800    -8.5899097700
 1706      C    1467.5474145600   -20.5083000000    -9.0443926100
 1707      H    1468.0308866600   -19.5523304000    -7.2343868800
 1708      H    1469.3225668300   -21.2412078900    -9.6583237400
 1709      C    1466.7099045100   -18.5694777200   -11.0320045900
 1710      H    1466.6689093000   -19.4777602200   -12.8377316200
 1711      H    1464.8986389200   -17.9778858900   -10.6220395800
 1712      C    1468.3438492500   -16.1662420600   -11.5095996300
 1713      H    1469.1585918700   -15.6341815500    -9.7336235700
 1714      H    1470.0534003200   -16.9067906200   -12.5337442300
 1715      C    1467.0780411600   -14.1479632700   -13.2188286600
 1716      H    1468.2635359300   -12.5647877400   -13.5686555200
 1717      H    1466.4844099800   -15.1356205900   -14.9316247800
 1718      C    1464.8056234600   -13.0575624500   -11.8518377900
 1719      H    1463.3652667100   -14.3797821500   -11.3573578000
 1720      H    1463.7503523900   -11.7521428500   -13.0542685200
 1721      H    1465.4228613300   -12.1165318600   -10.2056959500
 1722      H    1456.6890492600   -26.9494200800    15.2303105200
 1723      C    1456.8078512200   -25.0300284100    14.3524994000
 1724      H    1455.9366982300   -25.0521519900    12.4508969000
 1725      H    1455.4796247600   -23.8283584900    15.4467871500
 1726      C    1459.3416629500   -23.8100830000    14.4869863900
 1727      H    1459.1268835200   -21.9099689800    13.7283359000
 1728      H    1459.7429524900   -23.5234873400    16.5605417600
 1729      C    1461.6103274300   -25.2132492900    13.0569973200
 1730      H    1461.9831534000   -27.0623620900    14.0046044800
 1731      H    1460.8334434400   -25.6299450900    11.2596201900
 1732      C    1464.1071516900   -23.4747953800    13.0789981400
 1733      H    1463.6807644300   -21.6959175200    12.1235235600
 1734      H    1464.4088877100   -22.9745092600    15.0530161300
 1735      C    1466.4536593000   -24.9311454900    12.0002635900
 1736      H    1467.3692080200   -26.3333999700    13.3380465400
 1737      H    1465.7477186900   -25.9697466400    10.3499104000
 1738      C    1468.6301766300   -23.4030216300    10.9412675400
 1739      H    1467.9568573100   -22.0774419900     9.5711319000
 1740      H    1469.4255606300   -22.3473737500    12.5234910800
 1741      C    1470.7253804000   -25.1408184300     9.7554382700
 1742      H    1471.3365607900   -26.4624925800    11.1969306100
 1743      H    1470.0017648800   -26.4847169100     8.4105154900
 1744      C    1473.3331923900   -23.8039375500     8.9184858000
 1745      H    1472.8727933400   -22.2875719200     7.6732413500
 1746      H    1474.5190529600   -22.9700263000    10.3259945000
 1747      C    1475.0828088900   -25.7261903100     7.7720130100
 1748      H    1475.2674471200   -27.3789600200     9.0898520300
 1749      H    1474.1521641700   -26.7769352200     6.1281254300
 1750      C    1477.6872661000   -24.8181368100     7.3783084600
 1751      H    1477.4225864400   -23.1400134100     6.1081962000
 1752      H    1478.3411153300   -23.9445534000     9.0419265100
 1753      C    1479.5266365500   -26.8295058500     6.3610259800
 1754      H    1479.5958109400   -28.2502230600     7.7880104600
 1755      H    1478.7345002200   -27.2491766800     4.6129761100
 1756      C    1482.2078151700   -26.1207319200     5.9204867700
 1757      H    1482.9942434300   -25.2603663600     7.6373311600
 1758      H    1482.4635008400   -24.8682939800     4.4638411800
 1759      H    1483.2004209700   -27.7911480400     5.3404641500
 1760      H    1489.2219716500   -27.3196350000    21.1536838600
 1761      C    1487.9970684900   -26.8852233200    22.7991047300
 1762      H    1487.5976659700   -28.7621671800    23.7046216500
 1763      H    1489.0960379000   -25.5449252200    24.0859331800
 1764      C    1485.6062157900   -25.6276022000    21.8489286200
 1765      H    1485.7820170700   -23.7749904300    21.1868488200
 1766      H    1484.7523702100   -26.6725712800    20.2896954900
 1767      C    1483.8807428700   -25.4825915100    24.1382250200
 1768      H    1483.7103147200   -27.4729876700    24.7786868000
 1769      H    1484.7117699600   -24.3266679800    25.6730718300
 1770      C    1481.2358770100   -24.3945434300    23.7429030300
 1771      H    1481.4804251600   -22.3438959400    23.3609920200
 1772      H    1480.3399491400   -25.1446874000    22.0002271500
 1773      C    1479.5721447300   -25.0813930300    26.0479548600
 1774      H    1479.0428449100   -27.1083505700    26.2431663100
 1775      H    1480.3015537000   -24.6746211300    27.8167836000
 1776      C    1477.1747026400   -23.5717399400    25.9052992100
 1777      H    1477.6860268100   -21.6883846200    25.8577982500
 1778      H    1476.0599575000   -24.1345131800    24.2990187500
 1779      C    1475.4026839900   -23.9063416500    28.2397589200
 1780      H    1474.7040556300   -25.9472852700    28.4772402700
 1781      H    1476.2246842800   -23.3393313100    30.0617139200
 1782      C    1472.9430947700   -22.3774097500    27.9631722700
 1783      H    1472.0483589400   -22.5252476400    26.1056952800
 1784      H    1471.6101073600   -23.3551427600    29.0927609600
 1785      C    1472.9761295600   -19.7618511200    29.0823415700
 1786      H    1474.1489329400   -19.8291007700    30.7728070300
 1787      H    1473.8048308100   -18.6648320300    27.6449540700
 1788      C    1470.1900517300   -18.8108700600    29.5744459500
 1789      H    1468.9925800000   -19.4571346600    27.9316773600
 1790      H    1469.7389621100   -19.7744640000    31.2616302900
 1791      C    1469.8702218700   -16.0333500600    29.9070169600
 1792      H    1470.9642575500   -15.2490201200    31.5119971800
 1793      H    1470.6974664500   -15.1590488500    28.1734700700
 1794      C    1467.0577574600   -15.1584097600    30.4666873400
 1795      H    1466.6514616900   -15.7318518600    32.3631549500
 1796      H    1465.4906787600   -16.0508096200    29.4324141800
 1797      H    1466.8433490400   -13.1557937600    30.2154183900
 1798      H    1488.0968302000    -0.7849368000    -6.7957345400
 1799      C    1489.4870839200    -1.5274058300    -8.1270133700
 1800      H    1489.3657591500    -0.6145356700   -10.1137956600
 1801      H    1491.1906470900    -1.0076855600    -7.2114113500
 1802      C    1489.4962769400    -4.3611112500    -8.3376111400
 1803      H    1489.3175566400    -5.0281678900    -6.5147528400
 1804      H    1487.9848990700    -4.9808075000    -9.6648480000
 1805      C    1492.0716226400    -5.5104789100    -9.1651557000
 1806      H    1492.5426407200    -5.0070916700   -11.1776235500
 1807      H    1493.4568839400    -4.4780868800    -8.1195420200
 1808      C    1492.4448904200    -8.3591875300    -8.8241914900
 1809      H    1494.2395192500    -8.9282918800   -10.0070753600
 1810      H    1493.0821160600    -8.9838977200    -6.8816759800
 1811      C    1490.2328682200   -10.0957750100    -9.8690049300
 1812      H    1488.5267911600    -9.4207209500    -9.0215872400
 1813      H    1489.9042722000    -9.8336533700   -11.9147493000
 1814      C    1490.6162269300   -12.8465333900    -9.5217802200
 1815      H    1492.3939416100   -13.2240242800   -10.3097593200
 1816      H    1490.6714595900   -13.2046944100    -7.5697078400
 1817      C    1488.9148245200   -14.4560415100   -11.1174543300
 1818      H    1487.0044544600   -13.8929572500   -11.1101720400
 1819      H    1489.5494910400   -14.5160395800   -13.0646351400
 1820      C    1488.7928640300   -17.1227211500    -9.9939025000
 1821      H    1490.6885361300   -18.0075983100   -10.0056302200
 1822      H    1488.1882283200   -16.9039682800    -8.0505701500
 1823      C    1487.1346043400   -18.9231333500   -11.5707939800
 1824      H    1485.2825599300   -17.9796063700   -11.5756771300
 1825      H    1487.8734855600   -19.1166948400   -13.4577301800
 1826      C    1487.0866299000   -21.5359311500   -10.4117879700
 1827      H    1488.9513322300   -22.0216297500    -9.7457880400
 1828      H    1486.1386190300   -21.6123842100    -8.5223531100
 1829      C    1485.6941254100   -23.2993999100   -12.0793542000
 1830      H    1483.6783317300   -22.7525270100   -12.1341479300
 1831      H    1486.0965366000   -23.1034476500   -14.0893117000
 1832      C    1486.2449344600   -26.2078914600   -11.3592971600
 1833      H    1485.2239723700   -27.3399165400   -12.7931199000
 1834      H    1485.3079414600   -26.6125806100    -9.4277462200
 1835      H    1488.2211308600   -26.6163324100   -11.3674393200
 1836      H    1486.9416012400   -19.8213508400    -2.7780775100
 1837      C    1487.1393254100   -18.7307906500    -0.8905087900
 1838      H    1486.0991107700   -16.9225221800    -0.7734745700
 1839      H    1486.3636605300   -19.9777280500     0.6167596400
 1840      C    1490.0190750700   -18.4601226600    -0.7039816600
 1841      H    1490.3610538200   -18.3170218200     1.3702703300
 1842      H    1490.7644796800   -20.2357100400    -1.4595429300
 1843      C    1491.4284821000   -16.3218880600    -2.1821201200
 1844      H    1491.6331245100   -16.7814204200    -4.1774872100
 1845      H    1490.5301314600   -14.5573801500    -1.9552589200
 1846      C    1494.0762579800   -16.0666024800    -1.1584320000
 1847      H    1494.1086918300   -15.4344211700     0.8219756100
 1848      H    1495.0252050800   -17.9046043100    -1.4005191100
 1849      C    1495.4941683700   -14.0951459100    -2.6600963300
 1850      H    1495.4775605600   -14.6515364400    -4.6841489100
 1851      H    1494.5127614100   -12.2557526400    -2.6587044000
 1852      C    1498.1704299800   -13.3468397800    -1.5757123500
 1853      H    1498.9946584500   -15.2358462900    -1.2948130900
 1854      H    1499.2352078200   -12.2909939000    -2.9890786000
 1855      C    1498.2015607500   -11.9613147800     0.9911623800
 1856      H    1497.2581671700   -10.1069261500     0.4739864900
 1857      H    1497.1214614700   -12.6033314500     2.5019979800
 1858      C    1500.9580711900   -11.3986158100     1.8794976200
 1859      H    1501.8634565700   -13.1741202400     1.9770043300
 1860      H    1501.8001565100   -10.1011217400     0.5519602800
 1861      C    1501.0075130900   -10.2934967400     4.5486568400
 1862      H    1499.5425377300    -8.6727273300     4.5528427100
 1863      H    1500.2198204800   -11.6805747200     5.9276465900
 1864      C    1503.6441738400    -9.5366809400     5.4854807800
 1865      H    1505.0189578500   -11.0167313900     5.1221635000
 1866      H    1504.3118108000    -7.9701637800     4.2936906300
 1867      C    1503.6862338900    -8.6580703300     8.3303454400
 1868      H    1501.8551228400    -7.6747790400     8.6567104100
 1869      H    1503.4014332100   -10.1934652900     9.6604869000
 1870      C    1505.9762318500    -7.0498478400     8.9928960200
 1871      H    1505.9834191400    -6.1375717800    10.9607955600
 1872      H    1506.1320135700    -5.6388803400     7.6004791100
 1873      H    1507.8278155000    -7.8833293100     8.3933867900
 1874      H    1475.2023416800    -5.6154332500    16.5643115900
 1875      C    1474.6113679200    -4.8716335000    14.7841426900
 1876      H    1473.3681191400    -3.4718807300    15.0132663100
 1877      H    1476.3582642700    -4.3315124500    13.8372703500
 1878      C    1473.2431224800    -6.9898415900    13.3657781900
 1879      H    1474.2434478100    -8.7058757800    13.4185468400
 1880      H    1471.4357106900    -7.1673035100    14.4848391500
 1881      C    1472.6125568700    -6.2232266000    10.5929244800
 1882      H    1471.8867451500    -4.3354572000    10.8853313700
 1883      H    1474.2845201500    -6.1279245400     9.4381219300
 1884      C    1470.9103894600    -8.2402103700     9.4831967200
 1885      H    1471.4031461100   -10.0038016900    10.1860834100
 1886      H    1469.2641703100    -8.1130540500    10.4770330000
 1887      C    1470.6174729800    -8.1209855200     6.6965761500
 1888      H    1470.1973139200    -6.1020427600     6.1889507400
 1889      H    1472.4571547800    -8.6366986300     5.8595244700
 1890      C    1468.4164601400    -9.6527613400     5.8772891500
 1891      H    1468.6450142200   -11.4530224800     6.8693198700
 1892      H    1466.5221313300    -9.1012813500     6.6051895600
 1893      C    1468.2717756900    -9.9660128000     2.8552705000
 1894      H    1467.4976713800    -8.2562415200     1.7810984900
 1895      H    1470.0682822300   -10.3476071900     2.0929738100
 1896      C    1466.4722812900   -12.1574511900     2.2218752400
 1897      H    1467.3509299000   -13.7442487400     3.2561590200
 1898      H    1464.6729075500   -11.9477020100     3.2999047600
 1899      C    1466.2364359300   -12.9252052900    -0.5130923700
 1900      H    1465.2472341000   -11.3988848900    -1.4965688000
 1901      H    1468.1728495200   -13.0727359900    -1.0607494100
 1902      C    1464.7787197200   -15.3171439000    -1.0716075400
 1903      H    1466.1656610400   -16.7347162000    -0.1495183700
 1904      H    1463.0023212000   -15.2153266500    -0.0414335300
 1905      C    1464.4212524300   -15.6532240900    -3.8799092800
 1906      H    1463.1036778800   -14.2040426000    -4.4006168800
 1907      H    1466.1140507000   -15.2653567300    -4.8867900700
 1908      C    1463.2591401300   -18.3101398100    -4.5585235300
 1909      H    1461.7746636200   -18.6443202000    -3.1429829200
 1910      H    1464.6548876700   -19.7410856700    -4.6318770900
 1911      H    1462.6187666600   -18.2496315700    -6.4849190000
 ----------------------------------------------------------------
 Nuclear Repulsion Energy =           0.00000000 hartrees
 There are       48 alpha and       48 beta electrons
 Total job time:  123.56s(wall), 243.82s(cpu) 
 Wed Jun 22 08:07:46 2022

        *************************************************************
        *                                                           *
        *  Thank you very much for using Q-Chem.  Have a nice day.  *
        *                                                           *
        *************************************************************


