                  Welcome to Q-Chem
     A Quantum Leap Into The Future Of Chemistry


 Q-Chem 5.4 (devel), Q-Chem, Inc., Pleasanton, CA (2021)

 E. Epifanovsky,  A. T. B. Gilbert,  Xintian Feng,  Joonho Lee,  Yuezhi Mao,  
 N. Mardirossian,  P. Pokhilko,  A. White,  M. Wormit,  M. P. Coons,  
 A. L. Dempwolff,  Zhengting Gan,  D. Hait,  P. R. Horn,  L. D. Jacobson,  
 I. Kaliman,  J. Kussmann,  A. W. Lange,  Ka Un Lao,  D. S. Levine,  Jie Liu,  
 S. C. McKenzie,  A. F. Morrison,  K. Nanda,  F. Plasser,  D. R. Rehn,  
 M. L. Vidal,  Zhi-Qiang You,  Ying Zhu,  B. Alam,  B. Albrecht,  
 A. Aldossary,  E. Alguire,  J. H. Andersen,  D. Barton,  K. Begam,  A. Behn,  
 Y. A. Bernard,  E. J. Berquist,  H. Burton,  A. Carreras,  K. Carter-Fenk,  
 R. Chakraborty,  A. D. Chien,  K. D. Closser,  V. Cofer-Shabica,  
 S. Dasgupta,  Jia Deng,  M. de Wergifosse,  M. Diedenhofen,  Hainam Do,  
 S. Ehlert,  Po-Tung Fang,  S. Fatehi,  Qingguo Feng,  T. Friedhoff,  
 J. Gayvert,  Qinghui Ge,  G. Gidofalvi,  M. Goldey,  J. Gomes,  
 C. Gonzalez-Espinoza,  S. Gulania,  A. Gunina,  M. W. D. Hanson-Heine,  
 P. H. P. Harbach,  A. W. Hauser,  M. F. Herbst,  M. Hernandez Vera,  
 M. Hodecker,  Z. C. Holden,  S. Houck,  Xunkun Huang,  Kerwin Hui,  
 B. C. Huynh,  M. Ivanov,  Hyunjun Ji,  Hanjie Jiang,  B. Kaduk,  S. Kaehler,  
 K. Khistyaev,  Jaehoon Kim,  P. Klunzinger,  Z. Koczor-Benda,  
 Joong Hoon Koh,  D. Kosenkov,  L. Koulias,  T. Kowalczyk,  C. M. Krauter,  
 K. Kue,  A. Kunitsa,  T. Kus,  A. Landau,  K. V. Lawler,  D. Lefrancois,  
 S. Lehtola,  Rain Li,  Yi-Pei Li,  Jiashu Liang,  M. Liebenthal,  
 Hung-Hsuan Lin,  You-Sheng Lin,  Fenglai Liu,  Kuan-Yu Liu,  
 M. Loipersberger,  A. Luenser,  A. Manjanath,  P. Manohar,  E. Mansoor,  
 S. F. Manzer,  Shan-Ping Mao,  A. V. Marenich,  T. Markovich,  S. Mason,  
 S. A. Maurer,  P. F. McLaughlin,  M. F. S. J. Menger,  J.-M. Mewes,  
 S. A. Mewes,  P. Morgante,  J. W. Mullinax,  K. J. Oosterbaan,  G. Paran,  
 Alexander C. Paul,  Suranjan K. Paul,  F. Pavosevic,  Zheng Pei,  S. Prager,  
 E. I. Proynov,  E. Ramos,  B. Rana,  A. E. Rask,  A. Rettig,  R. M. Richard,  
 F. Rob,  E. Rossomme,  T. Scheele,  M. Scheurer,  M. Schneider,  
 N. Sergueev,  S. M. Sharada,  W. Skomorowski,  D. W. Small,  C. J. Stein,  
 Yu-Chuan Su,  E. J. Sundstrom,  Zhen Tao,  J. Thirman,  T. Tsuchimochi,  
 N. M. Tubman,  S. P. Veccham,  O. Vydrov,  J. Wenzel,  J. Witte,  A. Yamada,  
 Kun Yao,  S. Yeganeh,  S. R. Yost,  A. Zech,  Igor Ying Zhang,  Xing Zhang,  
 Yu Zhang,  D. Zuev,  A. Aspuru-Guzik,  A. T. Bell,  N. A. Besley,  
 K. B. Bravaya,  B. R. Brooks,  D. Casanova,  Jeng-Da Chai,  S. Coriani,  
 C. J. Cramer,  A. E. DePrince, III,  R. A. DiStasio Jr.,  A. Dreuw,  
 B. D. Dunietz,  T. R. Furlani,  W. A. Goddard III,  S. Grimme,  
 S. Hammes-Schiffer,  T. Head-Gordon,  W. J. Hehre,  Chao-Ping Hsu,  
 T.-C. Jagau,  Yousung Jung,  A. Klamt,  Jing Kong,  D. S. Lambrecht,  
 WanZhen Liang,  N. J. Mayhall,  C. W. McCurdy,  J. B. Neaton,  
 C. Ochsenfeld,  J. A. Parkhill,  R. Peverati,  V. A. Rassolov,  Yihan Shao,  
 L. V. Slipchenko,  T. Stauch,  R. P. Steele,  J. E. Subotnik,  
 A. J. W. Thom,  A. Tkatchenko,  D. G. Truhlar,  T. Van Voorhis,  
 T. A. Wesolowski,  K. B. Whaley,  H. L. Woodcock III,  P. M. Zimmerman,  
 S. Faraji,  P. M. W. Gill,  M. Head-Gordon,  J. M. Herbert,  A. I. Krylov

 Additional authors for Version 5.4.1: 
 S. Kotaru,  Shaozhi Li,  Xiangyuan Li,  F. Matz,  A. Molle,  Haisheng Ren,  
 Yingli Su,  Hung-Yi Tsai,  C. Utku,  Fang Wang

 Contributors to earlier versions of Q-Chem not listed above: 
 R. D. Adamson,  B. Austin,  R. Baer,  J. Baker,  G. J. O. Beran,  
 K. Brandhorst,  S. T. Brown,  E. F. C. Byrd,  A. K. Chakraborty,  
 G. K. L. Chan,  Chun-Min Chang,  Yunqing Chen,  C.-L. Cheng,  
 Siu Hung Chien,  D. M. Chipman,  D. L. Crittenden,  H. Dachsel,  
 R. J. Doerksen,  A. D. Dutoi,  R. G. Edgar,  J. Fosso-Tande,  
 L. Fusti-Molnar,  D. Ghosh,  A. Ghysels,  A. Golubeva-Zadorozhnaya,  
 J. Gonthier,  M. S. Gordon,  S. R. Gwaltney,  G. Hawkins,  J. E. Herr,  
 A. Heyden,  S. Hirata,  E. G. Hohenstein,  G. Kedziora,  F. J. Keil,  
 C. Kelley,  Jihan Kim,  R. A. King,  R. Z. Khaliullin,  P. P. Korambath,  
 W. Kurlancheek,  A. Laurent,  A. M. Lee,  M. S. Lee,  S. V. Levchenko,  
 Ching Yeh Lin,  D. Liotard,  E. Livshits,  R. C. Lochan,  I. Lotan,  
 L. A. Martinez-Martinez,  P. E. Maslen,  N. Nair,  D. P. O'Neill,  
 D. Neuhauser,  E. Neuscamman,  C. M. Oana,  R. Olivares-Amaya,  R. Olson,  
 T. M. Perrine,  B. Peters,  P. A. Pieniazek,  A. Prociuk,  Y. M. Rhee,  
 J. Ritchie,  M. A. Rohrdanz,  E. Rosta,  N. J. Russ,  H. F. Schaefer III,  
 M. W. Schmidt,  N. E. Schultz,  S. Sharma,  N. Shenvi,  C. D. Sherrill,  
 A. C. Simmonett,  A. Sodt,  T. Stein,  D. Stuck,  K. S. Thanthiriwatte,  
 V. Vanovschi,  L. Vogt,  Tao Wang,  A. Warshel,  M. A. Watson,  
 C. F. Williams,  Q. Wu,  X. Xu,  Jun Yang,  W. Zhang,  Yan Zhao

 Please cite Q-Chem as follows:
 Y. Shao et al., Mol. Phys. 113, 184-215 (2015)
 DOI: 10.1080/00268976.2014.952696

 Q-Chem 5.4.1 for Intel X86 EM64T Linux

 Parts of Q-Chem use Armadillo 9.900.5 (Nocturnal Misbehaviour).
 http://arma.sourceforge.net/

 Q-Chem begins on Sun Jul  3 09:42:05 2022  

 Host: p09r14n10.grace.hpc.yale.internal
0

     Scratch files written to /home/tl686/scratch60/qchem_dev/scratch/qchem37075//
 Processing $rem in /home/tl686/qchem_dev/qchem/config/preferences:
 Processing $rem in /home/tl686/.qchemrc:
Applying user defined connections for MM calculations

 Checking the input file for inconsistencies... 	...done.

--------------------------------------------------------------
User input:
--------------------------------------------------------------
$molecule
0   1
Fe 361.45569123 11.42641913 -39.97087054    -1  0   0   0   0
C 359.25022291 12.78357543 -42.06223253    -2  0   0   0   0 
C 364.80999490 11.03057965 -40.74422684    -2  0   0   0   0
C 362.07442777 14.60097812 -39.01663550    -2  0   0   0   0
C 361.09921844 10.15852736 -36.89217408    -2  0   0   0   0
C 360.69511889 8.38488389 -41.40688121    -2  0   0   0   0
O 357.84999516 13.90123845 -43.31993173    -3  0   0   0   0
O 366.95678433 10.79847437 -41.27729250    -3  0   0   0   0 
O 362.66489341 16.68233239 -38.62810475    -3  0   0   0   0
O 360.78121538 9.20959538 -34.94343311    -3  0   0   0   0 
O 359.98762045 6.55874159 -42.39183397    -3  0   0   0   0
H 354.29596539 37.28047136 -37.11733244      6     13    0    0    0 
C 352.57849159 37.80772550 -38.10878121     1     12    14    15    16
H 352.35253957 39.87155277 -37.79475950     6     13    0    0    0
H 352.81285787 37.36068314 -40.11277079     6     13    0    0    0
C 350.21741554 36.51167539 -37.19500434     2     13    17    18    19
H 350.11963375 36.79232804 -35.10095779     6     16    0    0    0
H 348.40271045 37.44118684 -37.89898612     6     16    0    0    0
C 350.70957664 33.60673273 -37.60094532     2     16    20   21   22
H 350.99017369 33.15118566 -39.60283010     6     19    0    0    0
H 352.43840228 33.10348996 -36.73530405     6     19    0    0    0
C 348.58408837 32.03988409 -36.32616543     2     19   23   24   25
H 348.65502825 32.58910530 -34.34968634     6    22    0    0    0
H 346.94993970 32.93298587 -37.27576083     6    22    0    0    0
C 348.65145222 29.24423650 -36.77942471     2    22   26   27   28
H 348.37211925 29.05450447 -38.73717761     6    25    0    0    0
H 350.54420860 28.54582792 -36.40658840     6    25    0    0    0
C 346.75507833 27.88523281 -34.85512209     2    25   29   30   31
H 347.31154182 28.62504113 -33.03364075     6    28    0    0    0
H 344.92700840 28.67274095 -35.29914987     6    28    0    0    0
C 347.26484866 25.05800614 -35.06229394     2    28   32   33   34
H 346.27265603 24.21168180 -36.79086810     6    31    0    0    0
H 349.31077614 24.66838352 -35.01982093     6    31    0    0    0
C 345.96492753 23.50923978 -32.96183472     2    31   35   36   37
H 346.30312435 24.26421726 -30.95802429     6    34    0    0    0
H 343.97710440 23.99470234 -33.03796663     6    34    0    0    0
C 346.09883141 20.61914444 -33.06230378     2    34   38   39   40
H 345.25131369 19.89032600 -34.78934451     6    37    0    0    0
H 348.05552275 20.02218768 -33.28742190     6    37    0    0    0
C 344.73757868 19.26146603 -30.80808535     2    37   41   42   43
H 345.49253347 19.79913993 -28.95504563     6    40    0    0    0
H 342.80069896 19.75696292 -30.85525416     6    40    0    0    0
C 344.83566750 16.34117532 -31.02574532     2    40   44   45   46
H 343.52742752 16.03145410 -32.60029526     6    43    0    0    0
H 346.66942702 15.56498248 -31.79094107     6    43    0    0    0
C 344.36628032 15.12699830 -28.53016894     1    43   47   48   49
H 346.06349239 15.63534909 -27.27902802     6    46    0    0    0
H 343.92983900 13.13988718 -28.94101901     6    46    0    0    0
H 342.64475169 15.76718608 -27.66315015     6    46    0    0    0
H 352.49635565 8.18547007 -39.78966183     6     51    0    0    0 
C 354.27833527 9.12435489 -39.70480345     1     50    52    53    54
H 355.62919126 7.63008542 -39.27313548     6     51    0    0    0
H 354.56767970 9.81732259 -41.60283238     6     51    0    0    0
C 354.13814019 11.35290660 -37.85687570     2     51    55    56    57
H 355.76938391 12.55879570 -37.81528402     6     54    0    0    0
H 352.84778100 12.81950014 -38.50850707     6     54    0    0    0
C 353.59605369 10.60256189 -35.03309449     2     54    58   59   60
H 354.84863767 9.00396449 -34.54131830     6     57    0    0    0
H 354.42346035 12.05243941 -33.84611380     6     57    0    0    0
C 350.76490924 10.15144484 -34.48293081     2     57   61   62   63
H 349.65618770 11.59970388 -35.40178502     6    60    0    0    0
H 350.33246624 8.38525859 -35.44063759     6    60    0    0    0
C 350.23390314 9.88343894 -31.80570374     2    60   64   65   66
H 351.41436070 8.38714960 -31.07192624     6    63    0    0    0
H 350.54146990 11.74582346 -30.74544480     6    63    0    0    0
C 347.66652726 9.08362519 -30.89720752     2    63   67   68   69
H 347.44557599 9.39667521 -28.93689358     6    66    0    0    0
H 346.31848929 10.36771152 -31.87403064     6    66    0    0    0
C 347.13168142 6.24090152 -31.62844409     2    66   70   71   72
H 347.22831360 6.14173574 -33.83162524     6    69    0    0    0
H 348.52101797 4.86902379 -30.82528537     6    69    0    0    0
C 344.38048245 5.15036349 -31.07441389     2    69   73   74   75
H 344.15522775 4.80209173 -29.05427251     6    72    0    0    0
H 342.89311335 6.42663666 -31.39693810     6    72    0    0    0
C 343.90233572 2.59287853 -32.47327521     2    72   76   77   78
H 344.60117205 2.63431707 -34.36632253     6    75    0    0    0
H 344.92426346 1.11078744 -31.53190527     6    75    0    0    0
C 341.08451610 1.79209061 -32.86282366     2    75   79   80   81
H 340.42790104 0.97360700 -31.18516561     6    78    0    0    0
H 339.95405738 3.53673916 -33.24213937     6    78    0    0    0
C 340.62125359 -0.02645266 -35.06887951     2    78   82   83   84
H 341.60539375 0.95049740 -36.63720621     6    81    0    0    0
H 341.55826181 -1.79685942 -34.74299669     6    81    0    0    0
C 337.91083064 -0.69396189 -35.50753196     1    81   85   86   87
H 337.47819275 -1.93279731 -37.26906186     6    84    0    0    0
H 336.75174577 0.91560879 -35.79506383     6    84    0    0    0
H 337.18525611 -1.49527754 -33.67464237     6    84    0    0    0
H 348.14171236 41.01140471 -20.28509602     6     89    0    0    0 
C 346.24028385 40.67365074 -19.47769815     1     88    90    91    92
H 346.47144627 39.80757841 -17.52722382     6     89    0    0    0
H 345.42255876 42.55154801 -19.17970469     6     89    0    0    0
C 344.85114914 38.86040649 -21.23516095     2     89    93    94    95
H 344.65543737 39.60990226 -23.07366407     6     92    0    0    0
H 346.13831647 37.35965713 -21.52125112     6     92    0    0    0
C 342.19084988 38.10242382 -20.22093799     2     92    96   97   98
H 342.41179708 37.36080874 -18.36114042     6     95    0    0    0
H 341.06968084 39.81128110 -20.14700240     6     95    0    0    0
C 340.72233705 36.15560250 -21.85933952     2     95   99   100   101
H 340.39957253 36.67177169 -23.77428935     6    98    0    0    0
H 341.97261583 34.46960876 -21.95072522     6    98    0    0    0
C 338.02290942 35.57973213 -21.15098458     2    98   102   103   104
H 337.78600186 35.49947308 -19.14911373     6    101    0    0    0
H 336.92690475 37.22928333 -21.54881616     6    101    0    0    0
C 337.03748173 33.13475140 -22.48923986     2    101   105   106   107
H 336.99669767 33.23734826 -24.55223061     6    104    0    0    0
H 338.42273495 31.63794845 -22.07627292     6    104    0    0    0
C 334.42121550 32.31200636 -21.37681116     2    104   108   109   110
H 334.53126348 32.36075966 -19.23840525     6    107    0    0    0
H 332.97396943 33.75998515 -21.79449967     6    107    0    0    0
C 333.48593108 29.70350653 -22.40653482     2    107   111   112   113
H 333.88957965 29.70420596 -24.40474549     6    110    0    0    0
H 334.72382568 27.97768548 -21.79216082     6    110    0    0    0
C 330.60009778 29.14912849 -21.88853175     2    110   114   115   116
H 330.22871834 29.12234286 -19.79039363     6    113    0    0    0
H 329.51727225 30.72317179 -22.65824228     6    113    0    0    0
C 329.39515714 26.92867169 -23.33880571     2    113   117   118   119
H 329.40005932 26.86704558 -25.43612627     6    116    0    0    0
H 330.44368573 25.23149970 -22.88468188     6    116    0    0    0
C 326.62303544 26.59316667 -22.57333441     2    116   120   121   122
H 325.81179784 24.71337222 -23.02128280     6    119    0    0    0
H 326.20808054 26.72157882 -20.68176993     6    119    0    0    0
C 325.14154785 28.61222714 -23.98993398     1    119   123   124   125
H 323.11353342 28.51994041 -23.77897480     6    122    0    0    0
H 325.10407946 28.71263787 -26.04443572     6    122    0    0    0
H 325.70773344 30.48754536 -23.13793041     6    122    0    0    0
H 360.83993621 29.56724759 -15.99156587     6     127    0    0    0 
C 360.93521320 28.58895044 -17.81001453     1     126    128    129    130
H 360.50828545 26.51174548 -17.54520375     6     127    0    0    0
H 359.55088267 29.42147905 -18.95148127     6     127    0    0    0
C 363.53231230 29.22237339 -19.19122373     2     127    131    132    133
H 363.67879846 31.09998379 -19.75061198     6     130    0    0    0
H 365.03590248 29.06246395 -17.83274853     6     130    0    0    0
C 364.18937739 27.32937424 -21.33092315     2     130    134   135   136
H 364.70694086 25.62361061 -20.50814836     6     133    0    0    0
H 362.80341358 26.88654708 -22.72504422     6     133    0    0    0
C 366.49644292 28.49636135 -22.73194714     2     133   137   138   139
H 365.83660756 30.24199520 -23.76809807     6    136    0    0    0
H 367.89137573 28.99363211 -21.33595596     6    136    0    0    0
C 367.85994462 26.67842605 -24.58671725     2    136   140   141   142
H 368.98237396 25.50296221 -23.25904789     6    139    0    0    0
H 366.61345672 25.32507641 -25.57857982     6    139    0    0    0
C 369.48401357 28.01533330 -26.43399522     2    139   143   144   145
H 368.15470510 29.00813948 -27.65146340     6    142    0    0    0
H 370.42558659 29.36841511 -25.28640695     6    142    0    0    0
C 371.13665947 26.24285397 -28.08111523     2    142   146   147   148
H 371.94704278 24.86650218 -26.71427190     6    145    0    0    0
H 370.11554948 25.08485745 -29.44277586     6    145    0    0    0
C 373.13355400 27.58467869 -29.59294850     2    145   149   150   151
H 372.12236805 29.07302859 -30.74397498     6    148    0    0    0
H 374.17943680 28.80217832 -28.39836278     6    148    0    0    0
C 374.91918279 25.94791415 -31.18299798     2    148   152   153   154
H 375.55304978 24.41856721 -29.92141079     6    151    0    0    0
H 373.86676371 24.91699365 -32.63363533     6    151    0    0    0
C 377.22904269 27.33764856 -32.13017808     2    151   155   156   157
H 376.67856186 28.93440433 -33.43342705     6    154    0    0    0
H 378.20548138 28.29356321 -30.47206380     6    154    0    0    0
C 379.12772054 25.64227841 -33.45976314     2    154   158   159   160
H 379.69866063 24.23597113 -32.00639192     6    157    0    0    0
H 378.03846416 24.67572680 -35.00570696     6    157    0    0    0
C 381.27351551 27.14171649 -34.45562783     1    157   161   162   163
H 382.83309915 26.03989218 -35.21614122     6    160    0    0    0
H 382.32138510 28.23313365 -32.99659183     6    160    0    0    0
H 380.58341755 28.37002477 -35.90239234     6    160    0    0    0
H 349.43603081 17.06775912 -4.15572307     6     165    0    0    0 
C 350.30342210 17.77169146 -5.88103555     1     164    166    167    168
H 350.44101583 16.15324433 -7.05102148     6     165    0    0    0
H 349.16320514 19.06514704 -6.96865814     6     165    0    0    0
C 352.72376323 19.14384464 -5.39672346     2     165    169    170    171
H 351.98707906 20.77101860 -4.30770572     6     168    0    0    0
H 354.11731958 18.10167797 -4.34094455     6     168    0    0    0
C 354.24755441 20.03823176 -7.73399427     2     168    172   173   174
H 355.01708748 18.54508545 -8.93953419     6     171    0    0    0
H 352.94557511 21.12359541 -9.02960049     6     171    0    0    0
C 356.57819497 21.63523280 -6.80088495     2     171   175   176   177
H 355.85400907 22.97632776 -5.38762155     6    174    0    0    0
H 357.80741843 20.18552047 -5.99673597     6    174    0    0    0
C 358.04013657 22.92369097 -8.87279391     2    174   178   179   180
H 358.55381791 21.61604067 -10.40381637     6    177    0    0    0
H 356.73600014 24.37620265 -9.56009066     6    177    0    0    0
C 360.64965888 23.97783872 -8.25849354     2    177   181   182   183
H 360.49209769 25.16379593 -6.56380023     6    180    0    0    0
H 361.73182515 22.35156470 -7.64390672     6    180    0    0    0
C 362.01408074 25.56179330 -10.40044030     2    180   184   185   186
H 362.69144799 24.12173166 -11.77032666     6    183    0    0    0
H 360.58790277 26.84731461 -11.21464882     6    183    0    0    0
C 364.46959029 26.92835891 -9.38172148     2    183   187   188   189
H 363.91337896 28.60123901 -8.30843555     6    186    0    0    0
H 365.34201579 25.70083935 -8.14493295     6    186    0    0    0
C 366.38812925 27.68870153 -11.49968991     2    186   190   191   192
H 366.59931209 25.66161682 -12.32516761     6    189    0    0    0
H 365.25353415 28.86890166 -12.80897169     6    189    0    0    0
C 368.73884210 29.04963354 -10.48945586     2    189   193   194   195
H 368.19667034 30.50777229 -9.04704575     6    192    0    0    0
H 369.79009747 27.65205557 -9.44815838     6    192    0    0    0
C 370.28427535 30.09437818 -12.65502533     2    192   196   197   198
H 370.90797730 28.49834071 -13.77435897     6    195    0    0    0
H 369.26461349 31.17350577 -13.99685435     6    195    0    0    0
C 372.60122802 31.68942710 -11.79143420     1    195   199   200   201
H 373.13272308 32.81194491 -13.38962178     6    198    0    0    0
H 374.15431814 30.54868892 -11.36571282     6    198    0    0    0
H 372.16150917 32.87906165 -10.14568683     6    198    0    0    0
H 358.36544797 10.86606366 -9.81907454     6     203    0    0    0 
C 357.50848987 11.51170228 -8.18470102     1     202    204    205    206
H 358.38272045 10.59854422 -6.63259640     6     203    0    0    0
H 357.76265336 13.52549552 -8.16697919     6     203    0    0    0
C 354.67618529 10.75300000 -8.28312076     2     203    207    208    209
H 353.95229817 10.80151224 -6.31694252     6     206    0    0    0
H 353.65501081 12.43986102 -9.12643192     6     206    0    0    0
C 353.82734222 8.30281936 -9.45671809     2     206    210   211   212
H 351.77943395 8.61100822 -10.07305436     6     209    0    0    0
H 354.83354777 7.90283988 -11.21855113     6     209    0    0    0
C 353.80153944 6.16627430 -7.57029561     2     209   213   214   215
H 355.63494082 6.15198670 -6.55532089     6    212    0    0    0
H 352.30175971 6.62135438 -6.25939291     6    212    0    0    0
C 353.49695125 3.40363318 -8.69088610     2    212   216   217   218
H 351.70894936 3.19889795 -9.40691094     6    215    0    0    0
H 354.82246055 3.25663083 -10.34782427     6    215    0    0    0
C 353.91891601 1.34285357 -6.64526736     2    215   219   220   221
H 355.66877994 1.74398265 -5.69203865     6    218    0    0    0
H 352.07415813 1.51636300 -5.44844192     6    218    0    0    0
C 353.90866519 -1.18730743 -7.90356648     2    218   222   223   224
H 352.27980170 -1.35334578 -9.06059301     6    221    0    0    0
H 355.64714408 -1.21291564 -9.11567404     6    221    0    0    0
C 353.99591332 -3.23173709 -5.82134232     2    221   225   226   227
H 355.63491791 -3.09542866 -4.63425488     6    224    0    0    0
H 352.31717885 -3.24426141 -4.71436249     6    224    0    0    0
C 354.20479406 -5.66515063 -7.30456683     2    224   228   229   230
H 352.56016214 -5.87000908 -8.62527007     6    227    0    0    0
H 356.06565605 -5.36036154 -8.44012761     6    227    0    0    0
C 354.30758256 -8.01347463 -5.56861141     2    227   231   232   233
H 355.99937063 -8.01358857 -4.48480768     6    230    0    0    0
H 352.79056121 -7.88549728 -4.10624111     6    230    0    0    0
C 354.27009436 -10.49170407 -7.16542113     2    230   234   235   236
H 354.77333981 -10.09641371 -9.20453349     6    233    0    0    0
H 355.62333963 -11.74483229 -6.18081345     6    233    0    0    0
C 351.76459118 -11.76239631 -7.19986815     1    233   237   238   239
H 351.92706611 -13.69190025 -7.56101074     6    236    0    0    0
H 350.76798360 -10.99646108 -8.77452921     6    236    0    0    0
H 350.65011894 -11.68130768 -5.46501742     6    236    0    0    0
H 337.89464121 9.28407747 -32.59730510     6     241    0    0    0 
C 338.66797179 10.86338832 -31.52300618     1     240    242    243    244
H 340.65899468 10.42700094 -31.62996527     6     241    0    0    0
H 338.30825864 12.64527279 -32.55032403     6     241    0    0    0
C 338.18405459 11.27988985 -28.65529022     2     241    245    246    247
H 338.91844184 9.62129157 -27.62955086     6     244    0    0    0
H 339.29048043 12.93697450 -28.07779719     6     244    0    0    0
C 335.33295053 11.75805653 -28.24990111     2     244    248   249   250
H 335.00195138 11.92816227 -26.20871652     6     247    0    0    0
H 334.82460087 13.62730682 -29.13601996     6     247    0    0    0
C 333.52486203 9.47859485 -29.14771420     2     247   251   252   253
H 331.57120392 9.83356315 -28.95636661     6    250    0    0    0
H 333.98733820 9.25879973 -31.18789521     6    250    0    0    0
C 334.03980183 6.99754428 -27.58660754     2    250   254   255   256
H 335.70867459 6.26705575 -28.48493870     6    253    0    0    0
H 334.49333227 7.36277207 -25.66159060     6    253    0    0    0
C 331.98603705 4.77294424 -27.65177808     2    253   257   258   259
H 332.21994066 3.60084321 -26.09479710     6    256    0    0    0
H 330.03080256 5.47937228 -27.52871645     6    256    0    0    0
C 331.76883405 3.33671220 -30.22887799     2    256   260   261   262
H 331.44792202 4.52474997 -31.83147656     6    259    0    0    0
H 333.62037645 2.53297433 -30.79482304     6    259    0    0    0
C 329.59131550 1.30404058 -30.31147164     2    259   263   264   265
H 329.91080450 0.00601629 -28.91220525     6    262    0    0    0
H 327.78413541 2.07486762 -29.83610116     6    262    0    0    0
C 329.40421038 0.27077947 -33.01655075     2    262   266   267   268
H 327.39788179 0.28487180 -33.43918243     6    265    0    0    0
H 330.37391917 1.24037723 -34.48378320     6    265    0    0    0
C 330.38506503 -2.39482207 -33.05958358     2    265   269   270   271
H 332.25012724 -2.64829296 -32.53243190     6    268    0    0    0
H 329.28955848 -3.51899885 -31.71864328     6    268    0    0    0
C 330.17544920 -3.41558391 -35.76525914     2    268   272   273   274
H 328.25187064 -3.36795049 -36.42767193     6    271    0    0    0
H 331.27871023 -2.28228388 -37.00639738     6    271    0    0    0
C 331.30346749 -6.14205114 -36.01765422     1    271   275   276   277
H 333.28087703 -5.93634665 -36.09924165     6    274    0    0    0
H 330.53537346 -6.83366798 -37.93469750     6    274    0    0    0
H 330.75821641 -7.37154889 -34.45662941     6    274    0    0    0
H 346.21620234 28.44435845 -8.68919527     6     279    0    0    0 
C 345.35337178 26.97999696 -9.88611394     1     278    280    281    282
H 343.64941637 26.23582304 -9.12755407     6     279    0    0    0
H 345.01097750 28.06772189 -11.72593095     6     279    0    0    0
C 347.10438665 24.86983365 -10.61648686     2     279    283    284    285
H 348.49852713 25.38653570 -12.11941638     6     282    0    0    0
H 348.25369671 24.50219128 -9.13467899     6     282    0    0    0
C 345.81716336 22.34181377 -11.42645307     2     282    286   287   288
H 344.80364741 21.50017509 -9.78548008     6     285    0    0    0
H 344.48058321 22.62124243 -12.95114946     6     285    0    0    0
C 347.49594752 20.20898027 -12.26109753     2     285   289   290   291
H 348.58109807 20.77984007 -13.95984199     6    288    0    0    0
H 349.01331239 19.88086401 -10.91334586     6    288    0    0    0
C 346.03229789 17.80009178 -12.67182427     2    288   292   293   294
H 345.15055932 17.36512311 -10.90596805     6    291    0    0    0
H 344.71538446 17.86765207 -14.39876545     6    291    0    0    0
C 347.83918054 15.53888215 -13.27846489     2    291   295   296   297
H 348.29481946 15.57503160 -15.28532853     6    294    0    0    0
H 349.51318494 15.61166717 -12.12214323     6    294    0    0    0
C 346.70155618 12.97128642 -12.49512826     2    294   298   299   300
H 346.78537008 12.79502394 -10.48358472     6    297    0    0    0
H 344.73828229 13.06861025 -12.99100836     6    297    0    0    0
C 348.21592692 10.74889765 -13.77354270     2    297   301   302   303
H 348.14836118 11.20722283 -15.73945121     6    300    0    0    0
H 350.21853819 10.95759182 -13.29162647     6    300    0    0    0
C 347.36768918 8.12269671 -13.07900329     2    300   304   305   306
H 347.41618546 7.77565586 -11.00850378     6    303    0    0    0
H 345.33722638 7.93456753 -13.41880041     6    303    0    0    0
C 349.07376265 6.04570018 -14.22307654     2    303   307   308   309
H 349.00961675 6.30769631 -16.18577902     6    306    0    0    0
H 350.94469301 6.20903174 -13.60914253     6    306    0    0    0
C 348.29816124 3.19135676 -13.90591285     2    306   310   311   312
H 348.06901677 2.56402893 -12.04653481     6    309    0    0    0
H 346.55144812 2.80098881 -14.99598556     6    309    0    0    0
C 350.64205080 1.58468459 -15.05595042     1    309   313   314   315
H 352.39659318 2.32456958 -14.25615597     6    312    0    0    0
H 350.91861294 1.69896264 -17.09972403     6    312    0    0    0
H 350.37250499 -0.31830207 -14.31514705     6    312    0    0    0
H 356.18455569 30.76582311 -19.99851105     6     317    0    0    0 
C 355.13678229 31.88764474 -21.35606539     1     316    318    319    320
H 353.60409748 30.71996094 -21.87179311     6     317    0    0    0
H 354.47121113 33.61066052 -20.56470921     6     317    0    0    0
C 356.70683241 32.12563554 -23.72733934     2     317    321    322    323
H 355.59224850 32.86352208 -25.25879518     6     320    0    0    0
H 358.07580657 33.57307783 -23.36016146     6     320    0    0    0
C 357.88929024 29.61576841 -24.60217590     2     320    324   325   326
H 358.77732943 28.84794989 -23.01094483     6     323    0    0    0
H 356.37670262 28.25176277 -25.06991123     6     323    0    0    0
C 359.80166637 29.75932480 -26.76901335     2     323   327   328   329
H 358.96493539 30.81179005 -28.24967402     6    326    0    0    0
H 361.64278106 30.44787285 -26.04083881     6    326    0    0    0
C 360.48698422 27.04550462 -27.85329922     2    326   330   331   332
H 361.03375257 25.94881020 -26.19641912     6    329    0    0    0
H 358.96695632 25.96495067 -28.79983354     6    329    0    0    0
C 362.84380519 27.10115799 -29.56679122     2    329   333   334   335
H 364.28709129 28.43954138 -28.76210888     6    332    0    0    0
H 363.94923153 25.27155489 -29.57014247     6    332    0    0    0
C 362.22845873 27.64299559 -32.40794037     2    332   336   337   338
H 360.69367478 26.42541706 -33.07145434     6    335    0    0    0
H 361.49312886 29.53646071 -32.73850337     6    335    0    0    0
C 364.32329724 27.08956380 -34.23496458     2    335   339   340   341
H 363.82431252 27.93291604 -36.03493258     6    338    0    0    0
H 365.98572457 27.99525938 -33.44627635     6    338    0    0    0
C 364.60886360 24.18582144 -34.69371178     2    338   342   343   344
H 364.89372912 23.24447354 -32.82781561     6    341    0    0    0
H 362.72186084 23.60406715 -35.18184191     6    341    0    0    0
C 366.51516117 23.45589953 -36.72256656     2    341   345   346   347
H 366.69889432 21.45448968 -36.80241875     6    344    0    0    0
H 365.63856915 24.21580956 -38.41718031     6    344    0    0    0
C 368.98761482 24.38618338 -35.95835326     2    344   348   349   350
H 369.26015381 26.46154334 -36.17767414     6    347    0    0    0
H 369.46455977 23.73768092 -34.06336813     6    347    0    0    0
C 371.27226262 23.67775117 -37.70970784     1    347   351   352   353
H 373.03975597 24.58555098 -36.76971261     6    350    0    0    0
H 371.12117187 24.45447079 -39.60321155     6    350    0    0    0
H 371.70799118 21.60833570 -38.11423140     6    350    0    0    0
H 339.77174294 3.94890905 -22.41139366     6     355    0    0    0 
C 340.23214076 5.82408539 -23.15855624     1     354    356    357    358
H 342.20948213 5.76342884 -23.98897046     6     355    0    0    0
H 338.92719536 5.87021438 -24.71391880     6     355    0    0    0
C 340.08645368 7.89253376 -21.09505790     2     355    359    360    361
H 338.38505232 7.52839620 -20.13957327     6     358    0    0    0
H 341.47691997 7.33301196 -19.64948237     6     358    0    0    0
C 340.29567827 10.51561128 -22.43073852     2     358    362   363   364
H 341.43185103 10.37224281 -24.05237744     6     361    0    0    0
H 338.49755986 10.88321701 -23.25722174     6     361    0    0    0
C 341.30401310 12.46851311 -20.61830964     2     361   365   366   367
H 340.06633083 12.38682243 -18.85948772     6    364    0    0    0
H 343.12234952 11.65701858 -20.03391499     6    364    0    0    0
C 341.70764682 15.11641589 -21.69861527     2    364   368   369   370
H 342.98335309 14.87512169 -23.27395007     6    367    0    0    0
H 339.88256186 15.80806914 -22.28471763     6    367    0    0    0
C 342.94607794 17.08615686 -19.95504317     2    367   371   372   373
H 341.78732646 17.59785149 -18.23570786     6    370    0    0    0
H 344.52750129 16.00661404 -19.02584505     6    370    0    0    0
C 343.83075197 19.51684250 -21.26700753     2    370   374   375   376
H 344.99980150 18.74472337 -22.76040202     6    373    0    0    0
H 342.26378095 20.48626953 -22.05290948     6    373    0    0    0
C 345.12084388 21.39384083 -19.41754208     2    373   377   378   379
H 343.57552288 21.88588781 -18.29512007     6    376    0    0    0
H 346.56008320 20.44667414 -18.29528495     6    376    0    0    0
C 346.36852145 23.44083512 -20.68342817     2    376   380   381   382
H 347.45080844 22.61090423 -22.22494244     6    379    0    0    0
H 344.76458871 24.59451418 -21.26008998     6    379    0    0    0
C 347.90809848 25.08718512 -18.94928054     2    379   383   384   385
H 346.72225769 25.46483767 -17.23733837     6    382    0    0    0
H 349.49324231 23.98650487 -18.32587803     6    382    0    0    0
C 348.88682247 27.51394066 -20.19682306     2    382   386   387   388
H 350.66034356 28.15629861 -19.26243384     6    385    0    0    0
H 349.56018088 27.08460651 -22.13861996     6    385    0    0    0
C 347.01075938 29.73708054 -20.08463964     1    385   389   390   391
H 346.79907484 30.46294081 -18.18952419     6    388    0    0    0
H 345.26178320 28.98879614 -20.83061145     6    388    0    0    0
H 347.52679578 31.66458414 -20.76986455     6    388    0    0    0
H 374.80185916 15.01383567 -57.81864293     6     393    0    0    0 
C 372.89274765 15.06193016 -58.68416603     1     392    394    395    396
H 372.63725700 17.21964169 -58.95904807     6     393    0    0    0
H 373.15607089 13.96695111 -60.39903002     6     393    0    0    0
C 370.71048957 13.85016293 -57.05246133     2     393    397    398    399
H 371.27863671 12.05140674 -56.28622480     6     396    0    0    0
H 370.28428087 14.73653162 -55.33705303     6     396    0    0    0
C 368.24715597 13.51975254 -58.37538804     2     396    400   401   402
H 367.37858110 15.30313669 -58.84254259     6     399    0    0    0
H 368.46835474 12.38479936 -59.99558574     6     399    0    0    0
C 366.31015929 12.04076857 -56.85565047     2     399   403   404   405
H 367.24799399 10.19300803 -56.47473142     6    402    0    0    0
H 366.12556762 12.99221922 -55.09477234     6    402    0    0    0
C 363.85514694 11.27380526 -58.32305920     2    402   406   407   408
H 363.02814669 12.94683043 -58.92838212     6    405    0    0    0
H 364.35683271 9.98976623 -59.86632606     6    405    0    0    0
C 361.91498620 10.13331576 -56.51080138     2    405   409   410   411
H 362.73687726 8.82654398 -55.11714792     6    408    0    0    0
H 360.86749441 11.63936975 -55.75659090     6    408    0    0    0
C 360.06740447 8.54686898 -58.02924421     2    408   412   413   414
H 359.27815731 9.42334956 -59.67988386     6    411    0    0    0
H 361.20761425 6.98815225 -58.68527849     6    411    0    0    0
C 357.90587784 7.46338911 -56.30311566     2    411   415   416   417
H 358.63547896 7.13243077 -54.43217069     6    414    0    0    0
H 356.43449371 8.88419038 -56.14211587     6    414    0    0    0
C 356.91984105 5.00165614 -57.57542154     2    414   418   419   420
H 356.59727856 5.42363104 -59.60203361     6    417    0    0    0
H 358.48638791 3.57534228 -57.62200533     6    417    0    0    0
C 354.47077204 3.91963760 -56.32536330     2    417   421   422   423
H 354.24778366 4.50631130 -54.34327590     6    420    0    0    0
H 352.87045381 4.68326203 -57.34184017     6    420    0    0    0
C 354.11503977 0.99811400 -56.62173376     2    420   424   425   426
H 352.07866846 0.50381387 -56.15258501     6    423    0    0    0
H 354.58665673 0.26198381 -58.48480828     6    423    0    0    0
C 355.91265399 -0.56755536 -55.04120181     1    423   427   428   429
H 355.51550893 -2.53269144 -54.91863394     6    426    0    0    0
H 355.76865385 0.18775823 -53.19963345     6    426    0    0    0
H 357.83616722 -0.31151935 -55.63950304     6    426    0    0    0
H 345.48708258 21.15592835 -53.00375599     6     431    0    0    0 
C 345.87723588 20.06265505 -54.68489219     1     430    432    433    434
H 345.31436469 18.07494080 -54.28632026     6     431    0    0    0
H 344.71019373 20.86002742 -56.08506957     6     431    0    0    0
C 348.71895025 20.55792988 -55.15725824     2     431    435    436    437
H 348.71611641 22.52135910 -54.91924282     6     434    0    0    0
H 349.95155270 19.83642080 -53.70378847     6     434    0    0    0
C 349.67365090 19.86085585 -57.81186740     2     434    438   439   440
H 349.31450479 17.78519780 -57.79406188     6     437    0    0    0
H 348.68353336 20.80704407 -59.34690094     6     437    0    0    0
C 352.61592657 20.28530808 -58.15495521     2     437   441   442   443
H 353.19815685 22.04057835 -58.92669911     6    440    0    0    0
H 353.61463964 20.32013709 -56.39799010     6    440    0    0    0
C 353.71533269 18.33029926 -60.02890907     2    440   444   445   446
H 353.79012168 16.54986650 -58.92537020     6    443    0    0    0
H 352.46026934 18.04439421 -61.57678709     6    443    0    0    0
C 356.41831684 19.12138186 -60.84399056     2    443   447   448   449
H 355.92890579 20.69402597 -62.07862961     6    446    0    0    0
H 357.31211218 19.80231767 -59.18509539     6    446    0    0    0
C 357.87177078 16.88385305 -62.12500214     2    446   450   451   452
H 358.07178691 15.23032527 -60.83714607     6    449    0    0    0
H 356.53074026 16.23366274 -63.63418078     6    449    0    0    0
C 360.60480788 17.64521209 -62.96462432     2    449   453   454   455
H 360.48154516 19.48567502 -63.92874544     6    452    0    0    0
H 361.69990934 18.17180185 -61.19820914     6    452    0    0    0
C 361.70820767 15.69604881 -64.77508880     2    452   456   457   458
H 361.90855112 13.77398416 -64.00563687     6    455    0    0    0
H 360.29782392 15.43319968 -66.23819366     6    455    0    0    0
C 364.34941055 16.35121167 -65.87501301     2    455   459   460   461
H 364.68142710 15.22906891 -67.56595294     6    458    0    0    0
H 364.25981051 18.36600144 -66.40777516     6    458    0    0    0
C 366.37135844 16.09362277 -63.82176889     2    458   462   463   464
H 365.66366233 16.89949713 -61.98709316     6    461    0    0    0
H 366.89187773 14.12145089 -63.72711058     6    461    0    0    0
C 368.76047555 17.55196149 -64.53525542     1    461   465   466   467
H 368.22149452 19.47827619 -65.17797961     6    464    0    0    0
H 369.72624166 16.88765651 -66.16825588     6    464    0    0    0
H 370.25308020 17.41089745 -63.16864063     6    464    0    0    0
H 340.01650252 31.26436992 -16.13997789     6     469    0    0    0 
C 341.39591446 29.85813961 -15.62904705     1     468    470    471    472
H 342.37260682 29.79956913 -17.35743560     6     469    0    0    0
H 342.63343809 30.83976378 -14.19532719     6     469    0    0    0
C 340.11834953 27.46056038 -14.67536534     2     469    473    474    475
H 341.56270950 26.18663755 -13.84065162     6     472    0    0    0
H 338.81437159 27.81345567 -13.08362349     6     472    0    0    0
C 338.70695983 26.23332272 -16.89526270     2     472    476   477   478
H 337.24838541 27.46958513 -17.51566464     6     475    0    0    0
H 340.04106539 25.87697408 -18.40133234     6     475    0    0    0
C 337.48691874 23.68215105 -16.03261027     2     475   479   480   481
H 338.79919476 22.65667950 -14.85521156     6    478    0    0    0
H 336.09182637 23.91226617 -14.57775753     6    478    0    0    0
C 336.38334821 21.99165240 -18.14046300     2    478   482   483   484
H 335.01313524 23.05270325 -19.30804528     6    481    0    0    0
H 337.92006426 21.32199682 -19.35673411     6    481    0    0    0
C 334.81302313 19.65215635 -17.19008630     2    481   485   486   487
H 336.00717307 18.47337226 -15.93739648     6    484    0    0    0
H 333.13590188 20.38329366 -16.08507264     6    484    0    0    0
C 333.72037949 18.21917610 -19.53031271     2    484   488   489   490
H 332.96701060 19.49045250 -20.90816388     6    487    0    0    0
H 335.18640622 17.37168282 -20.52307031     6    487    0    0    0
C 331.77686549 16.11527846 -18.84744811     2    487   491   492   493
H 332.64325194 14.99659923 -17.17620522     6    490    0    0    0
H 330.02048365 17.03737150 -18.32079640     6    490    0    0    0
C 331.34045839 14.26944886 -20.98126888     2    490   494   495   496
H 330.84112905 15.37652291 -22.73592334     6    493    0    0    0
H 333.29570036 13.46969390 -21.14776499     6    493    0    0    0
C 329.67378083 12.19802761 -20.16430074     2    493   497   498   499
H 330.40460419 11.14741826 -18.48420677     6    496    0    0    0
H 328.01105526 13.05988060 -19.49094849     6    496    0    0    0
C 328.87168999 10.40366779 -22.29727046     2    496   500   501   502
H 328.16358104 11.58192374 -23.82002674     6    499    0    0    0
H 330.52666496 9.58678144 -23.32382182     6    499    0    0    0
C 326.71832475 8.52331414 -21.72742791     1    499   503   504   505
H 326.07484624 7.52122771 -23.34361397     6    502    0    0    0
H 325.03806067 9.59423128 -21.20521986     6    502    0    0    0
H 327.09126389 7.16111057 -20.27070814     6    502    0    0    0
H 324.47817832 1.77407498 -43.90622284     6     507    0    0    0 
C 326.33798967 2.64854535 -43.66137104     1     506    508    509    510
H 325.69049731 4.17164088 -42.32679442     6     507    0    0    0
H 327.61142487 1.30437651 -42.74662381     6     507    0    0    0
C 327.60408780 3.46518726 -46.21053529     2     507    511    512    513
H 328.13989108 1.85681593 -47.49766629     6     510    0    0    0
H 326.25425901 4.92789811 -47.09324535     6     510    0    0    0
C 329.77224260 5.36317995 -45.67501105     2     510    514   515   516
H 328.89831651 7.27068265 -45.40503668     6     513    0    0    0
H 330.69631594 5.17866998 -43.84994289     6     513    0    0    0
C 331.73821370 5.29438499 -47.88658067     2     513   517   518   519
H 332.45640980 3.33030396 -47.99893925     6    516    0    0    0
H 330.93331908 5.65198143 -49.77297009     6    516    0    0    0
C 333.71569473 7.37835273 -47.51776443     2    516   520   521   522
H 332.93860389 9.29845310 -47.50188622     6    519    0    0    0
H 334.49691482 7.31894560 -45.68308886     6    519    0    0    0
C 335.68996167 7.41885152 -49.58679789     2    519   523   524   525
H 336.31100839 5.47606062 -49.87250542     6    522    0    0    0
H 334.76821176 7.85094246 -51.36983482     6    522    0    0    0
C 338.14604346 9.05691371 -48.98951376     2    522   526   527   528
H 337.53630166 11.03528680 -48.60240760     6    525    0    0    0
H 339.19726814 8.48059280 -47.31786517     6    525    0    0    0
C 340.00904954 9.24771241 -51.22230893     2    525   529   530   531
H 340.41344923 7.42116769 -51.72441509     6    528    0    0    0
H 338.91356260 10.05392324 -52.65337741     6    528    0    0    0
C 342.45721212 10.83128963 -50.68192163     2    528   532   533   534
H 341.68251662 12.62852162 -50.15015515     6    531    0    0    0
H 343.47619738 10.01299936 -48.99787470     6    531    0    0    0
C 344.23493435 11.14442328 -52.78955604     2    531   535   536   537
H 344.58509929 9.31610895 -53.70997081     6    534    0    0    0
H 343.30210993 12.27158625 -54.31645591     6    534    0    0    0
C 346.81647213 12.32844404 -52.43236890     2    534   538   539   540
H 346.70786405 14.29491335 -51.86061068     6    537    0    0    0
H 348.06953408 11.32277387 -51.15251116     6    537    0    0    0
C 348.26471999 12.59549016 -54.95805545     1    537   541   542   543
H 350.19966091 13.21417322 -54.68167953     6    540    0    0    0
H 347.28668863 14.01644659 -56.16840737     6    540    0    0    0
H 348.30004917 10.77410891 -56.01944868     6    540    0    0    0
H 364.03847764 15.41604823 -44.01982428     6     545    0    0    0 
C 363.70693975 17.21548348 -44.93285767     1     544    546    547    548
H 363.12272893 16.94162291 -46.88366066     6     545    0    0    0
H 361.98383881 18.13791184 -43.99526455     6     545    0    0    0
C 366.18843160 18.93267862 -45.00127240     2     545    549    550    551
H 366.07175327 20.55986143 -46.21746057     6     548    0    0    0
H 366.13028419 19.91770335 -43.15777178     6     548    0    0    0
C 368.77929228 17.64298881 -45.61828365     2     548    552   553   554
H 368.53014371 15.58274792 -45.61568313     6     551    0    0    0
H 369.38978984 18.23711695 -47.47170714     6     551    0    0    0
C 370.75551056 18.34992980 -43.63193492     2     551   555   556   557
H 370.91508757 20.43132880 -43.53348586     6    554    0    0    0
H 369.99329108 17.73924283 -41.81353927     6    554    0    0    0
C 373.46898918 17.12945064 -44.15582908     2    554   558   559   560
H 373.24259121 15.11960343 -44.10041301     6    557    0    0    0
H 374.23001459 17.46309247 -46.15637209     6    557    0    0    0
C 375.32296721 17.84934578 -42.03758772     2    557   561   562   563
H 375.04199545 19.92053392 -41.74883411     6    560    0    0    0
H 374.85406510 17.07267799 -40.14888791     6    560    0    0    0
C 378.07308370 17.51050825 -43.04987797     2    560   564   565   566
H 378.25990008 15.49643095 -43.67071210     6    563    0    0    0
H 378.18154560 18.44472601 -44.78851238     6    563    0    0    0
C 380.10261127 18.30552232 -41.06818781     2    563   567   568   569
H 381.64800223 19.08182564 -42.20499193     6    566    0    0    0
H 379.12597188 19.65721078 -39.84272003     6    566    0    0    0
C 380.84636966 15.95955370 -39.53766045     2    566   570   571   572
H 379.23264344 14.83590277 -38.91791732     6    569    0    0    0
H 381.86070199 14.74398836 -40.90261251     6    569    0    0    0
C 382.50793595 16.37941805 -37.04087043     2    569   573   574   575
H 384.18934078 17.44502782 -37.48311480     6    572    0    0    0
H 381.60305220 17.76083647 -35.86234627     6    572    0    0    0
C 383.30929877 13.92664784 -35.63350771     2    572   576   577   578
H 384.35684712 12.46977522 -36.74197251     6    575    0    0    0
H 384.81412356 14.47036242 -34.36015011     6    575    0    0    0
C 381.14965814 12.42953285 -34.52818725     1    575   579   580   581
H 379.79026821 13.59903028 -33.52982861     6    578    0    0    0
H 381.90278414 11.05165318 -33.29897520     6    578    0    0    0
H 379.94939208 11.36435396 -35.73025574     6    578    0    0    0
H 356.11489116 12.95542152 -14.68929436     6     583    0    0    0 
C 355.22174654 14.63265469 -14.45777614     1     582    584    585    586
H 353.20213303 14.34106046 -14.90667833     6     583    0    0    0
H 355.55413392 15.32101214 -12.56193473     6     583    0    0    0
C 356.77052070 16.50152229 -15.97943423     2     583    587    588    589
H 357.43984157 15.64868645 -17.87152346     6     586    0    0    0
H 355.85345032 18.36688845 -16.33892618     6     586    0    0    0
C 359.20912991 17.04928890 -14.51620976     2     586    590   591   592
H 358.93777824 17.38159297 -12.54576317     6     589    0    0    0
H 360.29731628 15.29913550 -14.57581301     6     589    0    0    0
C 360.69548678 19.11057302 -15.81236175     2     589   593   594   595
H 360.26806634 18.82549193 -17.93938580     6    592    0    0    0
H 359.85157988 20.76251694 -15.35039638     6    592    0    0    0
C 363.43751743 18.98412187 -15.26699447     2    592   596   597   598
H 363.70000622 18.84314606 -13.23463342     6    595    0    0    0
H 364.16257238 17.37549699 -16.35802186     6    595    0    0    0
C 364.79249961 21.30183098 -16.43542194     2    595   599   600   601
H 364.30223001 21.31512622 -18.42362110     6    598    0    0    0
H 364.05712228 23.10852717 -15.56818285     6    598    0    0    0
C 367.72230368 21.19761598 -16.23053333     2    598   602   603   604
H 368.27064399 21.76703862 -14.33933676     6    601    0    0    0
H 368.23368765 19.21289859 -16.74134983     6    601    0    0    0
C 369.11117105 22.77391813 -18.19307764     2    601   605   606   607
H 368.67389948 21.96500863 -20.07323360     6    604    0    0    0
H 368.25438473 24.57842737 -18.38191758     6    604    0    0    0
C 372.06054980 23.09435192 -17.84832632     2    604   608   609   610
H 372.36379807 23.83068336 -15.96012247     6    607    0    0    0
H 372.83165488 21.18176643 -17.92460293     6    607    0    0    0
C 373.20009035 24.91486179 -19.78398307     2    607   611   612   613
H 372.86763112 24.20742478 -21.65836026     6    610    0    0    0
H 372.44580739 26.91572323 -19.35084950     6    610    0    0    0
C 376.02169855 25.12651980 -19.22021689     2    610   614   615   616
H 376.21884286 25.55380226 -17.13345005     6    613    0    0    0
H 376.85760408 23.23193043 -19.71616421     6    613    0    0    0
C 377.28224731 27.17226031 -20.85298288     1    613   617   618   619
H 376.76521236 26.92144104 -22.80233401     6    616    0    0    0
H 379.31130959 27.13498344 -20.75059268     6    616    0    0    0
H 376.67806572 29.10953894 -20.34268332     6    616    0    0    0
H 363.24169928 -1.07961100 -45.66289266     6     621    0    0    0 
C 362.65326753 0.08388165 -44.04908746     1     620    622    623    624
H 364.26587211 1.28937380 -43.49654963     6     621    0    0    0
H 361.17070083 1.36905880 -44.74145872     6     621    0    0    0
C 362.08018699 -1.41616815 -41.55910685     2     621    625    626    627
H 362.70859151 -0.31032030 -39.89933817     6     624    0    0    0
H 359.95499462 -1.48638064 -41.44303137     6     624    0    0    0
C 363.38030934 -4.11254071 -41.51920696     2     624    628   629   630
H 362.49058092 -5.20846597 -43.07991128     6     627    0    0    0
H 365.43961357 -3.99124075 -42.03503731     6     627    0    0    0
C 362.95758443 -5.45776487 -38.92947001     2     627   631   632   633
H 363.75686085 -4.61932448 -37.30589962     6    630    0    0    0
H 360.97671815 -5.53436707 -38.67304245     6    630    0    0    0
C 363.59913133 -8.29381598 -38.96579273     2    630   634   635   636
H 362.31699850 -9.13007053 -40.24007492     6    633    0    0    0
H 365.47181433 -8.53727547 -39.67814036     6    633    0    0    0
C 363.66264172 -9.53277071 -36.17166389     2    633   637   638   639
H 364.65994989 -8.30932850 -34.82959847     6    636    0    0    0
H 361.72889471 -9.51859358 -35.57368067     6    636    0    0    0
C 364.71445225 -12.26553650 -35.96001002     2    636   640   641   642
H 364.02846034 -13.49197388 -37.32381554     6    639    0    0    0
H 366.77874553 -12.08341386 -36.30525256     6    639    0    0    0
C 364.03822772 -13.30477929 -33.30161566     2    639   643   644   645
H 364.34708568 -11.70614786 -32.03257239     6    642    0    0    0
H 361.93835934 -13.59176053 -33.06072807     6    642    0    0    0
C 365.59142655 -15.57419292 -32.29090359     2    642   646   647   648
H 365.61304906 -16.96958153 -33.85066043     6    645    0    0    0
H 367.56722976 -15.00451019 -32.33183824     6    645    0    0    0
C 364.57799417 -17.03015541 -30.01411696     2    645   649   650   651
H 364.37572731 -15.74455927 -28.41544028     6    648    0    0    0
H 362.74595354 -17.61585943 -30.50744738     6    648    0    0    0
C 366.23499593 -19.20629252 -29.20194653     2    648   652   653   654
H 364.89729717 -20.33888880 -28.16433938     6    651    0    0    0
H 366.77457919 -20.48228658 -30.76601463     6    651    0    0    0
C 368.60551689 -18.21970604 -27.72098186     1    651   655   656   657
H 370.15956376 -17.87599072 -29.02793833     6    654    0    0    0
H 369.30946709 -19.67646911 -26.43360209     6    654    0    0    0
H 368.18912336 -16.51505273 -26.63011759     6    654    0    0    0
H 366.51255011 10.51842492 -19.12101775     6     659    0    0    0 
C 364.70528608 9.68351401 -18.81369859     1     658    660    661    662
H 365.02139280 7.83295196 -18.16732287     6     659    0    0    0
H 363.61194696 10.76027546 -17.45594774     6     659    0    0    0
C 363.17063181 9.48067450 -21.29262737     2     659    663    664    665
H 364.09707238 8.38616117 -22.80749949     6     662    0    0    0
H 361.20734656 8.80733638 -21.06908200     6     662    0    0    0
C 362.84550804 12.12302611 -22.25734784     2     662    666   667   668
H 362.26580010 11.92984644 -24.25000641     6     665    0    0    0
H 361.59734434 13.07360268 -21.03336852     6     665    0    0    0
C 365.33147233 13.78884100 -22.30605131     2     665   669   670   671
H 365.75519126 14.62893504 -20.40945425     6    668    0    0    0
H 366.93554125 12.70483021 -23.13307921     6    668    0    0    0
C 364.78110589 16.16774434 -24.02316961     2    668   672   673   674
H 364.76689349 15.65940632 -26.00474026     6    671    0    0    0
H 362.85501094 16.77459338 -23.56275478     6    671    0    0    0
C 366.58944435 18.46098098 -23.71888992     2    671   675   676   677
H 365.91251672 19.69185299 -25.28197916     6    674    0    0    0
H 366.32731962 19.35060528 -21.92280568     6    674    0    0    0
C 369.40504657 17.75239975 -24.01846422     2    674   678   679   680
H 370.69773793 19.34632104 -23.75158757     6    677    0    0    0
H 369.94753933 16.44802530 -22.47902279     6    677    0    0    0
C 370.27541420 16.78967759 -26.58874244     2    677   681   682   683
H 369.12952028 15.00265733 -26.90449501     6    680    0    0    0
H 369.63103263 18.26219631 -28.01070344     6    680    0    0    0
C 373.03855492 16.13297772 -26.64566011     2    680   684   685   686
H 373.25989017 15.31250087 -24.90432656     6    683    0    0    0
H 372.93483271 14.73030313 -28.21681613     6    683    0    0    0
C 374.73153574 18.53014840 -26.95108952     2    683   687   688   689
H 375.05875024 18.86746866 -28.84462306     6    686    0    0    0
H 373.67536428 20.13893782 -26.29563647     6    686    0    0    0
C 377.36350515 18.37898059 -25.47554128     2    686   690   691   692
H 376.99418080 17.86924357 -23.55267035     6    689    0    0    0
H 378.38341890 16.70301537 -26.18197412     6    689    0    0    0
C 378.86854765 21.02555911 -25.48002582     1    689   693   694   695
H 380.67545138 20.62333688 -24.67822074     6    692    0    0    0
H 377.97570290 22.67589648 -24.54501375     6    692    0    0    0
H 379.18717330 21.53773645 -27.45591975     6    692    0    0    0
H 388.36394799 27.42251563 -50.69468631     6     697    0    0    0 
C 387.57396603 26.96741910 -48.88370969     1     696    698    699    700
H 388.91401498 26.36857308 -47.48013775     6     697    0    0    0
H 386.66162220 28.61307686 -47.97953088     6     697    0    0    0
C 385.55602309 24.97928065 -49.26496462     2     697    701    702    703
H 386.39311089 23.17896567 -49.69457920     6     700    0    0    0
H 384.52250641 24.69121500 -47.46485098     6     700    0    0    0
C 383.61351147 25.90061125 -51.32573497     2     700    704   705   706
H 383.57863226 28.04284447 -51.24215644     6     703    0    0    0
H 384.39636347 25.48616692 -53.21482069     6     703    0    0    0
C 380.92691123 25.15086159 -51.04500029     2     703   707   708   709
H 380.51514318 23.40796827 -50.09562913     6    706    0    0    0
H 380.03616548 26.46184943 -49.76718603     6    706    0    0    0
C 379.30745970 25.49529119 -53.54281873     2    706   710   711   712
H 379.38469796 27.54965001 -53.99054551     6    709    0    0    0
H 379.93101284 24.65106828 -55.18797593     6    709    0    0    0
C 376.61634526 24.47381872 -53.12721989     2    709   713   714   715
H 377.05143571 22.52808053 -52.91334090     6    712    0    0    0
H 375.78753422 24.91763163 -51.32322326     6    712    0    0    0
C 374.91657112 25.02901317 -55.34097113     2    712   716   717   718
H 374.58355587 27.12653573 -55.26360350     6    715    0    0    0
H 375.88888219 24.44952642 -57.02861995     6    715    0    0    0
C 372.49998231 23.59040239 -54.89832822     2    715   719   720   721
H 372.98261096 21.58934607 -54.95530396     6    718    0    0    0
H 371.75895510 23.91608169 -53.01051298     6    718    0    0    0
C 370.32095511 23.97180887 -56.60409399     2    718   722   723   724
H 370.10705350 26.03035626 -57.05065891     6    721    0    0    0
H 370.51095371 22.89540352 -58.37207064     6    721    0    0    0
C 367.76243107 23.17370758 -55.33931102     2    721   725   726   727
H 367.91265912 21.27403579 -54.68581073     6    724    0    0    0
H 367.53037297 24.17003926 -53.53694756     6    724    0    0    0
C 365.44931855 23.30123358 -57.13642036     2    724   728   729   730
H 365.92695435 22.43320265 -59.02458609     6    727    0    0    0
H 363.90937734 22.14921630 -56.24165742     6    727    0    0    0
C 364.48629080 25.99749422 -57.32657549     1    727   731   732   733
H 363.21761276 26.39956916 -58.72040424     6    730    0    0    0
H 366.12328752 27.19852701 -57.74258538     6    730    0    0    0
H 363.80242022 26.71395015 -55.53316932     6    730    0    0    0
H 347.46798033 36.50957271 -31.47446488     6     735    0    0    0 
C 346.85672719 37.18479402 -29.64076718     1     734    736    737    738
H 348.37775585 38.66568996 -29.29778375     6     735    0    0    0
H 345.16406975 38.44094068 -29.53660624     6     735    0    0    0
C 346.83078335 34.99491735 -27.64980274     2     735    739    740    741
H 348.70387675 34.45988580 -26.97473917     6     738    0    0    0
H 345.77053517 35.49774988 -26.00811660     6     738    0    0    0
C 345.46048334 32.56986189 -28.80722433     2     738    742   743   744
H 343.79383603 32.87138114 -29.88122560     6     741    0    0    0
H 346.73285334 31.86269414 -30.28715173     6     741    0    0    0
C 345.05002127 30.57725817 -26.80299854     2     741   745   746   747
H 346.88555579 30.17611592 -26.13207442     6    744    0    0    0
H 343.81591772 31.28175986 -25.22042996     6    744    0    0    0
C 343.72288591 28.15250315 -27.76564232     2    744   748   749   750
H 344.84803689 27.47370704 -29.49555066     6    747    0    0    0
H 343.89325024 26.79174634 -26.16092146     6    747    0    0    0
C 340.95064855 28.63989657 -28.55841527     2    747   751   752   753
H 339.99128307 29.68743269 -27.12982387     6    750    0    0    0
H 340.78697179 29.44114961 -30.46988640     6    750    0    0    0
C 339.65242517 26.00565784 -28.84358322     2    750   754   755   756
H 337.76212547 26.50175423 -29.57245525     6    753    0    0    0
H 340.47686251 24.66142083 -30.15503886     6    753    0    0    0
C 339.16677969 24.60709567 -26.26288870     2    753   757   758   759
H 341.00508010 24.26247979 -25.37389395     6    756    0    0    0
H 337.97664872 25.77378215 -25.01947057     6    756    0    0    0
C 337.88145396 21.90028853 -26.47633010     2    756   760   761   762
H 338.23075682 20.68468534 -28.03117564     6    759    0    0    0
H 338.69813326 20.75031752 -24.99366730     6    759    0    0    0
C 335.01856774 22.04191666 -26.17513547     2    759   763   764   765
H 334.94716245 22.57776055 -24.29683566     6    762    0    0    0
H 334.19807266 23.45081472 -27.59579617     6    762    0    0    0
C 333.71738678 19.53509473 -26.44258078     2    762   766   767   768
H 334.20116110 18.65812083 -28.27523618     6    765    0    0    0
H 334.30076583 18.16026020 -25.01177087     6    765    0    0    0
C 330.83646309 19.72768583 -26.39501369     1    765   769   770   771
H 329.97119953 20.03967984 -24.56176005     6    768    0    0    0
H 330.11813608 17.86905430 -26.88289229     6    768    0    0    0
H 329.99957345 20.99857281 -27.75095385     6    768    0    0    0
H 359.77643196 -15.15806959 -36.41383456     6     773    0    0    0 
C 359.07449587 -16.69210841 -37.58395709     1     772    774    775    776
H 360.49557920 -17.70347360 -38.28948898     6     773    0    0    0
H 357.99805006 -17.87398996 -36.41859651     6     773    0    0    0
C 357.69088551 -15.42367863 -39.81152666     2     773    777    778    779
H 356.75851994 -17.03107624 -40.73138007     6     776    0    0    0
H 356.12245044 -14.09633064 -39.23605718     6     776    0    0    0
C 359.52744971 -13.88657483 -41.42954453     2     776    780   781   782
H 359.51209645 -11.87747575 -40.84285992     6     779    0    0    0
H 361.58647686 -14.48949982 -41.24128855     6     779    0    0    0
C 358.92030137 -14.24034443 -44.26250859     2     779   783   784   785
H 359.85533237 -15.98474709 -44.79455741     6    782    0    0    0
H 356.98699268 -14.12826913 -44.77178261     6    782    0    0    0
C 360.28903968 -12.28375382 -46.02038205     2    782   786   787   788
H 359.71574567 -10.44470065 -45.54167437     6    785    0    0    0
H 362.27182985 -12.37625368 -45.62695866     6    785    0    0    0
C 359.59884638 -12.31496904 -48.82862294     2    785   789   790   791
H 359.71092891 -14.19508364 -49.60636226     6    788    0    0    0
H 357.68391701 -11.84854278 -48.95424350     6    788    0    0    0
C 361.08847011 -10.34280935 -50.33281351     2    788   792   793   794
H 360.16128296 -8.48205560 -50.22444190     6    791    0    0    0
H 363.06362413 -10.45010219 -49.86018493     6    791    0    0    0
C 361.24046903 -11.11082541 -53.16134083     2    791   795   796   797
H 362.38592788 -12.73914286 -53.27738288     6    794    0    0    0
H 359.42105948 -11.54059832 -53.74838466     6    794    0    0    0
C 362.36407049 -8.82350813 -54.47567289     2    794   798   799   800
H 361.01401999 -7.20342673 -54.49229849     6    797    0    0    0
H 364.08810377 -8.00395359 -53.50257027     6    797    0    0    0
C 362.23363715 -8.85942998 -57.36684841     2    797   801   802   803
H 363.24991299 -10.54998170 -58.03370024     6    800    0    0    0
H 360.29185365 -9.09147146 -58.01014099     6    800    0    0    0
C 363.41704607 -6.40835237 -58.55446722     2    800   804   805   806
H 362.54134200 -4.74310183 -57.87662530     6    803    0    0    0
H 365.50695676 -6.28874017 -58.40423190     6    803    0    0    0
C 362.92398084 -6.96950061 -61.44443452     1    803   807   808   809
H 361.01164428 -6.62564185 -62.03857613     6    806    0    0    0
H 363.67071704 -8.81535285 -61.89503583     6    806    0    0    0
H 364.06251136 -5.64056120 -62.56651268     6    806    0    0    0
H 352.96339108 18.37523514 -20.37181372     6     811    0    0    0 
C 351.43086315 17.02138236 -20.55748561     1     810    812    813    814
H 350.05487992 17.37865670 -19.08056041     6     811    0    0    0
H 350.79704434 17.53513735 -22.42581790     6     811    0    0    0
C 352.51771592 14.33744264 -20.68132844     2     811    815    816    817
H 353.76023552 14.00089501 -22.17294581     6     814    0    0    0
H 353.86364679 14.27957775 -19.14716970     6     814    0    0    0
C 350.36950427 12.51780354 -20.36605621     2     814    818   819   820
H 349.46610424 12.86238809 -18.61260973     6     817    0    0    0
H 348.95033057 13.11214294 -21.70366025     6     817    0    0    0
C 351.17784824 9.78386262 -21.02975033     2     817   821   822   823
H 352.30097143 9.99499537 -22.67686837     6    820    0    0    0
H 352.31903760 9.06454577 -19.54851225     6    820    0    0    0
C 349.04362171 7.99075128 -21.69426310     2    820   824   825   826
H 347.69711203 7.85194366 -20.25544783     6    823    0    0    0
H 348.15099463 8.74237772 -23.29563272     6    823    0    0    0
C 349.68727922 5.33667371 -22.72804252     2    823   827   828   829
H 350.77130941 5.60837259 -24.40438578     6    826    0    0    0
H 350.66061054 4.25065716 -21.22963028     6    826    0    0    0
C 347.25210143 3.97830292 -23.08304151     2    826   830   831   832
H 346.38837698 3.68668819 -21.15236004     6    829    0    0    0
H 346.11820832 5.21007830 -23.95232116     6    829    0    0    0
C 347.44982860 1.52569355 -24.66169527     2    829   833   834   835
H 348.12016883 1.97465822 -26.59855445     6    832    0    0    0
H 348.97961562 0.43999431 -23.95434513     6    832    0    0    0
C 345.09190660 0.07059144 -24.79431698     2    832   836   837   838
H 344.10507732 -0.11367397 -23.00388167     6    835    0    0    0
H 343.88752287 0.92201960 -26.22073248     6    835    0    0    0
C 345.45015110 -2.59312735 -26.01037066     2    835   839   840   841
H 346.30555792 -2.50006461 -27.96407490     6    838    0    0    0
H 346.83137527 -3.62594529 -24.83423433     6    838    0    0    0
C 342.96149767 -4.05369068 -26.14741544     2    838   842   843   844
H 342.46669283 -4.40032166 -24.18991909     6    841    0    0    0
H 341.43459024 -3.00863853 -26.85902332     6    841    0    0    0
C 343.11426962 -6.58455256 -27.41487553     1    841   845   846   847
H 343.00548690 -8.27768216 -26.16108007     6    844    0    0    0
H 345.04622895 -6.62015681 -28.23667084     6    844    0    0    0
H 341.78360084 -6.73008169 -28.95824248     6    844    0    0    0
H 385.17192800 17.50773125 -19.95723829     6     849    0    0    0 
C 385.31978366 19.32178913 -18.84537099     1     848    850    851    852
H 387.39557584 19.55336243 -19.00234931     6     849    0    0    0
H 384.35707490 20.74395924 -19.97714928     6     849    0    0    0
C 384.25825649 19.04868202 -16.22419817     2     849    853    854    855
H 385.01295280 17.37270238 -15.30106781     6     852    0    0    0
H 385.11314055 20.72730843 -15.28121894     6     852    0    0    0
C 381.31909318 18.93086598 -16.05762783     2     852    856   857   858
H 380.66911226 20.53118106 -17.25880387     6     855    0    0    0
H 380.70137916 17.30154912 -17.14607961     6     855    0    0    0
C 380.26479101 18.82332294 -13.37490476     2     855   859   860   861
H 381.25639898 17.53497597 -12.13680905     6    858    0    0    0
H 380.90712314 20.53482404 -12.31058520     6    858    0    0    0
C 377.35710973 18.61881173 -13.33152361     2    858   862   863   864
H 376.64468343 20.23219105 -14.37303521     6    861    0    0    0
H 376.80522553 16.98874628 -14.53210917     6    861    0    0    0
C 376.15039638 18.59490683 -10.69233671     2    861   865   866   867
H 376.70894818 16.69455148 -10.07513652     6    864    0    0    0
H 376.85421576 20.04257772 -9.34401125     6    864    0    0    0
C 373.31018240 19.02505034 -10.95358677     2    864   868   869   870
H 372.87383584 20.96177138 -11.70616119     6    867    0    0    0
H 372.54988122 17.71120368 -12.31519948     6    867    0    0    0
C 371.96038886 18.77979918 -8.33075214     2    867   871   872   873
H 372.68897731 17.02486652 -7.66606284     6    870    0    0    0
H 372.56012975 20.18852772 -6.93720121     6    870    0    0    0
C 369.05174791 19.13291423 -8.18706410     2    870   874   875   876
H 368.65547062 21.11329941 -8.67917536     6    873    0    0    0
H 368.18666567 17.85395392 -9.52249029     6    873    0    0    0
C 367.88377807 18.57495889 -5.42684435     2    873   877   878   879
H 368.46626864 16.72420601 -4.73240741     6    876    0    0    0
H 368.56975886 19.77315041 -3.92963817     6    876    0    0    0
C 364.95341968 18.79606496 -5.42439091     2    876   880   881   882
H 364.26708394 20.72499813 -5.49318053     6    879    0    0    0
H 364.54830830 17.99992915 -7.26846748     6    879    0    0    0
C 363.24825561 17.40445935 -3.65498628     1    879   883   884   885
H 363.34750164 18.18462809 -1.94873844     6    882    0    0    0
H 363.55493761 15.43115749 -3.48740781     6    882    0    0    0
H 361.25114208 17.53471048 -4.39755690     6    882    0    0    0
H 355.04660493 1.56312924 -22.68438827     6     887    0    0    0 
C 356.77539164 1.09589891 -23.63009073     1     886    888    889    890
H 357.73021597 1.42194833 -21.87968136     6     887    0    0    0
H 357.19948764 -0.83425917 -24.22791109     6     887    0    0    0
C 357.52451200 3.01656569 -25.60984245     2     887    891    892    893
H 359.57844420 2.76720016 -26.03146821     6     890    0    0    0
H 356.62105265 2.76202953 -27.44915136     6     890    0    0    0
C 357.35713938 5.67940803 -24.79084172     2     890    894   895   896
H 355.49738195 6.29884375 -24.13378800     6     893    0    0    0
H 358.56048923 5.85576238 -23.12523165     6     893    0    0    0
C 358.28641924 7.24799495 -26.89317417     2     893   897   898   899
H 360.33455346 7.43313731 -26.84163108     6    896    0    0    0
H 358.15399856 6.42453811 -28.72374591     6    896    0    0    0
C 357.17997691 10.02171759 -26.92846209     2    896   900   901   902
H 355.19219965 9.84772250 -26.76165713     6    899    0    0    0
H 357.73139708 11.00944169 -25.17828047     6    899    0    0    0
C 358.31482817 11.78659189 -28.88823714     2    899   903   904   905
H 360.34847756 11.73116746 -28.74608274     6    902    0    0    0
H 357.92812538 11.02681420 -30.71123204     6    902    0    0    0
C 357.18601219 14.45211683 -28.93212885     2    902   906   907   908
H 357.64705337 15.48139894 -30.79550905     6    905    0    0    0
H 355.12163406 14.42284242 -28.96013491     6    905    0    0    0
C 358.21546486 15.88943668 -26.61963087     2    905   909   910   911
H 357.73725140 14.80594950 -24.94562328     6    908    0    0    0
H 360.24982665 16.07446761 -26.69315903     6    908    0    0    0
C 356.94948032 18.53775493 -26.30809307     2    908   912   913   914
H 357.60900788 19.70957409 -27.94413089     6    911    0    0    0
H 354.92656820 18.58535548 -26.23808222     6    911    0    0    0
C 357.68581948 19.70639936 -23.84378654     2    911   915   916   917
H 357.53149164 18.41255100 -22.43514317     6    914    0    0    0
H 359.70851647 19.92847648 -23.63912191     6    914    0    0    0
C 356.33509448 22.18507524 -23.05503144     2    914   918   919   920
H 356.58264478 23.64864914 -24.48955764     6    917    0    0    0
H 354.35964793 21.79442603 -23.36489325     6    917    0    0    0
C 356.70177176 23.05713102 -20.29487721     1    917   921   922   923
H 355.28800336 24.51373101 -19.77698280     6    920    0    0    0
H 358.55549694 23.73965930 -19.76956037     6    920    0    0    0
H 356.49982729 21.66762071 -18.95781950     6    920    0    0    0
H 378.77858218 5.20827436 -22.44782924     6     925    0    0    0 
C 378.22132995 3.52633466 -21.45287411     1     924    926    927    928
H 376.32446382 3.12980076 -22.12506934     6     925    0    0    0
H 379.60904359 2.09631252 -21.93922522     6     925    0    0    0
C 378.44291879 3.89897777 -18.53729749     2     925    929    930    931
H 380.49822871 4.13090311 -18.15040740     6     928    0    0    0
H 377.42885538 5.56213128 -18.03388237     6     928    0    0    0
C 377.55046193 1.66934643 -16.90476577     2     928    932   933   934
H 378.90152441 0.10670324 -17.18962627     6     931    0    0    0
H 377.78413462 2.24374904 -14.97063152     6     931    0    0    0
C 374.81557193 0.82110599 -17.33179924     2     931   935   936   937
H 373.39700617 2.29311145 -17.06604459     6    934    0    0    0
H 374.38748740 0.32531807 -19.26700519     6    934    0    0    0
C 373.98956422 -1.47726287 -15.72972357     2    934   938   939   940
H 374.93475621 -3.18831170 -16.39310173     6    937    0    0    0
H 374.61275290 -0.96035499 -13.76388946     6    937    0    0    0
C 371.12746544 -1.85092834 -15.25268957     2    937   941   942   943
H 370.14344592 -2.26241759 -17.06233516     6    940    0    0    0
H 371.08632380 -3.64064145 -14.44097140     6    940    0    0    0
C 369.82687890 0.38308492 -13.89199457     2    940   944   945   946
H 371.19010298 1.00072576 -12.40676997     6    943    0    0    0
H 369.50427577 1.65048064 -15.43913704     6    943    0    0    0
C 367.52015908 -0.49998250 -12.66704204     2    943   947   948   949
H 366.37303077 -1.08639874 -14.23406018     6    946    0    0    0
H 367.89274017 -2.04434937 -11.42153391     6    946    0    0    0
C 366.31802296 1.63554806 -11.11087930     2    946   950   951   952
H 366.94412117 1.74826525 -9.26131413     6    949    0    0    0
H 366.75780131 3.44824632 -12.13781461     6    949    0    0    0
C 363.36899074 1.10542149 -10.97060735     2    949   953   954   955
H 362.81215867 0.82272681 -12.91845029     6    952    0    0    0
H 363.09114095 -0.82965424 -10.29723575     6    952    0    0    0
C 361.72102119 2.99168825 -9.45388322     2    952   956   957   958
H 359.68684707 2.38249501 -9.40731514     6    955    0    0    0
H 362.39298454 3.35068604 -7.53286693     6    955    0    0    0
C 361.92306767 5.56366835 -10.57651693     1    955   959   960   961
H 361.12731252 7.00213292 -9.24451131     6    958    0    0    0
H 361.03192408 5.71995913 -12.40833930     6    958    0    0    0
H 363.93185944 6.05852283 -10.54042740     6    958    0    0    0
H 343.47088626 15.42658713 -37.28826249     6     963    0    0    0 
C 343.66348453 13.38959182 -38.05890391     1     962    964    965    966
H 345.24921525 12.46290395 -36.95728606     6     963    0    0    0
H 341.94544153 12.45716367 -37.73961040     6     963    0    0    0
C 343.99601682 13.52726531 -40.91647183     2     963    967    968    969
H 343.73947229 11.49595535 -41.68344234     6     966    0    0    0
H 342.62405318 14.84848344 -41.65772233     6     966    0    0    0
C 346.71191992 14.42651585 -41.59184374     2     966    970   971   972
H 347.00902512 16.26427856 -40.68769821     6     969    0    0    0
H 348.22898142 13.20452457 -40.91896775     6     969    0    0    0
C 347.34677519 14.66462552 -44.36754835     2     969   973   974   975
H 347.34687105 12.77932354 -45.15329172     6    972    0    0    0
H 345.76990470 15.47053114 -45.38297890     6    972    0    0    0
C 349.92949383 15.84868563 -45.08766195     2    972   976   977   978
H 350.12764276 17.67550918 -44.44026097     6    975    0    0    0
H 351.45977928 14.78983969 -43.94513567     6    975    0    0    0
C 350.65702125 15.34292112 -47.75166421     2    975   979   980   981
H 350.63454017 13.31883179 -48.07586864     6    978    0    0    0
H 349.13051189 16.02203279 -48.98150515     6    978    0    0    0
C 353.32905107 16.32266856 -48.22686602     2    978   982   983   984
H 353.27233100 18.34104181 -48.07979174     6    981    0    0    0
H 354.79702622 15.71927010 -46.87773048     6    981    0    0    0
C 353.92467266 15.53360016 -51.01611615     2    981   985   986   987
H 354.72890646 13.55422269 -50.85320637     6    984    0    0    0
H 352.10332284 15.53435929 -52.06825228     6    984    0    0    0
C 355.84576163 17.22162705 -52.37605919     2    984   988   989   990
H 356.08762566 16.42000596 -54.39750477     6    987    0    0    0
H 355.26483432 19.16922190 -52.59180110     6    987    0    0    0
C 358.57035107 17.03523498 -51.27167301     2    987   991   992   993
H 358.51388301 18.09970513 -49.51513456     6    990    0    0    0
H 359.27050374 15.32437994 -50.61159778     6    990    0    0    0
C 360.53688841 18.39015896 -52.90384122     2    990   994   995   996
H 360.38883028 17.80479148 -54.93375181     6    993    0    0    0
H 360.17998299 20.47815840 -52.77623681     6    993    0    0    0
C 363.21601516 18.07323748 -51.87762786     1    993   997   998   999
H 363.40283531 19.18965481 -50.10181285     6    996    0    0    0
H 364.69379226 18.85284417 -52.97460998     6    996    0    0    0
H 363.37628261 16.11561911 -51.35367036     6    996    0    0    0
H 336.24868188 16.05723236 -35.58789344     6     1001    0    0    0 
C 336.67059965 17.78743243 -34.57347548     1     1000    1002    1003    1004
H 335.01529365 18.91948934 -34.57950006     6     1001    0    0    0
H 337.25871132 17.36065333 -32.64654026     6     1001    0    0    0
C 338.92858607 19.11301268 -36.00026486     2     1001    1005    1006    1007
H 339.03190642 21.11399108 -35.19953037     6     1004    0    0    0
H 340.64862999 18.26088860 -35.25905841     6     1004    0    0    0
C 338.95981817 19.20642837 -38.84969156     2     1004    1008   1009   1010
H 338.93179996 17.28356414 -39.68647141     6     1007    0    0    0
H 337.15637894 20.15013684 -39.44580662     6     1007    0    0    0
C 341.36366318 20.48899155 -39.79824074     2     1007   1011   1012   1013
H 341.19166952 22.56017978 -39.18250676     6    1010    0    0    0
H 342.94182765 19.58197145 -38.95530206     6    1010    0    0    0
C 341.66380705 20.61676421 -42.80042245     2    1010   1014   1015   1016
H 341.81523394 18.88544996 -43.59491146     6    1013    0    0    0
H 339.94127437 21.32148342 -43.50666452     6    1013    0    0    0
C 343.80822021 22.21610094 -43.53108349     2    1013   1017   1018   1019
H 343.79602099 24.14387714 -42.74328497     6    1016    0    0    0
H 345.43704737 21.05532069 -42.86510781     6    1016    0    0    0
C 343.95288706 22.43563170 -46.40315558     2    1016   1020   1021   1022
H 343.65857512 20.65926644 -47.33148092     6    1019    0    0    0
H 342.41834528 23.62014105 -47.19140262     6    1019    0    0    0
C 346.64074388 23.40546140 -47.17438497     2    1019   1023   1024   1025
H 348.21867536 22.56929023 -45.97782990     6    1022    0    0    0
H 347.21953383 23.01955067 -49.12020637     6    1022    0    0    0
C 346.93147263 26.29913800 -47.17501740     2    1022   1026   1027   1028
H 346.88989217 27.12896231 -49.01603584     6    1025    0    0    0
H 345.27677705 27.23387983 -46.47215452     6    1025    0    0    0
C 349.12097485 27.23141242 -45.68402842     2    1025   1029   1030   1031
H 348.91034146 27.00453042 -43.70855108     6    1028    0    0    0
H 350.77523418 26.23220693 -46.59008703     6    1028    0    0    0
C 349.66133196 30.18498242 -46.08497888     2    1028   1032   1033   1034
H 349.41594845 30.48538168 -48.15354704     6    1031    0    0    0
H 348.26762366 31.44482555 -45.17299672     6    1031    0    0    0
C 352.48272434 31.06891083 -45.47806114     1    1031   1035   1036   1037
H 352.85426842 32.85130386 -46.32004292     6    1034    0    0    0
H 353.95007118 29.77289683 -46.13742217     6    1034    0    0    0
H 352.85073498 31.29160541 -43.51644489     6    1034    0    0    0
H 354.25599864 -6.71352563 -41.42381532     6     1039    0    0    0 
C 354.39650660 -8.50644505 -40.23162760     1     1038    1040    1041    1042
H 353.15135549 -9.96740026 -40.96754087     6     1039    0    0    0
H 356.27740657 -9.23765447 -40.75110147     6     1039    0    0    0
C 354.10486577 -8.04337909 -37.44421767     2     1039    1043    1044    1045
H 355.19086421 -6.55821173 -36.50480467     6     1042    0    0    0
H 352.22282316 -7.33638831 -37.12375477     6     1042    0    0    0
C 354.56480569 -10.46913106 -35.83147294     2     1042    1046   1047   1048
H 353.22490558 -11.95335611 -36.33487786     6     1045    0    0    0
H 356.36942189 -11.15024941 -36.33978615     6     1045    0    0    0
C 354.22317730 -9.87833902 -33.10782238     2     1045   1049   1050   1051
H 355.72552613 -8.64351877 -32.36305161     6    1048    0    0    0
H 352.33361168 -9.03761848 -32.90624038     6    1048    0    0    0
C 354.43092742 -12.36168793 -31.52048661     2    1048   1052   1053   1054
H 352.99315118 -13.72739124 -32.16001037     6    1051    0    0    0
H 356.15130349 -13.16409595 -31.84568824     6    1051    0    0    0
C 354.11600087 -12.13190561 -28.73046503     2    1051   1055   1056   1057
H 355.74648126 -11.14385648 -27.84925821     6    1054    0    0    0
H 352.48476012 -10.79727164 -28.43124687     6    1054    0    0    0
C 353.62286308 -14.75649144 -27.56631977     2    1054   1058   1059   1060
H 352.02709244 -15.71281784 -28.50102600     6    1057    0    0    0
H 355.25718282 -16.19922505 -28.02293709     6    1057    0    0    0
C 353.05050966 -14.84366137 -24.79986096     2    1057   1061   1062   1063
H 354.63899455 -14.06933813 -23.63315875     6    1060    0    0    0
H 351.57779235 -13.49381448 -24.34277762     6    1060    0    0    0
C 352.18780936 -17.63243288 -24.22060159     2    1060   1064   1065   1066
H 350.81223914 -18.37676168 -25.49081127     6    1063    0    0    0
H 353.91452196 -18.72025414 -24.20191245     6    1063    0    0    0
C 350.96574787 -17.74637686 -21.50304071     2    1063   1067   1068   1069
H 352.37255322 -17.50391346 -20.10109386     6    1066    0    0    0
H 349.68935896 -16.11078236 -21.31370371     6    1066    0    0    0
C 349.63087225 -20.19871761 -21.06806897     2    1066   1070   1071   1072
H 348.28229359 -20.28674803 -22.63964313     6    1069    0    0    0
H 350.79185295 -21.87404033 -21.21702612     6    1069    0    0    0
C 347.86103768 -20.35496558 -18.88458994     1    1069   1073   1074   1075
H 347.17149784 -22.25337548 -18.72561280     6    1072    0    0    0
[...]
 1619      H     352.2632902300   -14.3547921200   -60.5891796300
 1620      H     355.6232652700   -13.2721687900   -60.4267811400
 1621      C     354.9010689500   -16.1779005400   -63.0216844500
 1622      H     356.6969589800   -17.0567964800   -63.1915533400
 1623      H     353.6115830200   -17.7842797600   -63.0770526500
 1624      C     354.4872139700   -14.3805648400   -65.1938794900
 1625      H     352.5991423400   -13.5993830400   -65.2626079300
 1626      H     355.7647337300   -12.7451402000   -65.2646375700
 1627      C     355.0078947500   -15.7048256700   -67.7363372100
 1628      H     356.8045754700   -16.6518749900   -67.7679436500
 1629      H     353.5251406500   -17.1296525500   -67.8414573500
 1630      C     354.7915471500   -13.6815330000   -69.9979109600
 1631      H     353.0352597400   -12.6444674000   -69.9721206400
 1632      H     356.1703377800   -12.1535856700   -69.8317070400
 1633      C     354.9728006000   -15.0997560100   -72.5218703200
 1634      H     356.9677508400   -15.5312226800   -72.7573892200
 1635      H     354.2989757400   -17.0052601800   -72.3132966600
 1636      C     353.8570944700   -13.8579357700   -74.9534032600
 1637      H     351.8880387000   -13.1779644900   -74.7430615200
 1638      H     355.0113212000   -12.1487953100   -75.5165875400
 1639      C     354.0213935500   -15.7320673800   -77.2239957200
 1640      H     356.0474967100   -16.3805155200   -77.3393789800
 1641      H     352.6557923400   -17.2651329600   -76.9675828600
 1642      C     353.5632914200   -14.0419353000   -79.6243875900
 1643      H     351.7131601300   -13.2875862200   -79.6307522500
 1644      H     353.8239267000   -15.2271198700   -81.3053008600
 1645      H     354.9729223400   -12.4810766900   -79.6931994900
 1646      H     325.8248903200    -5.8136724500   -47.4189723400
 1647      C     327.4813510400    -5.0956429700   -46.4908890400
 1648      H     326.6160089800    -3.3205895100   -45.9056280000
 1649      H     327.9010564100    -6.2869912100   -44.8970342100
 1650      C     329.9027781700    -4.7464721900   -48.0372140600
 1651      H     331.2056545000    -3.3934892900   -47.2357203800
 1652      H     330.7388957600    -6.5854399000   -47.8697976200
 1653      C     329.4181444800    -4.1339253100   -50.7834125100
 1654      H     328.0214142400    -5.4873527600   -51.3945063600
 1655      H     328.6427222900    -2.2804986800   -50.8566914800
 1656      C     331.8069424700    -4.3763206900   -52.4825938900
 1657      H     333.1835589900    -5.7780913800   -51.9104504100
 1658      H     331.0731795900    -5.0961612100   -54.2524335500
 1659      C     333.0129123700    -1.6305496200   -52.5632345900
 1660      H     331.5340851700    -0.3519367300   -53.3115148200
 1661      H     333.2969057600    -1.0935151200   -50.5337516800
 1662      C     335.4158450500    -1.6624312100   -54.1036432800
 1663      H     336.6107033000    -3.3069914500   -53.4793499100
 1664      H     334.9521339500    -2.5155574900   -55.9730824600
 1665      C     336.6461193300     0.8414366000   -54.4802795100
 1666      H     335.3219568700     2.4529051500   -54.9367815500
 1667      H     337.4907693800     1.3879197400   -52.6878975900
 1668      C     338.6130880200     0.6408751900   -56.6471703900
 1669      H     339.9134744800    -0.9173491000   -56.2595872300
 1670      H     337.6114194400     0.1807456600   -58.5066771100
 1671      C     340.2446820000     2.9100197500   -57.3348151000
 1672      H     339.3059540600     4.6109101000   -57.9160294800
 1673      H     341.3442434800     3.3409009800   -55.5724199300
 1674      C     342.1403225800     2.0087155800   -59.2290713900
 1675      H     342.9427594100     0.1997905900   -58.6769844300
 1676      H     341.2907654300     1.8452730600   -60.9824661900
 1677      C     344.2963525900     3.9239993100   -59.3531499300
 1678      H     343.5825383400     5.8418549800   -59.7300583700
 1679      H     345.1336159200     4.1905655000   -57.5034571600
 1680      C     346.6237650800     3.2971169000   -60.8471598500
 1681      H     346.7104290400     1.6482082400   -62.0752295600
 1682      H     348.2129495500     3.1005197200   -59.5448184900
 1683      H     346.9183529600     4.9343461700   -62.0462111200
 1684      H     337.5329931900     7.8259365700   -37.7605711800
 1685      C     337.6603062100     7.1451192400   -39.7921027000
 1686      H     336.0926678800     6.0445092300   -40.0447991900
 1687      H     337.5604141700     8.5806435400   -41.1818858000
 1688      C     340.2427551100     5.9255969100   -39.9997992000
 1689      H     341.5376416900     7.4533932300   -39.6228363100
 1690      H     340.4804758100     4.8035307200   -38.3884832800
 1691      C     340.8585895800     4.4633715600   -42.3310317000
 1692      H     339.5831677700     2.8340570700   -42.5052036600
 1693      H     340.7868002900     5.6261385000   -43.9632449300
 1694      C     343.6934100100     3.5074726500   -42.0904563100
 1695      H     344.1336887200     3.0248289800   -40.1793419100
 1696      H     343.9749334900     1.6433077100   -42.8905563600
 1697      C     345.5943063600     5.6796638100   -42.8428011200
 1698      H     344.9731958900     6.2346153800   -44.6090795300
 1699      H     345.2536222200     7.3487633800   -41.5992585800
 1700      C     348.3804017400     4.6402484500   -42.6866408000
 1701      H     349.6415257400     6.3789065400   -42.5521399300
 1702      H     348.5730378800     3.8301592000   -40.7906271000
 1703      C     349.1946262700     2.7036118200   -44.6049129200
 1704      H     348.0795696100     1.0690764300   -44.4303194800
 1705      H     349.0196720000     3.4306852400   -46.7104266800
 1706      C     352.0437116000     1.9899225500   -44.3295951500
 1707      H     353.2887421200     3.4666701700   -45.1346322000
 1708      H     352.4191857600     1.8714277400   -42.4354601700
 1709      C     352.8986220000    -0.5569796600   -45.7135834500
 1710      H     351.9062909800    -2.2844014000   -45.1557050400
 1711      H     352.5844811300    -0.3320163700   -47.6163754900
 1712      C     355.5666256100    -1.1662602100   -45.1610500900
 1713      H     356.8573327700     0.0627535400   -46.0184714900
 1714      H     355.7108932200    -1.3073129500   -43.0697279400
 1715      C     356.3114904400    -3.8554609800   -46.1040797000
 1716      H     358.1947689500    -4.3737540800   -45.4926034400
 1717      H     355.0715799400    -5.2685528200   -45.3690117100
 1718      C     356.0573554700    -4.2166656300   -49.0122410500
 1719      H     354.3028950300    -3.3449937100   -49.7867829100
 1720      H     356.0314532700    -6.1460607300   -49.4353992300
 1721      H     357.7071932100    -3.5534161000   -50.0211678400
 1722      H     354.5296467700    31.4637201800   -58.4289073700
 1723      C     354.6268975500    29.5328459500   -59.2830142200
 1724      H     352.6567909400    28.9149504800   -59.5345575200
 1725      H     355.4480114500    29.4380991700   -61.1075214100
 1726      C     356.2058981700    27.8055722300   -57.5384467600
 1727      H     356.1538470000    25.9731798400   -58.5706103500
 1728      H     358.1511999700    28.6466839000   -57.5032332000
 1729      C     355.0219497200    27.5124198400   -54.8358338000
 1730      H     354.6737331600    29.4199357400   -54.0186982000
 1731      H     353.2138483300    26.6906182700   -54.8637806700
 1732      C     356.6451363400    25.9805934700   -52.9313280700
 1733      H     356.8717650600    24.0838996600   -53.6460059700
 1734      H     358.5682992400    26.9837528000   -52.8409170800
 1735      C     355.4779580400    25.6478073600   -50.3098481900
 1736      H     355.2265589000    27.5054159400   -49.5940603100
 1737      H     353.5540626800    24.9939826800   -50.4051170400
 1738      C     357.0972811500    24.3228244300   -48.1801086800
 1739      H     357.5143043100    22.4665315900   -48.8920395500
 1740      H     358.8594540400    25.2797334200   -47.6697560900
 1741      C     355.7665629500    24.2079633600   -45.4995889000
 1742      H     355.1597264500    26.0885486100   -44.8661922500
 1743      H     354.0418207100    23.2956022900   -45.7308190000
 1744      C     357.2403004300    22.8115845500   -43.4745411100
 1745      H     358.1991734800    21.1798026500   -44.0360161300
 1746      H     358.8749758200    23.9746957800   -42.9731529400
 1747      C     355.7824330400    22.3459949700   -41.0138886600
 1748      H     355.0963887600    24.0184924500   -40.2272619400
 1749      H     354.0224710600    21.1824770000   -41.5447286100
 1750      C     357.4516976900    21.0402940900   -39.0649309500
 1751      H     358.2363258300    19.2498792900   -39.6316869800
 1752      H     359.1017956500    22.2557725900   -38.6256662500
 1753      C     355.9575741000    20.8502594000   -36.5340867300
 1754      H     355.2535215000    22.7607639000   -36.0794574900
 1755      H     354.1740087800    19.8824743500   -36.7705912700
 1756      C     357.5097231500    20.0353855600   -34.1863204100
 1757      H     356.5260973400    20.0530451800   -32.3139597000
 1758      H     359.1646194700    21.3154212000   -34.0200029500
 1759      H     358.5521257400    18.2437450700   -34.5629356000
 1760      H     366.3926320000    32.5593001000   -32.1207163900
 1761      C     366.1932387600    34.0747614600   -33.6044731800
 1762      H     364.1542683400    34.2747726800   -34.0691067900
 1763      H     366.8775588900    35.9015566300   -33.1128360300
 1764      C     367.4160973100    33.5763818200   -36.1569543700
 1765      H     368.9674907200    32.3194941500   -35.8125847700
 1766      H     366.2208973500    32.3809599300   -37.4111002000
 1767      C     368.1241338400    35.9645043900   -37.5144663500
 1768      H     366.5618208900    37.2271110200   -37.4077154900
 1769      H     369.8282421900    36.6294992900   -36.3686462700
 1770      C     368.6549067800    35.4618289200   -40.2676600200
 1771      H     369.9243696800    34.0081439700   -40.6835705000
 1772      H     367.0252816900    35.0008286000   -41.3907694700
 1773      C     369.6669194200    38.0026069400   -41.5291767700
 1774      H     368.3627002400    39.4478484900   -40.9953719400
 1775      H     371.6552811400    38.5324298200   -41.0343715700
 1776      C     369.7611315500    38.0707668300   -44.4364375900
 1777      H     367.8320976400    37.5990619000   -45.1123386500
 1778      H     370.2305309500    39.8960431200   -44.9153620800
 1779      C     371.4715379900    35.9682569300   -45.4836234700
 1780      H     373.3257005500    35.7984121900   -44.7000107600
 1781      H     370.4272652400    34.0963509600   -45.1209275300
 1782      C     371.6483898500    36.2698154300   -48.3995038300
 1783      H     372.3556739900    38.0689831700   -49.0407827400
 1784      H     373.2220741400    35.1227613000   -48.8873544600
 1785      C     369.3786906100    35.3637379800   -49.9217279600
 1786      H     369.1429522500    33.3216629200   -49.4715678600
 1787      H     367.5282101300    36.3242693900   -49.4645779200
 1788      C     369.8360488400    35.2554318300   -52.7697218200
 1789      H     370.4021928000    37.1723634100   -53.3085625000
 1790      H     371.4869587100    34.0837135500   -53.2677064800
 1791      C     367.5597891200    34.6538741200   -54.5193664900
 1792      H     368.2028070700    34.7394836400   -56.4615343300
 1793      H     367.0612412800    32.6756606600   -54.2697325200
 1794      C     365.3925365300    36.5957714600   -54.0693126600
 1795      H     365.6272919500    38.5690011400   -54.7068112200
 1796      H     364.8147038500    36.8675347300   -52.1878663400
 1797      H     363.8920883500    35.7114716500   -54.9030125900
 1798      H     382.2975147600    -7.4369433100   -37.7544399000
 1799      C     381.7237479400    -6.7318002700   -35.8428593700
 1800      H     383.1467966400    -7.5350449900   -34.5184642600
 1801      H     381.8648432100    -4.7577445000   -35.5727423400
 1802      C     378.9222832600    -7.3994902100   -35.4767066600
 1803      H     377.7830834000    -6.7899911400   -37.0250945300
 1804      H     378.9113329400    -9.5003568500   -35.5334391900
 1805      C     378.1083137300    -6.1792078800   -33.0687584600
 1806      H     379.1202166200    -6.5978492100   -31.3493838900
 1807      H     378.6424111600    -4.1178850500   -33.3398819300
 1808      C     375.2880215700    -6.0263435000   -32.6819878600
 1809      H     374.1198660100    -6.3841530600   -34.3709374200
 1810      H     374.6157354500    -7.5664880900   -31.4958607900
 1811      C     374.2807580600    -3.5800724500   -31.5699325600
 1812      H     375.4938992600    -2.3895022900   -30.4560337000
 1813      H     373.9604923500    -2.3986096100   -33.0473988900
 1814      C     371.6325202400    -4.0825826000   -30.2388275000
 1815      H     370.7254176900    -5.6448650100   -31.3079223000
 1816      H     372.2710413600    -4.9000646300   -28.4171205400
 1817      C     370.1595151700    -1.6522794400   -29.9099943600
 1818      H     371.3748943100    -0.0572850600   -29.4141629400
 1819      H     369.3368944500    -1.0036361400   -31.7607950600
 1820      C     368.0372935100    -2.0591621200   -28.0182484100
 1821      H     366.4485665000    -3.3537306300   -28.4836936800
 1822      H     368.9582171900    -3.2682476400   -26.6717511800
 1823      C     367.1442700100     0.1317951700   -26.3494814600
 1824      H     368.7957486900     1.2075801500   -25.7705753300
 1825      H     366.3112951300     1.6433114400   -27.3489570300
 1826      C     365.9098157700    -0.4041641700   -23.8110033600
 1827      H     364.4491867700    -1.9524219700   -24.1281052200
 1828      H     367.3772118600    -1.4365418500   -22.5754919300
 1829      C     364.5432586200     1.7526923600   -22.6066217200
 1830      H     365.7980401500     3.3616699000   -22.6077837400
 1831      H     362.8187936400     2.0647900000   -23.7737739800
 1832      C     363.7046112600     1.2036367200   -19.9283274300
 1833      H     365.3539047100     1.3207829400   -18.6713693400
 1834      H     362.7285148600    -0.5335472900   -20.0574861100
 1835      H     362.2712321500     2.5366784800   -19.2359002400
 1836      H     365.6818067500     4.9174644000   -30.6865069500
 1837      C     365.0878155800     6.8847474400   -30.4737732800
 1838      H     365.6893071800     7.9383635800   -32.0784090100
 1839      H     363.0933723000     7.0454363200   -30.2853661200
 1840      C     366.2644915600     7.7505619100   -28.0020719500
 1841      H     365.6000328900     9.7334100000   -27.6488050100
 1842      H     365.7246677900     6.5701456200   -26.4924427400
 1843      C     369.0660787000     7.8936869000   -28.0333903000
 1844      H     369.8424854900     6.3090916600   -29.0963239200
 1845      H     369.7528445500     9.4341258700   -28.9370241700
 1846      C     370.0458410000     8.0565951000   -25.4234812600
 1847      H     368.9840341200     9.4295000900   -24.4890902100
 1848      H     369.9204928500     6.0510714500   -24.7225589300
 1849      C     372.7616675800     8.7561450100   -25.1661232600
 1850      H     374.0380714200     7.4427800800   -26.1701306000
 1851      H     373.0345818300    10.5481108400   -26.1354522800
 1852      C     373.7153798800     8.7455728100   -22.2758386700
 1853      H     372.9006808100     7.2299324300   -21.1889846000
 1854      H     375.7756073000     8.2491101200   -22.1362591700
 1855      C     373.2930226900    11.1951987000   -20.8645039600
 1856      H     374.5622345100    12.6604041800   -21.7911011700
 1857      H     371.3870678400    11.6466103800   -21.3524375600
 1858      C     373.4478048700    11.2215348100   -17.9609156900
 1859      H     372.3595963000    12.9369006800   -17.5556141200
 1860      H     372.2647957900     9.7478280100   -17.1888252900
 1861      C     376.1411418500    11.0837692100   -17.0480191800
 1862      H     377.1491375900     9.5550474200   -17.9610587300
 1863      H     377.0034992200    12.7927719800   -17.5443113200
 1864      C     376.3682524900    10.8269277700   -14.1048252600
 1865      H     375.3538538800    12.1151609400   -12.9384826200
 1866      H     375.5933598600     8.9947281800   -13.6090284300
 1867      C     379.1553809100    10.9146537500   -13.1160650000
 1868      H     380.0201703900     9.6680395200   -14.4949027200
 1869      H     379.9843542400    12.8240988700   -13.2395548400
 1870      C     379.5801743600    10.2676177800   -10.3697288600
 1871      H     381.5866952200    10.2844409100   -10.0899018000
 1872      H     379.0518033800     8.4884445500    -9.8311058800
 1873      H     378.6031664400    11.5641386500    -9.2568084000
 1874      H     380.9562945800    13.1754376300   -51.5190885800
 1875      C     378.9974462000    12.3701330900   -51.9299433300
 1876      H     378.3014965400    13.1366087500   -53.6233955100
 1877      H     379.3898650600    10.2492324000   -51.9095890900
 1878      C     377.2309279700    12.5147524100   -49.7634825000
 1879      H     377.7862281100    11.5886285300   -48.1068623300
 1880      H     376.5709772500    14.3521150600   -49.2804795800
 1881      C     374.7393417300    11.1497080700   -50.3634965200
 1882      H     374.1143998400    11.6289803800   -52.2135279000
 1883      H     375.1840656900     9.0545581300   -50.4021780400
 1884      C     372.3812529800    12.0351282800   -48.8472835400
 1885      H     372.4842620900    11.5629011600   -46.8918978600
 1886      H     371.9189120100    14.0304107600   -48.8336279800
 1887      C     369.9958030900    10.8720923400   -50.0368376500
 1888      H     369.9739469900    11.2611283400   -52.1017930700
 1889      H     370.3077852600     8.8919293300   -49.7345469500
 1890      C     367.6360650900    11.4621359000   -48.7532983700
 1891      H     367.7998495700    11.4276871300   -46.7515647300
 1892      H     366.8773253000    13.3166743100   -49.2377534800
 1893      C     365.4664489000     9.8115689000   -49.4914854400
 1894      H     365.3937488900     9.4687264700   -51.5767517800
 1895      H     365.8019814300     7.8370710900   -48.9752607200
 1896      C     362.8121516800    10.5453674000   -48.4254630300
 1897      H     363.2159004100    10.9131476900   -46.4581985000
 1898      H     362.3769077600    12.3156327300   -49.3102797000
 1899      C     360.5906499500     8.7509219500   -48.9305659100
 1900      H     360.3921263600     8.7170786800   -50.9765068600
 1901      H     360.8273106700     6.7380526600   -48.4930155400
 1902      C     358.1081759900     9.7045754400   -47.7422446600
 1903      H     358.1834113000     9.3602872500   -45.7549774900
 1904      H     357.8715346000    11.7877857800   -47.8996211200
 1905      C     355.6930370600     8.4035765200   -48.9190712700
 1906      H     355.5143271000     8.8264443000   -50.9400430700
 1907      H     356.0965160000     6.4010069300   -48.7795446500
 1908      C     353.4913714200     9.2230008400   -47.3472912400
 1909      H     353.5811171900    11.1463433100   -46.6308645300
 1910      H     353.0962068400     7.8339159400   -45.8417592500
 1911      H     351.8488320500     9.0385646600   -48.4915030500
 ----------------------------------------------------------------
 Nuclear Repulsion Energy =           0.00000000 hartrees
 There are       48 alpha and       48 beta electrons
 Total job time:  29.35s(wall), 25.50s(cpu) 
 Sun Jul  3 09:42:34 2022

        *************************************************************
        *                                                           *
        *  Thank you very much for using Q-Chem.  Have a nice day.  *
        *                                                           *
        *************************************************************


