                  Welcome to Q-Chem
     A Quantum Leap Into The Future Of Chemistry


 Q-Chem 5.4 (devel), Q-Chem, Inc., Pleasanton, CA (2021)

 E. Epifanovsky,  A. T. B. Gilbert,  Xintian Feng,  Joonho Lee,  Yuezhi Mao,  
 N. Mardirossian,  P. Pokhilko,  A. White,  M. Wormit,  M. P. Coons,  
 A. L. Dempwolff,  Zhengting Gan,  D. Hait,  P. R. Horn,  L. D. Jacobson,  
 I. Kaliman,  J. Kussmann,  A. W. Lange,  Ka Un Lao,  D. S. Levine,  Jie Liu,  
 S. C. McKenzie,  A. F. Morrison,  K. Nanda,  F. Plasser,  D. R. Rehn,  
 M. L. Vidal,  Zhi-Qiang You,  Ying Zhu,  B. Alam,  B. Albrecht,  
 A. Aldossary,  E. Alguire,  J. H. Andersen,  D. Barton,  K. Begam,  A. Behn,  
 Y. A. Bernard,  E. J. Berquist,  H. Burton,  A. Carreras,  K. Carter-Fenk,  
 R. Chakraborty,  A. D. Chien,  K. D. Closser,  V. Cofer-Shabica,  
 S. Dasgupta,  Jia Deng,  M. de Wergifosse,  M. Diedenhofen,  Hainam Do,  
 S. Ehlert,  Po-Tung Fang,  S. Fatehi,  Qingguo Feng,  T. Friedhoff,  
 J. Gayvert,  Qinghui Ge,  G. Gidofalvi,  M. Goldey,  J. Gomes,  
 C. Gonzalez-Espinoza,  S. Gulania,  A. Gunina,  M. W. D. Hanson-Heine,  
 P. H. P. Harbach,  A. W. Hauser,  M. F. Herbst,  M. Hernandez Vera,  
 M. Hodecker,  Z. C. Holden,  S. Houck,  Xunkun Huang,  Kerwin Hui,  
 B. C. Huynh,  M. Ivanov,  Hyunjun Ji,  Hanjie Jiang,  B. Kaduk,  S. Kaehler,  
 K. Khistyaev,  Jaehoon Kim,  P. Klunzinger,  Z. Koczor-Benda,  
 Joong Hoon Koh,  D. Kosenkov,  L. Koulias,  T. Kowalczyk,  C. M. Krauter,  
 K. Kue,  A. Kunitsa,  T. Kus,  A. Landau,  K. V. Lawler,  D. Lefrancois,  
 S. Lehtola,  Rain Li,  Yi-Pei Li,  Jiashu Liang,  M. Liebenthal,  
 Hung-Hsuan Lin,  You-Sheng Lin,  Fenglai Liu,  Kuan-Yu Liu,  
 M. Loipersberger,  A. Luenser,  A. Manjanath,  P. Manohar,  E. Mansoor,  
 S. F. Manzer,  Shan-Ping Mao,  A. V. Marenich,  T. Markovich,  S. Mason,  
 S. A. Maurer,  P. F. McLaughlin,  M. F. S. J. Menger,  J.-M. Mewes,  
 S. A. Mewes,  P. Morgante,  J. W. Mullinax,  K. J. Oosterbaan,  G. Paran,  
 Alexander C. Paul,  Suranjan K. Paul,  F. Pavosevic,  Zheng Pei,  S. Prager,  
 E. I. Proynov,  E. Ramos,  B. Rana,  A. E. Rask,  A. Rettig,  R. M. Richard,  
 F. Rob,  E. Rossomme,  T. Scheele,  M. Scheurer,  M. Schneider,  
 N. Sergueev,  S. M. Sharada,  W. Skomorowski,  D. W. Small,  C. J. Stein,  
 Yu-Chuan Su,  E. J. Sundstrom,  Zhen Tao,  J. Thirman,  T. Tsuchimochi,  
 N. M. Tubman,  S. P. Veccham,  O. Vydrov,  J. Wenzel,  J. Witte,  A. Yamada,  
 Kun Yao,  S. Yeganeh,  S. R. Yost,  A. Zech,  Igor Ying Zhang,  Xing Zhang,  
 Yu Zhang,  D. Zuev,  A. Aspuru-Guzik,  A. T. Bell,  N. A. Besley,  
 K. B. Bravaya,  B. R. Brooks,  D. Casanova,  Jeng-Da Chai,  S. Coriani,  
 C. J. Cramer,  A. E. DePrince, III,  R. A. DiStasio Jr.,  A. Dreuw,  
 B. D. Dunietz,  T. R. Furlani,  W. A. Goddard III,  S. Grimme,  
 S. Hammes-Schiffer,  T. Head-Gordon,  W. J. Hehre,  Chao-Ping Hsu,  
 T.-C. Jagau,  Yousung Jung,  A. Klamt,  Jing Kong,  D. S. Lambrecht,  
 WanZhen Liang,  N. J. Mayhall,  C. W. McCurdy,  J. B. Neaton,  
 C. Ochsenfeld,  J. A. Parkhill,  R. Peverati,  V. A. Rassolov,  Yihan Shao,  
 L. V. Slipchenko,  T. Stauch,  R. P. Steele,  J. E. Subotnik,  
 A. J. W. Thom,  A. Tkatchenko,  D. G. Truhlar,  T. Van Voorhis,  
 T. A. Wesolowski,  K. B. Whaley,  H. L. Woodcock III,  P. M. Zimmerman,  
 S. Faraji,  P. M. W. Gill,  M. Head-Gordon,  J. M. Herbert,  A. I. Krylov

 Additional authors for Version 5.4.1: 
 S. Kotaru,  Shaozhi Li,  Xiangyuan Li,  F. Matz,  A. Molle,  Haisheng Ren,  
 Yingli Su,  Hung-Yi Tsai,  C. Utku,  Fang Wang

 Contributors to earlier versions of Q-Chem not listed above: 
 R. D. Adamson,  B. Austin,  R. Baer,  J. Baker,  G. J. O. Beran,  
 K. Brandhorst,  S. T. Brown,  E. F. C. Byrd,  A. K. Chakraborty,  
 G. K. L. Chan,  Chun-Min Chang,  Yunqing Chen,  C.-L. Cheng,  
 Siu Hung Chien,  D. M. Chipman,  D. L. Crittenden,  H. Dachsel,  
 R. J. Doerksen,  A. D. Dutoi,  R. G. Edgar,  J. Fosso-Tande,  
 L. Fusti-Molnar,  D. Ghosh,  A. Ghysels,  A. Golubeva-Zadorozhnaya,  
 J. Gonthier,  M. S. Gordon,  S. R. Gwaltney,  G. Hawkins,  J. E. Herr,  
 A. Heyden,  S. Hirata,  E. G. Hohenstein,  G. Kedziora,  F. J. Keil,  
 C. Kelley,  Jihan Kim,  R. A. King,  R. Z. Khaliullin,  P. P. Korambath,  
 W. Kurlancheek,  A. Laurent,  A. M. Lee,  M. S. Lee,  S. V. Levchenko,  
 Ching Yeh Lin,  D. Liotard,  E. Livshits,  R. C. Lochan,  I. Lotan,  
 L. A. Martinez-Martinez,  P. E. Maslen,  N. Nair,  D. P. O'Neill,  
 D. Neuhauser,  E. Neuscamman,  C. M. Oana,  R. Olivares-Amaya,  R. Olson,  
 T. M. Perrine,  B. Peters,  P. A. Pieniazek,  A. Prociuk,  Y. M. Rhee,  
 J. Ritchie,  M. A. Rohrdanz,  E. Rosta,  N. J. Russ,  H. F. Schaefer III,  
 M. W. Schmidt,  N. E. Schultz,  S. Sharma,  N. Shenvi,  C. D. Sherrill,  
 A. C. Simmonett,  A. Sodt,  T. Stein,  D. Stuck,  K. S. Thanthiriwatte,  
 V. Vanovschi,  L. Vogt,  Tao Wang,  A. Warshel,  M. A. Watson,  
 C. F. Williams,  Q. Wu,  X. Xu,  Jun Yang,  W. Zhang,  Yan Zhao

 Please cite Q-Chem as follows:
 Y. Shao et al., Mol. Phys. 113, 184-215 (2015)
 DOI: 10.1080/00268976.2014.952696

 Q-Chem 5.4.1 for Intel X86 EM64T Linux

 Parts of Q-Chem use Armadillo 9.900.5 (Nocturnal Misbehaviour).
 http://arma.sourceforge.net/

 Q-Chem begins on Fri Jul  1 20:00:03 2022  

 Host: p09r14n09.grace.hpc.yale.internal
0

     Scratch files written to /home/tl686/scratch60/qchem_dev/scratch/qchem8969//
 Processing $rem in /home/tl686/qchem_dev/qchem/config/preferences:
 Processing $rem in /home/tl686/.qchemrc:
Applying user defined connections for MM calculations

 Checking the input file for inconsistencies... 	...done.

--------------------------------------------------------------
User input:
--------------------------------------------------------------
$molecule
0   1
 Fe 74.16842989 34.25276281 -43.12962104    -1  0   0   0   0
C 72.71754109 33.63315170 -40.02393569    -2  0   0   0   0 
C 74.60791457 37.04049508 -45.20431389    -2  0   0   0   0
C 77.07917088 35.28676135 -41.39944401    -2  0   0   0   0
C 75.94898210 31.61941462 -44.58416612    -2  0   0   0   0
C 71.14940699 33.64841725 -44.43045918    -2  0   0   0   0
O 71.98924187 33.26340314 -38.01231316    -3  0   0   0   0
O 74.84522155 38.81689217 -46.49377900    -3  0   0   0   0 
O 78.83003927 35.89642860 -40.26520068    -3  0   0   0   0
O 76.90959342 29.87379937 -45.50032310    -3  0   0   0   0 
O 69.16838158 33.39789581 -45.35095247    -3  0   0   0   0
H 78.24176874 21.34997751 -20.67013912      6     13    0    0    0 
C 76.26871179 21.82513750 -20.28973009     1     12    14    15    16
H 75.93457976 21.63891321 -18.18304202     6     13    0    0    0
H 75.86692042 23.75653959 -20.81325533     6     13    0    0    0
C 74.38954148 20.04212738 -21.57386964     2     13    17    18    19
H 74.53472875 18.15808883 -20.77598570     6     16    0    0    0
H 72.51801512 20.70962504 -21.16190183     6     16    0    0    0
C 74.86809898 19.64355502 -24.37510922     2     16    20   21   22
H 74.44527768 21.56350521 -25.22406990     6     19    0    0    0
H 76.82717928 19.31486331 -24.66933233     6     19    0    0    0
C 73.82933078 17.31415118 -25.60609397     2     19   23   24   25
H 74.10766534 15.79996884 -24.30987964     6    22    0    0    0
H 71.73236231 17.49869241 -25.68283155     6    22    0    0    0
C 74.67492410 16.97076937 -28.38472713     2    22   26   27   28
H 73.82110931 18.53025667 -29.40670350     6    25    0    0    0
H 76.57891839 17.35075824 -28.60025538     6    25    0    0    0
C 74.11169403 14.33769626 -29.50061462     2    25   29   30   31
H 74.55117025 12.76202209 -28.12449281     6    28    0    0    0
H 72.20941675 14.07717446 -29.73633425     6    28    0    0    0
C 75.56429756 13.93401129 -32.02079988     2    28   32   33   34
H 75.17842314 15.76336646 -33.18962103     6    31    0    0    0
H 77.58592654 13.95112736 -31.61366815     6    31    0    0    0
C 74.64801836 11.41890699 -33.10199988     2    31   35   36   37
H 76.25063135 10.09690384 -32.52232507     6    34    0    0    0
H 73.01007510 10.79579242 -32.06444166     6    34    0    0    0
C 74.40209446 11.41084557 -35.88106301     2    34   38   39   40
H 73.01498417 12.81307793 -36.57359311     6    37    0    0    0
H 76.37388205 11.98261282 -36.70208816     6    37    0    0    0
C 73.93815256 8.80186811 -36.91395894     2    37   41   42   43
H 75.60018496 7.64183269 -36.48449175     6    40    0    0    0
H 72.37820016 7.83861639 -35.91191022     6    40    0    0    0
C 73.43817010 8.92110195 -39.72495985     2    40   44   45   46
H 72.40006589 10.64016376 -40.17408588     6    43    0    0    0
H 75.16597518 9.02207033 -40.69107936     6    43    0    0    0
C 72.05677830 6.55385966 -40.81259981     1    43   47   48   49
H 72.91007506 4.83015718 -40.17152646     6    46    0    0    0
H 72.13668501 6.40516064 -42.90920796     6    46    0    0    0
H 69.91256877 6.30466935 -40.59756597     6    46    0    0    0
H 69.31128950 25.06456994 -44.50470162     6     51    0    0    0 
C 70.32012947 26.73611290 -43.85602270     1     50    52    53    54
H 71.78650991 27.52475295 -45.05061366     6     51    0    0    0
H 68.70925616 28.04614242 -44.06218200     6     51    0    0    0
C 71.27078041 26.67913112 -40.99262702     2     51    55    56    57
H 72.14432906 28.45029555 -40.63230445     6     54    0    0    0
H 69.90712393 26.59406898 -39.51018856     6     54    0    0    0
C 73.42910971 24.74561597 -40.88996410     2     54    58   59   60
H 74.82253818 25.41060364 -42.31924949     6     57    0    0    0
H 73.97146247 24.56766361 -38.93425271     6     57    0    0    0
C 72.63578933 22.08506995 -41.80957784     2     57   61   62   63
H 70.71866681 21.49911652 -41.14618670     6    60    0    0    0
H 72.71555119 22.30973342 -43.84354972     6    60    0    0    0
C 74.49579615 19.93687443 -41.11742256     2    60   64   65   66
H 76.28429690 20.14398835 -41.92291898     6    63    0    0    0
H 74.88777038 20.19451030 -39.16136190     6    63    0    0    0
C 73.32176876 17.27438990 -41.60908186     2    63   67   68   69
H 74.62433050 15.80656360 -40.86658174     6    66    0    0    0
H 71.70389553 16.96931335 -40.38395349     6    66    0    0    0
C 72.73276314 16.62536565 -44.32847785     2    66   70   71   72
H 71.05846232 17.74854980 -44.91759425     6    69    0    0    0
H 74.32294825 17.16582152 -45.46895286     6    69    0    0    0
C 71.94741588 13.88210085 -44.99165297     2    69   73   74   75
H 73.50954841 12.63612063 -44.57552084     6    72    0    0    0
H 70.35598402 13.40499862 -43.80605454     6    72    0    0    0
C 70.98904796 13.74855231 -47.80531999     2    72   76   77   78
H 69.20623131 14.97295584 -47.91111633     6    75    0    0    0
H 72.55665706 14.64959400 -48.94094425     6    75    0    0    0
C 70.69923837 11.01648698 -48.83053052     2    75   79   80   81
H 72.34978554 9.82157966 -48.69669291     6    78    0    0    0
H 69.26289457 10.10479527 -47.69865423     6    78    0    0    0
C 70.04054449 11.07249013 -51.63373154     2    78   82   83   84
H 68.51011578 12.38103937 -51.92743840     6    81    0    0    0
H 71.76795094 11.59464267 -52.70824351     6    81    0    0    0
C 69.10225033 8.60140520 -52.73986329     1    81   85   86   87
H 69.10336219 8.64258328 -54.88499435     6    84    0    0    0
H 67.29407648 8.04549024 -51.95719244     6    84    0    0    0
H 70.36371988 7.02943755 -52.35971060     6    84    0    0    0
H 96.94158808 12.53620083 -28.35965311     6     89    0    0    0 
C 96.51154245 10.70048623 -28.84070564     1     88    90    91    92
H 97.73059577 10.37938527 -30.38300529     6     89    0    0    0
H 97.16067701 9.49410157 -27.27700687     6     89    0    0    0
C 93.65882982 10.10898589 -29.51729955     2     89    93    94    95
H 92.79714341 10.36947183 -27.72864022     6     92    0    0    0
H 92.81769567 11.51395968 -30.82237428     6     92    0    0    0
C 93.14224534 7.27795355 -29.83078235     2     92    96   97   98
H 93.78080397 6.53332977 -31.58599629     6     95    0    0    0
H 94.30822983 6.52376710 -28.25507670     6     95    0    0    0
C 90.41556182 6.58518784 -29.60691894     2     95   99   100   101
H 89.31607027 7.52596110 -28.06529741     6    98    0    0    0
H 89.56395401 7.10285030 -31.33313551     6    98    0    0    0
C 89.76947048 3.71596755 -29.24546726     2    98   102   103   104
H 91.32947161 2.55139429 -28.44375503     6    101    0    0    0
H 88.08683386 3.82481133 -28.00852267     6    101    0    0    0
C 89.24757754 2.29851922 -31.82860632     2    101   105   106   107
H 87.80411820 3.40238912 -32.87073275     6    104    0    0    0
H 90.98443847 1.96437655 -32.73215903     6    104    0    0    0
C 88.29069247 -0.37199937 -31.45483501     2    104   108   109   110
H 89.68572155 -1.54066986 -30.52377431     6    107    0    0    0
H 86.58733686 -0.12189579 -30.32460885     6    107    0    0    0
C 87.71191261 -1.80920969 -33.80708499     2    107   111   112   113
H 86.28052466 -0.69200301 -34.92473105     6    110    0    0    0
H 89.35947218 -1.73414270 -35.20508127     6    110    0    0    0
C 87.11046418 -4.71828731 -33.62336431     2    110   114   115   116
H 88.88683773 -5.70957776 -33.48067095     6    113    0    0    0
H 85.97524806 -5.13007088 -31.90702433     6    113    0    0    0
C 85.56314090 -5.50538867 -36.02005985     2    113   117   118   119
H 83.92145152 -4.30159497 -36.07665408     6    116    0    0    0
H 86.51284148 -5.03591605 -37.83799808     6    116    0    0    0
C 84.83890205 -8.33040716 -35.60202967     2    116   120   121   122
H 86.52877406 -9.39783104 -35.19688729     6    119    0    0    0
H 83.70625369 -8.51329386 -33.92243856     6    119    0    0    0
C 83.51146584 -9.47656223 -37.90520459     1    119   123   124   125
H 82.79422963 -11.28684041 -37.71653601     6    122    0    0    0
H 84.76990405 -9.21606472 -39.54229659     6    122    0    0    0
H 82.00063311 -8.22920623 -38.23656299     6    122    0    0    0
H 102.47541199 25.69016733 -29.45089942     6     127    0    0    0 
C 102.77537976 25.66296813 -31.44018190     1     126    128    129    130
H 104.56991838 26.56138182 -31.83292604     6     127    0    0    0
H 103.08121545 23.62173508 -31.97153463     6     127    0    0    0
C 100.63898498 27.22383049 -32.62826967     2     127    131    132    133
H 98.93591624 26.42076776 -32.14253245     6     130    0    0    0
H 100.84438766 29.07908514 -31.67531605     6     130    0    0    0
C 100.76255616 27.52944269 -35.49757338     2     130    134   135   136
H 102.79063699 27.83719550 -35.89309411     6     133    0    0    0
H 100.29748198 25.55525399 -36.20062952     6     133    0    0    0
C 99.20390368 29.62023703 -36.56317794     2     133   137   138   139
H 97.40630534 29.17558219 -35.68332284     6    136    0    0    0
H 99.84929231 31.35091650 -35.74272774     6    136    0    0    0
C 99.07034657 29.82386864 -39.54445773     2    136   140   141   142
H 100.87512337 30.55836095 -40.21362344     6    139    0    0    0
H 98.53763413 28.14980691 -40.42450233     6    139    0    0    0
C 96.95909339 31.99039232 -40.22914867     2    139   143   144   145
H 95.17323984 31.51865440 -39.13840336     6    142    0    0    0
H 97.64226906 33.86215601 -39.41142618     6    142    0    0    0
C 96.27863916 31.99340289 -43.10318791     2    142   146   147   148
H 98.08781730 32.17161154 -44.09220366     6    145    0    0    0
H 95.57042639 30.06669939 -43.72394261     6    145    0    0    0
C 94.21848600 33.97305390 -43.70519663     2    145   149   150   151
H 92.51832902 33.06620512 -43.13323949     6    148    0    0    0
H 94.53109905 35.67964213 -42.57808971     6    148    0    0    0
C 93.81092445 34.31645732 -46.58581478     2    148   152   153   154
H 95.40624387 35.08009212 -47.51898177     6    151    0    0    0
H 93.47563391 32.40845206 -47.36841392     6    151    0    0    0
C 91.46935605 35.97145612 -47.13320244     2    151   155   156   157
H 90.57109744 35.43618646 -48.93014522     6    154    0    0    0
H 90.06226592 35.56107136 -45.63503480     6    154    0    0    0
C 91.77929685 38.86091779 -46.69925841     2    154   158   159   160
H 92.67975880 39.06628163 -44.84629039     6    157    0    0    0
H 93.13651628 39.42763730 -48.19306241     6    157    0    0    0
C 89.35261798 40.23446356 -47.11727250     1    157   161   162   163
H 89.20466720 41.91921916 -46.10112640     6    160    0    0    0
H 87.67738348 39.15406241 -46.32818109     6    160    0    0    0
H 89.07844836 40.76027916 -49.01975128     6    160    0    0    0
H 101.39175538 2.07388828 -48.45121622     6     165    0    0    0 
C 101.16198333 3.64062969 -47.03715614     1     164    166    167    168
H 99.21093737 3.67975735 -46.40326115     6     165    0    0    0
H 102.22317108 3.23321406 -45.35476506     6     165    0    0    0
C 102.20616165 6.11438977 -48.05491895     2     165    169    170    171
H 104.16614233 5.87116890 -48.40450603     6     168    0    0    0
H 101.06976952 6.54051687 -49.79565964     6     168    0    0    0
C 101.79489061 8.17400626 -46.15693728     2     168    172   173   174
H 99.84811342 8.46381559 -45.51122951     6     171    0    0    0
H 103.05693290 7.97268384 -44.52236235     6     171    0    0    0
C 102.46408138 10.53946305 -47.50687179     2     171   175   176   177
H 104.40654326 10.22559574 -48.28548705     6    174    0    0    0
H 101.31541671 10.72566448 -49.21234277     6    174    0    0    0
C 102.71122933 12.74336443 -45.63359015     2    174   178   179   180
H 101.14002951 12.89957191 -44.49030247     6    177    0    0    0
H 104.37905923 12.41371677 -44.47030310     6    177    0    0    0
C 103.26146096 15.03800288 -47.08439185     2    177   181   182   183
H 104.99698912 14.74435179 -48.03906185     6    180    0    0    0
H 101.97020503 15.24255598 -48.66706818     6    180    0    0    0
C 103.42765180 17.56469429 -45.58101321     2    180   184   185   186
H 101.44944697 18.05085263 -45.42000330     6    183    0    0    0
H 104.02815860 17.52723160 -43.62270340     6    183    0    0    0
C 105.07539912 19.60229251 -46.91857077     2    183   187   188   189
H 107.08610263 19.01372366 -46.87653774     6    186    0    0    0
H 104.58175325 19.77679117 -48.87969934     6    186    0    0    0
C 104.86648825 22.11741399 -45.43258593     2    186   190   191   192
H 102.92775967 22.79984084 -45.38814480     6    189    0    0    0
H 105.31107233 21.86885917 -43.48320194     6    189    0    0    0
C 106.58328374 24.18268439 -46.55945955     2    189   193   194   195
H 108.52025172 23.60951821 -46.79755139     6    192    0    0    0
H 105.78224229 24.75452066 -48.36754985     6    192    0    0    0
C 106.81854396 26.65141610 -44.89839306     2    192   196   197   198
H 104.90634125 27.41683789 -44.44239231     6    195    0    0    0
H 107.60951405 25.98622328 -43.05054824     6    195    0    0    0
C 108.50682359 28.74219407 -46.09395420     1    195   199   200   201
H 109.04405653 29.90056857 -44.52990002     6    198    0    0    0
H 107.48763420 30.01810277 -47.45593518     6    198    0    0    0
H 110.14609877 28.14020615 -47.05983485     6    198    0    0    0
H 96.52467790 13.76347509 -58.60726456     6     203    0    0    0 
C 97.11664221 13.89269069 -60.64977495     1     202    204    205    206
H 97.08455803 15.85892004 -61.36308509     6     203    0    0    0
H 99.04774995 13.15863798 -60.70563711     6     203    0    0    0
C 95.58811813 11.98922291 -62.32786324     2     203    207    208    209
H 96.37213384 11.62970424 -64.14888316     6     206    0    0    0
H 95.42765826 10.35341039 -61.15809783     6     206    0    0    0
C 92.98145055 13.12587904 -62.66401706     2     206    210   211   212
H 92.19098680 11.66302941 -63.79804691     6     209    0    0    0
H 91.79120750 13.13340489 -60.93063722     6     209    0    0    0
C 92.92786088 15.62415583 -64.11091945     2     209   213   214   215
H 93.41826660 17.27160012 -62.99207832     6    212    0    0    0
H 94.58557416 15.60931399 -65.36516373     6    212    0    0    0
C 90.43155529 16.05828771 -65.50236887     2    212   216   217   218
H 89.94074385 14.25914423 -66.46241584     6    215    0    0    0
H 88.85094033 16.57640919 -64.42607363     6    215    0    0    0
C 90.43230130 18.28261252 -67.42391546     2    215   219   220   221
H 89.79505976 19.76394220 -66.27088495     6    218    0    0    0
H 92.39017690 18.60229844 -67.91421628     6    218    0    0    0
C 88.70400409 17.76265157 -69.72108288     2    218   222   223   224
H 89.16949866 16.06146661 -70.86043418     6    221    0    0    0
H 86.90115235 17.45432380 -68.82923895     6    221    0    0    0
C 88.50122406 20.02107401 -71.36677601     2    221   225   226   227
H 88.31012437 21.73961051 -70.25193619     6    224    0    0    0
H 90.35313565 20.07472544 -72.33094047     6    224    0    0    0
C 86.33447814 19.82063195 -73.33638149     2    224   228   229   230
H 86.83822198 18.31026858 -74.73096556     6    227    0    0    0
H 84.45787494 19.23917648 -72.61428915     6    227    0    0    0
C 86.03717733 22.23203605 -74.85979734     2    227   231   232   233
H 85.14779034 23.71586399 -73.81275859     6    230    0    0    0
H 87.89676482 23.03782355 -75.42506309     6    230    0    0    0
C 84.63801516 21.89432940 -77.26581931     2    230   234   235   236
H 85.63989337 20.70332975 -78.54235574     6    233    0    0    0
H 83.16862727 20.53779257 -76.97581694     6    233    0    0    0
C 83.46498994 24.32419597 -78.20249516     1    233   237   238   239
H 83.27308802 24.23292203 -80.24430653     6    236    0    0    0
H 84.86487304 25.83663905 -77.89315860     6    236    0    0    0
H 81.75778177 24.81979534 -77.17396595     6    236    0    0    0
H 65.55229407 0.49026996 -49.83975911     6     241    0    0    0 
C 67.23979331 1.37607776 -50.76636064     1     240    242    243    244
H 67.19419916 0.47441550 -52.63969979     6     241    0    0    0
H 67.20620300 3.49149779 -50.84180808     6     241    0    0    0
C 69.61305501 0.72858677 -49.13842051     2     241    245    246    247
H 69.78099560 -1.18397697 -48.58551646     6     244    0    0    0
H 71.42345502 0.87841694 -50.27910016     6     244    0    0    0
C 69.87767980 2.23678491 -46.75931614     2     244    248   249   250
H 71.85539083 2.38769419 -46.36781119     6     247    0    0    0
H 69.26641063 4.13164851 -47.06074990     6     247    0    0    0
C 68.35363044 1.23224968 -44.50600311     2     247   251   252   253
H 68.50068261 2.71644266 -43.06689513     6    250    0    0    0
H 66.49141850 0.72481755 -44.99256234     6    250    0    0    0
C 69.66273246 -1.23254371 -43.49943963     2    250   254   255   256
H 69.60974034 -2.70350158 -44.84855565     6    253    0    0    0
H 71.74110968 -0.87857073 -42.93233290     6    253    0    0    0
C 68.68534429 -2.16621054 -41.01067668     2    253   257   258   259
H 69.94118357 -3.63494904 -40.35209594     6    256    0    0    0
H 68.69914121 -0.73074796 -39.53670519     6    256    0    0    0
C 65.94978467 -3.04484126 -41.24009039     2    256   260   261   262
H 64.63410357 -1.43109045 -41.47893238     6    259    0    0    0
H 65.98014256 -4.23833381 -42.91157758     6    259    0    0    0
C 65.01308825 -4.38772996 -38.81650905     2    259   263   264   265
H 66.04844724 -6.01443201 -38.56833874     6    262    0    0    0
H 65.39374148 -3.42293452 -37.17226474     6    262    0    0    0
C 62.24421018 -5.03779128 -39.03323412     2    262   266   267   268
H 61.41138864 -4.99593163 -37.02556590     6    265    0    0    0
H 61.43007473 -3.56792245 -40.16441946     6    265    0    0    0
C 61.99204622 -7.58310877 -40.34680485     2    265   269   270   271
H 63.15894851 -7.76929351 -42.02883657     6    268    0    0    0
H 62.74776384 -8.94584980 -39.07979671     6    268    0    0    0
C 59.05941566 -7.86194889 -41.07955253     2    268   272   273   274
H 57.95170267 -7.57550961 -39.35478325     6    271    0    0    0
H 58.34277843 -6.22319850 -42.00017273     6    271    0    0    0
C 58.47829051 -10.24430678 -42.61964304     1    271   275   276   277
H 59.62716122 -10.36659880 -44.24177454     6    274    0    0    0
H 56.78140714 -9.92908705 -43.83468555     6    274    0    0    0
H 58.52337859 -12.01511949 -41.53929595     6    274    0    0    0
H 85.58958577 -1.37465083 -50.46935650     6     279    0    0    0 
C 85.12835541 0.32563886 -51.57861451     1     278    280    281    282
H 83.42049381 1.36058245 -50.87665901     6     279    0    0    0
H 86.67231644 1.64092084 -51.36053702     6     279    0    0    0
C 84.73240283 -0.37354170 -54.40085173     2     279    283    284    285
H 86.37891023 -1.28656146 -55.14885959     6     282    0    0    0
H 83.04796001 -1.56133869 -54.53541731     6     282    0    0    0
C 84.12661962 2.01576724 -55.91542427     2     282    286   287   288
H 82.91845524 3.02393399 -54.49570541     6     285    0    0    0
H 85.83065007 3.19364641 -56.28171294     6     285    0    0    0
C 82.73603321 1.40616979 -58.35730381     2     285   289   290   291
H 83.89968337 0.29041693 -59.73791355     6    288    0    0    0
H 81.15774807 0.06883768 -57.70464341     6    288    0    0    0
C 81.64340594 3.91186998 -59.55664504     2    288   292   293   294
H 80.24001258 4.49626747 -58.23844120     6    291    0    0    0
H 82.87478141 5.60255772 -59.62237197     6    291    0    0    0
C 80.23760473 3.52655496 -62.03953550     2    291   295   296   297
H 81.65262883 2.76730609 -63.38193325     6    294    0    0    0
H 78.95619071 2.08457672 -61.72538801     6    294    0    0    0
C 78.78179718 5.81520274 -62.90943051     2    294   298   299   300
H 77.24783366 6.63690484 -61.64799865     6    297    0    0    0
H 80.11782636 7.38749711 -63.21855100     6    297    0    0    0
C 77.33274908 5.21217697 -65.54245434     2    297   301   302   303
H 78.78476871 5.38356938 -67.07822761     6    300    0    0    0
H 76.71627296 3.32235580 -65.64081257     6    300    0    0    0
C 75.26669449 6.98218730 -66.40280730     2    300   304   305   306
H 74.20047246 7.17903189 -64.59678584     6    303    0    0    0
H 76.32683748 8.75056337 -67.07013723     6    303    0    0    0
C 73.65270073 5.95993138 -68.56843336     2    303   307   308   309
H 74.81689194 5.22150835 -70.09199482     6    306    0    0    0
H 72.44148315 4.46281022 -67.85869999     6    306    0    0    0
C 71.98366141 8.03610449 -69.69567486     2    306   310   311   312
H 70.22260560 8.46556276 -68.47304301     6    309    0    0    0
H 73.06807086 9.82433060 -70.11653108     6    309    0    0    0
C 70.71643673 6.80787085 -72.03478836     1    309   313   314   315
H 69.22825786 5.53755096 -71.48508500     6    312    0    0    0
H 72.02374301 5.79538701 -73.13151028     6    312    0    0    0
H 69.90182718 8.09811696 -73.24112881     6    312    0    0    0
H 91.38265755 18.12546743 -29.33739358     6     317    0    0    0 
C 91.84022349 18.26889951 -31.39921319     1     316    318    319    320
H 93.87115272 18.97298822 -31.38544092     6     317    0    0    0
H 91.64963477 16.50390618 -32.49230322     6     317    0    0    0
C 90.20224634 20.22048609 -32.65315459     2     317    321    322    323
H 90.49590617 20.26028676 -34.75329671     6     320    0    0    0
H 88.19685106 19.50562994 -32.46491726     6     320    0    0    0
C 90.71986155 22.82735586 -31.54684409     2     320    324   325   326
H 90.43933657 22.94468212 -29.47436907     6     323    0    0    0
H 92.77988580 23.32396160 -32.05175055     6     323    0    0    0
C 88.83931614 24.62894894 -32.78398292     2     323   327   328   329
H 89.37205682 24.84650478 -34.87835251     6    326    0    0    0
H 87.00957730 23.82398425 -32.81701811     6    326    0    0    0
C 88.63131738 27.30952031 -31.57051400     2    326   330   331   332
H 87.39912119 26.93635269 -29.93225608     6    329    0    0    0
H 90.47966542 28.03727084 -30.72988442     6    329    0    0    0
C 87.28692571 29.17652358 -33.24879467     2    329   333   334   335
H 85.48714542 28.52084657 -34.24440887     6    332    0    0    0
H 86.70090527 30.71663728 -31.89815565     6    332    0    0    0
C 88.95557519 30.54609624 -35.16143360     2    332   336   337   338
H 90.28170713 31.57800192 -34.08544446     6    335    0    0    0
H 90.12825975 29.16192345 -36.37087237     6    335    0    0    0
C 87.54775190 32.34271502 -36.77026701     2    335   339   340   341
H 86.07780949 31.36547350 -37.92354525     6    338    0    0    0
H 86.51342979 33.51731847 -35.54062883     6    338    0    0    0
C 89.20566922 34.11730828 -38.45091562     2    338   342   343   344
H 90.33348873 35.11384572 -37.18875813     6    341    0    0    0
H 90.38128833 33.05506108 -39.69216109     6    341    0    0    0
C 87.58650473 35.89755393 -40.02991784     2    341   345   346   347
H 88.86020723 36.79871131 -41.40699272     6    344    0    0    0
H 86.33668939 34.80384707 -41.13091917     6    344    0    0    0
C 86.16457160 37.95296030 -38.41427813     2    344   348   349   350
H 84.47755527 36.94153399 -37.56261544     6    347    0    0    0
H 87.48307919 38.80681306 -37.13237900     6    347    0    0    0
C 85.05112499 39.91749050 -40.28607308     1    347   351   352   353
H 83.81071001 40.85265588 -38.92441511     6    350    0    0    0
H 84.06299733 38.77326567 -41.77342310     6    350    0    0    0
H 86.44500095 41.17454932 -41.02703901     6    350    0    0    0
H 79.48174398 6.85540680 -46.29971268     6     355    0    0    0 
C 80.63168548 5.18564145 -45.64965455     1     354    356    357    358
H 80.02021264 4.79041245 -43.75781891     6     355    0    0    0
H 79.67194287 3.73203378 -46.88050503     6     355    0    0    0
C 83.49012081 5.79396151 -45.82912860     2     355    359    360    361
H 84.43007060 4.39090307 -44.69121404     6     358    0    0    0
H 84.04608593 5.37472104 -47.80890519     6     358    0    0    0
C 83.99619389 8.42219383 -45.08249859     2     358    362   363   364
H 83.50021064 9.88893962 -46.42281963     6     361    0    0    0
H 82.87567781 8.89824146 -43.39093935     6     361    0    0    0
C 86.82381112 8.76056140 -44.58734120     2     361   365   366   367
H 87.26458926 7.19447782 -43.35988742     6    364    0    0    0
H 87.98694110 8.52078396 -46.28348942     6    364    0    0    0
C 87.48479719 11.23305784 -43.45072049     2    364   368   369   370
H 86.53774366 12.89744743 -44.24238174     6    367    0    0    0
H 86.89285951 11.26576458 -41.50027866     6    367    0    0    0
C 90.38922202 11.65814087 -43.54527644     2    367   371   372   373
H 91.30892196 10.02116758 -42.85606905     6    370    0    0    0
H 91.20508856 11.86669805 -45.49663974     6    370    0    0    0
C 91.17453933 13.88214640 -41.77717761     2    370   374   375   376
H 90.50593235 15.66381519 -42.54428861     6    373    0    0    0
H 90.44977709 13.68541528 -39.90999385     6    373    0    0    0
C 94.03008164 14.40904034 -41.73655043     2    373   377   378   379
H 94.80359099 12.74933057 -41.11980542     6    376    0    0    0
H 94.79882101 14.76851546 -43.64570546     6    376    0    0    0
C 94.83254215 16.49632476 -39.96775068     2    376   380   381   382
H 93.49610312 18.20231423 -40.20156694     6    379    0    0    0
H 94.69702919 15.59789489 -38.03038371     6    379    0    0    0
C 97.58420773 17.29473055 -40.52824767     2    379   383   384   385
H 98.69576210 15.58085562 -40.33018085     6    382    0    0    0
H 97.43539229 17.90754688 -42.42905550     6    382    0    0    0
C 98.40402643 19.58549188 -38.94923335     2    382   386   387   388
H 100.30091580 20.12342360 -39.12195375     6    385    0    0    0
H 97.55900144 21.34202446 -39.50917436     6    385    0    0    0
C 98.00803981 19.50446394 -36.04744461     1    385   389   390   391
H 99.46709399 18.28060194 -35.26145127     6    388    0    0    0
H 96.08555657 18.66560712 -35.65355292     6    388    0    0    0
H 98.40679156 21.36349805 -35.30482186     6    388    0    0    0
H 71.86879876 56.22403294 -34.68756713     6     393    0    0    0 
C 70.03467182 55.62993672 -35.41171355     1     392    394    395    396
H 69.06708025 57.37344144 -34.97507151     6     393    0    0    0
H 70.04077635 55.39188807 -37.43214233     6     393    0    0    0
C 69.03322956 53.36539362 -34.04994442     2     393    397    398    399
H 70.30014497 51.85339530 -34.13831634     6     396    0    0    0
H 68.52394780 53.65357448 -32.12491422     6     396    0    0    0
C 66.67830742 52.43924144 -35.41431757     2     396    400   401   402
H 65.09752808 53.50108947 -35.01089183     6     399    0    0    0
H 66.88238835 52.59043230 -37.38676097     6     399    0    0    0
C 65.93392200 49.75572154 -34.63153677     2     399   403   404   405
H 67.53705512 48.54698969 -34.66853584     6    402    0    0    0
H 65.41336136 49.67443895 -32.67736376     6    402    0    0    0
C 63.54280835 48.63992403 -35.83376945     2    402   406   407   408
H 61.91350272 49.82438972 -35.42844847     6    405    0    0    0
H 63.61752068 48.98544619 -37.81626268     6    405    0    0    0
C 63.13607708 45.81048620 -35.10618558     2    405   409   410   411
H 64.84628177 44.83104379 -35.71132515     6    408    0    0    0
H 63.13681572 45.66298013 -33.08875695     6    408    0    0    0
C 61.03074950 44.46654602 -36.55049893     2    408   412   413   414
H 59.27822898 45.22463661 -35.59874032     6    411    0    0    0
H 61.16051771 44.94540901 -38.63248505     6    411    0    0    0
C 60.69361428 41.60908725 -35.97698244     2    411   415   416   417
H 62.09937823 40.62931308 -36.99011040     6    414    0    0    0
H 60.97493650 41.41999483 -33.91343387     6    414    0    0    0
C 58.14263028 40.40217512 -36.73686825     2    414   418   419   420
H 56.69425530 41.08754703 -35.42943724     6    417    0    0    0
H 57.66161865 41.13667318 -38.55079668     6    417    0    0    0
C 58.06180011 37.42146497 -36.71534044     2    417   421   422   423
H 59.53984785 36.62591793 -37.98206556     6    420    0    0    0
H 58.62676705 36.82414155 -34.82062150     6    420    0    0    0
C 55.45574457 36.54523259 -37.28400888     2    420   424   425   426
H 55.40870332 34.49393993 -36.86590324     6    423    0    0    0
H 54.08572294 37.09775250 -35.80096105     6    423    0    0    0
C 54.52943879 36.96247485 -39.93606042     1    423   427   428   429
H 52.79402050 35.98795290 -39.72670972     6    426    0    0    0
H 55.30150525 35.96079443 -41.47699214     6    426    0    0    0
H 54.15836627 38.81880477 -40.66316255     6    426    0    0    0
H 64.49066482 25.31602763 -32.60667539     6     431    0    0    0 
C 63.60722976 24.43637436 -30.92980304     1     430    432    433    434
H 62.26625887 23.06230894 -31.60620786     6     431    0    0    0
H 65.13834593 23.37446697 -30.15728278     6     431    0    0    0
C 62.55932043 26.67009673 -29.29739421     2     431    435    436    437
H 64.19566692 27.42460947 -28.23273649     6     434    0    0    0
H 61.68180436 28.28854338 -30.29825961     6     434    0    0    0
C 60.25374969 26.02077422 -27.70594572     2     434    438   439   440
H 58.72797365 25.47396622 -28.96449414     6     437    0    0    0
H 60.60755720 24.35567994 -26.50613854     6     437    0    0    0
C 59.37049209 27.96854874 -25.75084209     2     437   441   442   443
H 58.04845142 26.94290320 -24.36844671     6    440    0    0    0
H 61.08569174 28.24314617 -24.72690319     6    440    0    0    0
C 58.00656499 30.23649282 -26.99449756     2    440   444   445   446
H 59.38403629 31.53193730 -27.85974344     6    443    0    0    0
H 56.79562162 29.45436041 -28.45481277     6    443    0    0    0
C 56.32878184 31.63212687 -25.17421032     2    443   447   448   449
H 55.29248178 30.20329426 -24.13371098     6    446    0    0    0
H 57.58473303 32.27345788 -23.63662651     6    446    0    0    0
C 54.86773733 33.87591372 -26.24676162     2    446   450   451   452
H 56.18848794 35.39560191 -26.72928444     6    449    0    0    0
H 54.06535694 33.13510590 -27.97380814     6    449    0    0    0
C 52.85839917 34.95620844 -24.36290621     2    449   453   454   455
H 51.65148307 33.35063200 -24.19082906     6    452    0    0    0
H 53.93234408 35.64302567 -22.77955933     6    452    0    0    0
C 51.35882954 37.17884963 -25.56944340     2    452   456   457   458
H 52.30931375 38.90516189 -25.76613181     6    455    0    0    0
H 50.96048960 36.62149509 -27.41367224     6    455    0    0    0
C 48.76038354 37.66787768 -24.24619953     2    455   459   460   461
H 47.82574917 39.15088426 -25.27194376     6    458    0    0    0
H 47.81129393 35.78243667 -23.97665640     6    458    0    0    0
C 48.93450581 38.63679092 -21.48171908     2    458   462   463   464
H 49.93302215 37.04545480 -20.50749789     6    461    0    0    0
H 50.18383556 40.41740465 -21.29222952     6    461    0    0    0
C 46.38744456 39.33560771 -20.36141201     1    461   465   466   467
H 45.14454404 37.80400233 -20.24346051     6    464    0    0    0
H 45.25810928 40.67379200 -21.43847792     6    464    0    0    0
H 46.69385560 39.83473937 -18.31704122     6    464    0    0    0
H 98.77672475 11.92247412 -37.48991987     6     469    0    0    0 
C 99.78391771 10.21161538 -37.34250992     1     468    470    471    472
H 100.26432008 10.12851514 -39.34052199     6     469    0    0    0
H 101.35764867 10.66860620 -36.20401544     6     469    0    0    0
C 98.27532345 7.78130766 -36.58554953     2     469    473    474    475
H 99.45601766 6.20994002 -36.28042334     6     472    0    0    0
H 97.54967035 8.12409237 -34.77437245     6     472    0    0    0
C 96.40178193 7.09184099 -38.66655119     2     472    476   477   478
H 95.37177918 8.86484700 -39.13426802     6     475    0    0    0
H 97.33682722 6.61826763 -40.44602375     6     475    0    0    0
C 94.55768107 4.84934794 -37.91426396     2     475   479   480   481
H 95.69126814 3.36303726 -37.01519442     6    478    0    0    0
H 93.21787310 5.59546537 -36.64685781     6    478    0    0    0
C 93.07446887 3.90592576 -40.27655005     2    478   482   483   484
H 92.03138534 5.53976134 -41.03550111     6    481    0    0    0
H 94.40969579 3.05609724 -41.58076992     6    481    0    0    0
C 90.97758526 1.98778145 -39.66280550     2    481   485   486   487
H 91.86852252 0.58932851 -38.55040246     6    484    0    0    0
H 89.58047066 3.08780249 -38.50716699     6    484    0    0    0
C 89.74846361 0.97146228 -41.98013850     2    484   488   489   490
H 88.53340216 2.53513454 -42.69054636     6    487    0    0    0
H 91.36682808 0.50272675 -43.25885569     6    487    0    0    0
C 88.38786598 -1.51020339 -41.54247290     2    487   491   492   493
H 89.50403715 -3.01816028 -40.75055153     6    490    0    0    0
H 86.87280723 -1.24671157 -40.04713032     6    490    0    0    0
C 86.94235750 -2.43991030 -43.73695233     2    490   494   495   496
H 85.42901281 -1.12226116 -44.30250987     6    493    0    0    0
H 88.07672740 -2.36267646 -45.49503985     6    493    0    0    0
C 85.98294447 -5.06034324 -43.53079732     2    493   497   498   499
H 87.25146407 -6.36847092 -42.67093618     6    496    0    0    0
H 84.48817441 -4.89453811 -42.03625509     6    496    0    0    0
C 84.38924489 -5.81941316 -45.82637211     2    496   500   501   502
H 82.94712211 -4.48841136 -46.15925974     6    499    0    0    0
H 85.65292622 -6.02580421 -47.58948876     6    499    0    0    0
C 83.13538071 -8.46772545 -45.72303887     1    499   503   504   505
H 81.96019352 -8.77858641 -44.00442975     6    502    0    0    0
H 84.55736873 -9.95428699 -45.65430032     6    502    0    0    0
H 81.89048346 -8.85975548 -47.26445006     6    502    0    0    0
H 64.02049360 6.21686107 -49.84838296     6     507    0    0    0 
C 62.63539280 6.18353907 -48.32081343     1     506    508    509    510
H 60.71134434 6.01425937 -48.80827774     6     507    0    0    0
H 62.98652914 4.69464985 -46.98093044     6     507    0    0    0
C 63.17298606 8.58536700 -46.73095310     2     507    511    512    513
H 65.08047644 8.47862414 -45.90588941     6     510    0    0    0
H 63.50899840 10.04456683 -48.14977145     6     510    0    0    0
C 61.01702910 9.18423762 -44.87453116     2     510    514   515   516
H 59.25462329 9.35330759 -45.96602518     6     513    0    0    0
H 60.87646233 7.78550982 -43.43153784     6     513    0    0    0
C 61.48230611 11.73545892 -43.37937705     2     513   517   518   519
H 63.21881196 11.43214614 -42.36767261     6    516    0    0    0
H 61.99040941 12.88749184 -44.94765766     6    516    0    0    0
C 59.23709482 12.74494823 -41.81175811     2    516   520   521   522
H 57.58503556 12.90862753 -43.00822486     6    519    0    0    0
H 58.73079304 11.29052619 -40.33698254     6    519    0    0    0
C 59.69233714 15.12204048 -40.21935338     2    519   523   524   525
H 60.92264318 14.77918045 -38.74027675     6    522    0    0    0
H 60.70529638 16.33224345 -41.49760323     6    522    0    0    0
C 57.30494321 16.52705679 -39.09404243     2    522   526   527   528
H 56.00021387 16.94083391 -40.66873249     6    525    0    0    0
H 56.13423976 15.30883356 -37.83499590     6    525    0    0    0
C 57.66235365 19.24828919 -38.00560859     2    525   529   530   531
H 58.68838000 19.25425438 -36.32045538     6    528    0    0    0
H 58.87162568 19.98262120 -39.49259136     6    528    0    0    0
C 55.22434745 20.62644925 -37.40765755     2    528   532   533   534
H 54.11783642 20.44130795 -39.12502609     6    531    0    0    0
H 54.24349492 19.56938163 -35.94987700     6    531    0    0    0
C 55.68833798 23.51471620 -36.59144726     2    531   535   536   537
H 56.88042585 23.51057016 -34.89125298     6    534    0    0    0
H 56.69888597 24.58170265 -38.05614258     6    534    0    0    0
C 53.35648828 24.95481519 -35.80526983     2    534   538   539   540
H 51.99841947 24.90832271 -37.33845525     6    537    0    0    0
H 52.27811846 23.99146174 -34.20347088     6    537    0    0    0
C 53.81695966 27.80232333 -35.08699964     1    537   541   542   543
H 51.95590107 28.67248280 -34.81762832     6    540    0    0    0
H 55.00791206 28.74749990 -36.35245227     6    540    0    0    0
H 54.74706571 27.91088122 -33.26696543     6    540    0    0    0
H 70.89926258 41.87282738 -30.34034626     6     545    0    0    0 
C 70.33733984 40.64784644 -31.99503896     1     544    546    547    548
H 69.93836335 38.76152815 -31.26871925     6     545    0    0    0
H 68.63966125 41.54633736 -32.82987307     6     545    0    0    0
C 72.49291131 40.17209615 -33.76978900     2     545    549    550    551
H 74.31474574 39.86792962 -32.71698773     6     548    0    0    0
H 72.03053983 38.47306777 -34.87187659     6     548    0    0    0
C 73.12393106 42.39106512 -35.55592464     2     548    552   553   554
H 71.41581810 43.18218635 -36.26265523     6     551    0    0    0
H 73.85413632 44.02785495 -34.69668363     6     551    0    0    0
C 74.89886434 41.55188787 -37.72655891     2     551   555   556   557
H 76.61199421 40.56225241 -36.98708718     6    554    0    0    0
H 73.97505891 39.91364277 -38.62246992     6    554    0    0    0
C 76.10609180 43.63011979 -39.41190762     2    554   558   559   560
H 74.59392379 44.54483505 -40.32887043     6    557    0    0    0
H 77.06760508 45.10966886 -38.50698101     6    557    0    0    0
C 77.69783696 42.47033893 -41.53509687     2    557   561   562   563
H 79.48373561 41.67797119 -40.85373242     6    560    0    0    0
H 76.53329211 40.96482659 -42.25169399     6    560    0    0    0
C 78.35759852 44.33548770 -43.61746847     2    560   564   565   566
H 76.71769433 45.19320572 -44.64224971     6    563    0    0    0
H 79.30855064 45.89637838 -42.64547151     6    563    0    0    0
C 80.04616139 43.06917133 -45.72251016     2    563   567   568   569
H 81.54083650 41.88121453 -44.90872674     6    566    0    0    0
H 78.77546179 41.77720232 -46.65496841     6    566    0    0    0
C 81.28720435 45.14915468 -47.32738979     2    566   570   571   572
H 79.99597214 46.59042862 -47.95564581     6    569    0    0    0
H 82.66191753 46.18309618 -46.16382273     6    569    0    0    0
C 82.73915104 44.13344795 -49.66906216     2    569   573   574   575
H 83.82261051 42.47788924 -49.04195816     6    572    0    0    0
H 81.43447530 43.68171706 -51.14795216     6    572    0    0    0
C 84.56583673 46.05194687 -50.75500746     2    572   576   577   578
H 85.86853925 46.66743616 -49.30975398     6    575    0    0    0
H 85.45761980 45.00597698 -52.29327981     6    575    0    0    0
C 83.20489979 48.44433228 -51.79114065     1    575   579   580   581
H 81.94216562 47.73443205 -53.19093396     6    578    0    0    0
H 84.44762326 49.80503816 -52.58075136     6    578    0    0    0
H 82.30623480 49.39170011 -50.18964615     6    578    0    0    0
H 93.20464790 8.21568658 -51.25671830     6     583    0    0    0 
C 94.57220343 9.27650209 -52.33744889     1     582    584    585    586
H 96.43708797 8.40589490 -52.01006055     6     583    0    0    0
H 93.76498400 8.91113427 -54.17355049     6     583    0    0    0
C 94.48408581 11.86414486 -51.22379540     2     583    587    588    589
H 92.45235911 12.31645633 -51.15005493     6     586    0    0    0
H 94.98329764 11.77823613 -49.30302946     6     586    0    0    0
C 96.08667715 13.84951695 -52.75497610     2     586    590   591   592
H 98.13507589 13.28809127 -52.83272316     6     589    0    0    0
H 95.09750128 13.79379691 -54.65835640     6     589    0    0    0
C 95.95990443 16.37817668 -51.36408417     2     589   593   594   595
H 94.00493274 16.80607711 -51.00415040     6    592    0    0    0
H 96.80485582 16.10298984 -49.54738395     6    592    0    0    0
C 97.10320454 18.73900483 -52.67934399     2    592   596   597   598
H 99.03934709 18.15308651 -53.16382037     6    595    0    0    0
H 96.19752738 19.48521183 -54.51340960     6    595    0    0    0
C 97.33010725 20.99095359 -50.75152718     2    595   599   600   601
H 95.44115764 21.64478275 -50.26346208     6    598    0    0    0
H 98.28267359 20.36496269 -49.01417470     6    598    0    0    0
C 98.89421727 23.14240276 -51.83756671     2    598   602   603   604
H 100.71612184 22.40178781 -52.21234038     6    601    0    0    0
H 98.10016304 23.33404140 -53.76162144     6    601    0    0    0
C 98.75528191 25.46466499 -50.22157337     2    601   605   606   607
H 96.77240218 26.13755253 -50.47275863     6    604    0    0    0
H 98.92523302 24.94324405 -48.22358365     6    604    0    0    0
C 100.54476980 27.52811872 -51.30463519     2    604   608   609   610
H 102.41489521 26.76960840 -51.30226684     6    607    0    0    0
H 100.20375925 27.76896172 -53.38650155     6    607    0    0    0
C 100.28858183 30.10094694 -49.93356269     2    607   611   612   613
H 98.31924159 30.14829902 -49.36709265     6    610    0    0    0
H 101.23430905 29.86199916 -48.06614739     6    610    0    0    0
C 101.01224741 32.42079039 -51.67612465     2    610   614   615   616
H 102.40286549 32.06431797 -53.09732006     6    613    0    0    0
H 99.13091271 32.75946754 -52.82119493     6    613    0    0    0
C 101.80594565 34.81887826 -50.12873625     1    613   617   618   619
H 102.22524812 36.35992339 -51.46765582     6    616    0    0    0
H 103.40680771 34.38797406 -48.87027484     6    616    0    0    0
H 100.15309470 35.42900020 -49.12170868     6    616    0    0    0
H 58.20683239 35.98273179 -59.06247860     6     621    0    0    0 
C 59.27134927 35.06087395 -57.58785337     1     620    622    623    624
H 60.42793382 36.22251871 -56.43771456     6     621    0    0    0
H 57.70135160 34.54096171 -56.29516705     6     621    0    0    0
C 60.69923943 32.73424042 -58.38384809     2     621    625    626    627
H 61.73357897 32.09319057 -56.75298182     6     624    0    0    0
H 59.40434821 31.12351205 -58.91665687     6     624    0    0    0
C 62.32781556 33.64986962 -60.48407455     2     624    628   629   630
H 61.10781974 34.61085670 -61.85631158     6     627    0    0    0
H 63.84134229 34.91326447 -59.66733944     6     627    0    0    0
C 63.56576482 31.21991377 -61.66243426     2     627   631   632   633
H 65.20890136 30.74958356 -60.62577974     6    630    0    0    0
H 62.41672907 29.45793976 -61.76485841     6    630    0    0    0
C 64.12405002 31.59632321 -64.37174842     2    630   634   635   636
H 62.36212904 31.80726533 -65.36979779     6    633    0    0    0
H 65.12080923 33.43215322 -64.56997615     6    633    0    0    0
C 65.73119348 29.55682176 -65.49608974     2    633   637   638   639
H 67.33477723 29.53646498 -64.28934596     6    636    0    0    0
H 65.04374138 27.67022826 -65.44397603     6    636    0    0    0
C 66.50140638 29.87230609 -68.29281936     2    636   640   641   642
H 64.87475653 29.29321559 -69.31725432     6    639    0    0    0
H 66.86375525 31.98990367 -68.62867085     6    639    0    0    0
C 68.90140014 28.37775887 -68.96362720     2    639   643   644   645
H 70.30216768 28.47914787 -67.45184444     6    642    0    0    0
H 68.23196357 26.35977276 -69.12156496     6    642    0    0    0
C 70.06950380 29.30092959 -71.42186630     2    642   646   647   648
H 68.68760188 28.99144539 -72.93852496     6    645    0    0    0
H 70.41213226 31.35552314 -71.53132330     6    645    0    0    0
C 72.42969172 27.73029439 -72.29960621     2    645   649   650   651
H 74.08694734 28.01048308 -70.96462200     6    648    0    0    0
H 71.81544542 25.67184632 -72.15761111     6    648    0    0    0
C 73.27646703 28.37813181 -75.04212592     2    648   652   653   654
H 71.48056449 28.29244539 -76.04599912     6    651    0    0    0
H 73.88831105 30.40950437 -75.11420768     6    651    0    0    0
C 75.14884238 26.50395528 -76.18711443     1    651   655   656   657
H 76.90543368 26.41940298 -74.94701812     6    654    0    0    0
H 75.53239644 26.85716613 -78.17086468     6    654    0    0    0
H 74.45239553 24.70114023 -76.02727819     6    654    0    0    0
H 90.51943659 21.31343142 -48.01411592     6     659    0    0    0 
C 89.58594453 22.53994426 -49.37826866     1     658    660    661    662
H 87.51391656 22.26452613 -48.97258182     6     659    0    0    0
H 90.11536354 24.58813031 -48.86106517     6     659    0    0    0
C 90.07300018 21.81259585 -52.11801346     2     659    663    664    665
H 91.75732905 20.63671863 -52.22346279     6     662    0    0    0
H 88.43386879 20.72607289 -52.75012614     6     662    0    0    0
C 89.94514587 23.92249838 -54.12013831     2     662    666   667   668
H 89.95614058 23.13798554 -56.13792373     6     665    0    0    0
H 88.05483251 24.84170506 -54.29954577     6     665    0    0    0
C 91.90325040 25.89714862 -53.83876028     2     665   669   670   671
H 91.23974074 26.82373137 -52.16000901     6    668    0    0    0
H 93.79213337 25.20672329 -53.43702157     6    668    0    0    0
C 91.88788596 27.66480196 -56.10628704     2    668   672   673   674
H 92.54601444 26.49928491 -57.65755169     6    671    0    0    0
H 89.99658253 28.55139631 -56.61986789     6    671    0    0    0
C 93.96298295 29.60698645 -55.73557937     2    671   675   676   677
H 94.65555699 29.77420453 -53.84358874     6    674    0    0    0
H 95.57493215 29.19709388 -56.94908546     6    674    0    0    0
C 93.20606151 32.40304485 -56.47374466     2    674   678   679   680
H 94.93952658 33.59485961 -56.39127700     6    677    0    0    0
H 92.89527322 32.49416104 -58.57851006     6    677    0    0    0
C 91.10076503 33.54148359 -54.87475729     2    677   681   682   683
H 89.62839931 32.14877347 -54.87399575     6    680    0    0    0
H 91.75225014 33.44919663 -52.96200418     6    680    0    0    0
C 90.26162015 36.17833768 -55.71767922     2    680   684   685   686
H 91.85687628 37.62507584 -55.77048243     6    683    0    0    0
H 89.85167384 36.34208278 -57.80817017     6    683    0    0    0
C 88.33120513 37.21159691 -53.93973344     2    683   687   688   689
H 86.54485697 36.21522933 -53.70966107     6    686    0    0    0
H 88.89347721 37.21193410 -51.93068043     6    686    0    0    0
C 87.63848632 39.82656718 -54.44879955     2    686   690   691   692
H 86.62805358 39.91087923 -56.22021739     6    689    0    0    0
H 86.08947280 40.53106987 -53.25654833     6    689    0    0    0
C 89.65415482 41.88896792 -54.62717844     1    689   693   694   695
H 88.91869986 43.76268025 -54.97759625     6    692    0    0    0
H 90.74400023 41.67971593 -56.38380433     6    692    0    0    0
H 90.96060697 42.00186389 -52.97794369     6    692    0    0    0
H 79.99153393 53.86854594 -50.78936067     6     697    0    0    0 
C 80.72258934 54.64847706 -49.08591682     1     696    698    699    700
H 82.82917960 54.61626656 -49.16319999     6     697    0    0    0
H 80.01952176 56.58831427 -49.31100352     6     697    0    0    0
C 79.69381164 52.93663374 -46.98045879     2     697    701    702    703
H 77.72078430 52.53768166 -47.53563263     6     700    0    0    0
H 80.40345822 51.10699795 -47.24488886     6     700    0    0    0
C 80.30951935 54.03845973 -44.40819425     2     700    704   705   706
H 82.29233260 54.02757827 -44.18305493     6     703    0    0    0
H 79.54179356 55.94784908 -44.35912981     6     703    0    0    0
C 79.04689130 52.37952026 -42.44293000     2     703   707   708   709
H 76.95793372 52.23312520 -42.83829549     6    706    0    0    0
H 79.72460552 50.48516636 -42.49624081     6    706    0    0    0
C 79.52283641 53.53398133 -39.80775073     2    706   710   711   712
H 81.52176203 53.70313503 -39.60517874     6    709    0    0    0
H 78.57826525 55.41694853 -39.41293756     6    709    0    0    0
C 78.76311204 51.70712191 -37.60941916     2    709   713   714   715
H 79.85428112 50.04887645 -37.86110403     6    712    0    0    0
H 79.33256295 52.51184808 -35.86843871     6    712    0    0    0
C 75.98828932 51.29805528 -37.45472218     2    712   716   717   718
H 74.82635270 52.95922313 -37.27902216     6    715    0    0    0
H 75.25243579 50.23771425 -39.06293307     6    715    0    0    0
C 75.44389952 49.56930645 -35.07964868     2    715   719   720   721
H 73.43805539 48.67870684 -35.28261445     6    718    0    0    0
H 76.70897768 48.02414253 -35.13745211     6    718    0    0    0
C 75.53827710 50.86122989 -32.36154586     2    718   722   723   724
H 77.43825301 51.58330579 -32.02469307     6    721    0    0    0
H 74.44288696 52.70312720 -32.36611323     6    721    0    0    0
C 74.67275428 48.80869415 -30.52390980     2    721   725   726   727
H 72.62425754 48.67625495 -30.67640152     6    724    0    0    0
H 75.70465585 47.10226240 -30.86872790     6    724    0    0    0
C 74.99495456 49.53888664 -27.70514640     2    724   728   729   730
H 74.37791392 51.59595874 -27.66392426     6    727    0    0    0
H 73.80742189 48.52562696 -26.27183408     6    727    0    0    0
C 77.88853468 49.44751685 -26.95605990     1    727   731   732   733
H 78.13999703 49.88482878 -24.91407671     6    730    0    0    0
H 78.97515940 50.88808381 -27.95560761     6    730    0    0    0
H 78.66791978 47.61684934 -27.49095147     6    730    0    0    0
H 84.16304126 15.64721778 -32.24253451     6     735    0    0    0 
C 84.08710376 14.51414205 -30.57620504     1     734    736    737    738
H 85.41140190 15.42654517 -29.31851760     6     735    0    0    0
H 82.41233857 14.76369454 -29.45612905     6     735    0    0    0
C 84.72987288 11.60374091 -30.91576619     2     735    739    740    741
H 86.56809929 11.43867704 -31.86950716     6     738    0    0    0
H 84.84601086 10.55762618 -29.08356772     6     738    0    0    0
C 82.75052243 10.32942019 -32.61102024     2     738    742   743   744
H 80.90010295 10.15845528 -31.67684229     6     741    0    0    0
H 82.51716272 11.60402096 -34.29009076     6     741    0    0    0
C 83.48088027 7.70085426 -33.48559336     2     741   745   746   747
H 85.27894725 7.88008566 -34.42758267     6    744    0    0    0
H 83.58914702 6.39045779 -31.86099217     6    744    0    0    0
C 81.38508233 6.61091926 -35.35077819     2    744   748   749   750
H 79.45077484 6.46973095 -34.31533981     6    747    0    0    0
H 81.01328160 8.07464942 -36.77770637     6    747    0    0    0
C 82.13372990 4.05574921 -36.57234669     2    747   751   752   753
H 83.68078662 4.14801412 -37.96256845     6    750    0    0    0
H 82.96293631 2.74572277 -35.26071313     6    750    0    0    0
C 79.88963077 2.56140001 -37.96319166     2    750   754   755   756
H 78.89742155 1.65219709 -36.42556370     6    753    0    0    0
H 78.45463844 3.73962977 -38.97904731     6    753    0    0    0
C 81.09821522 0.85809872 -39.96548066     2    753   757   758   759
H 81.90259026 2.03455997 -41.36939350     6    756    0    0    0
H 82.90300686 -0.00668058 -39.38316640     6    756    0    0    0
C 79.42783632 -1.06534688 -41.27316919     2    756   760   761   762
H 77.74785194 0.14201933 -41.93601541     6    759    0    0    0
H 80.32921233 -1.66436084 -42.90465316     6    759    0    0    0
C 78.53758474 -3.35367334 -39.59016030     2    759   763   764   765
H 80.23242621 -4.49484378 -38.99139635     6    762    0    0    0
H 77.91701064 -2.46229315 -37.79113534     6    762    0    0    0
C 76.34329339 -4.90263304 -40.57189621     2    762   766   767   768
H 74.72501487 -3.77920352 -41.46272634     6    765    0    0    0
H 77.17566998 -6.20060810 -41.99902815     6    765    0    0    0
C 75.62298884 -6.66752230 -38.44960823     1    765   769   770   771
H 77.02838823 -8.14116590 -38.01065570     6    768    0    0    0
H 73.82091737 -7.63640088 -38.80608279     6    768    0    0    0
H 75.24021942 -5.45866454 -36.72417100     6    768    0    0    0
H 59.16790345 23.01824372 -67.71709315     6     773    0    0    0 
C 57.56031893 23.23745407 -68.88027014     1     772    774    775    776
H 58.00290506 24.66092871 -70.38845305     6     773    0    0    0
H 57.19044499 21.31489789 -69.76476191     6     773    0    0    0
C 55.40594534 23.94008755 -67.19228579     2     773    777    778    779
H 53.69154812 24.24810225 -68.38421996     6     776    0    0    0
H 55.16551093 22.42754242 -65.86395228     6     776    0    0    0
C 56.09159762 26.37496185 -65.64362541     2     776    780   781   782
H 57.85149820 25.76066315 -64.71038776     6     779    0    0    0
H 56.73855830 27.74558361 -67.00109226     6     779    0    0    0
C 54.00060365 27.31921304 -63.99811985     2     779   783   784   785
H 52.50339040 28.17895161 -65.02880661     6    782    0    0    0
H 53.10615217 25.71173001 -62.99218508     6    782    0    0    0
C 54.89062279 29.25535661 -61.99564495     2    782   786   787   788
H 56.47090207 28.33407353 -60.89234428     6    785    0    0    0
H 55.66158874 30.93095007 -63.01780566     6    785    0    0    0
C 52.69517727 29.81266646 -60.17506424     2    785   789   790   791
H 51.37288701 31.01562300 -61.24509521     6    788    0    0    0
H 51.54381887 28.25270691 -59.47102140     6    788    0    0    0
C 53.24342485 31.38582526 -57.84360740     2    788   792   793   794
H 54.54009145 30.45688919 -56.75463565     6    791    0    0    0
H 53.87555994 33.10306596 -58.75960122     6    791    0    0    0
C 51.03194519 31.94146513 -56.11229569     2    791   795   796   797
H 49.35555266 32.79580358 -57.00852291     6    794    0    0    0
H 50.30550766 30.29797942 -55.19722718     6    794    0    0    0
C 51.70902531 33.45266217 -53.75570847     2    794   798   799   800
H 52.99726536 32.34792038 -52.66697053     6    797    0    0    0
H 52.61505909 35.17736521 -54.45307468     6    797    0    0    0
C 49.39652928 34.16008271 -52.16428347     2    797   801   802   803
H 48.19414315 35.39309460 -53.36079797     6    800    0    0    0
H 48.15881435 32.61496952 -51.76194605     6    800    0    0    0
C 50.26496184 35.31924455 -49.45748640     2    800   804   805   806
H 50.72085787 33.79610946 -48.23711956     6    803    0    0    0
H 51.80821431 36.68360406 -49.41540587     6    803    0    0    0
C 47.95289148 36.86383110 -48.50220976     1    803   807   808   809
H 48.47207298 37.73821320 -46.68394052     6    806    0    0    0
H 46.23987654 35.80026678 -48.15810651     6    806    0    0    0
H 47.60135795 38.45268780 -49.67348230     6    806    0    0    0
H 83.42431883 18.78680432 -50.67218752     6     811    0    0    0 
C 83.52456055 17.42356448 -49.08224514     1     810    812    813    814
H 85.36525496 17.24038793 -48.35519260     6     811    0    0    0
H 82.49264362 18.13582076 -47.44555069     6     811    0    0    0
C 82.18709431 15.00972118 -50.15992315     2     811    815    816    817
H 83.01418990 14.61625700 -52.05171240     6     814    0    0    0
H 82.74565417 13.41267794 -48.94396140     6     814    0    0    0
C 79.26618793 15.18372981 -50.68328435     2     814    818   819   820
H 78.40381336 15.21616346 -48.74379058     6     817    0    0    0
H 78.82238763 16.94872272 -51.48829776     6     817    0    0    0
C 77.96829798 13.03073038 -52.09427235     2     817   821   822   823
H 76.05229902 13.35975428 -52.34364238     6    820    0    0    0
H 78.64141783 13.07965269 -53.98344115     6    820    0    0    0
C 78.20982086 10.35177685 -50.92479015     2    820   824   825   826
H 80.26564126 9.98465896 -50.50497845     6    823    0    0    0
H 77.15044598 10.44226401 -49.17744560     6    823    0    0    0
C 77.27282673 8.28115460 -52.85343154     2    823   827   828   829
H 75.32545093 8.74114821 -53.35646654     6    826    0    0    0
H 78.05062514 8.39060307 -54.77136521     6    826    0    0    0
C 77.39826426 5.45528414 -51.85004718     2    826   830   831   832
H 79.36529642 4.91634206 -51.68915917     6    829    0    0    0
H 76.60074324 5.50350461 -49.90626673     6    829    0    0    0
C 75.98962957 3.32462525 -53.18740237     2    829   833   834   835
H 73.97676669 3.80923527 -52.88935071     6    832    0    0    0
H 76.62125911 3.41553665 -55.21600901     6    832    0    0    0
C 76.37225412 0.60998614 -52.13888646     2    832   836   837   838
H 78.37931518 0.39481888 -51.67778872     6    835    0    0    0
H 75.58671683 0.45954690 -50.20059514     6    835    0    0    0
C 75.13406325 -1.49419537 -53.72340913     2    835   839   840   841
H 73.08384014 -1.15769456 -53.54677975     6    838    0    0    0
H 75.98566436 -1.52217099 -55.64170535     6    838    0    0    0
C 75.34387837 -3.96791353 -52.32943844     2    838   842   843   844
H 77.17940838 -4.42273127 -51.49095673     6    841    0    0    0
H 74.11296204 -3.85102936 -50.66930972     6    841    0    0    0
C 74.19344082 -5.97395079 -54.11284534     1    841   845   846   847
H 72.22787808 -5.52908752 -54.49333593     6    844    0    0    0
H 74.46077537 -7.79410921 -53.17741156     6    844    0    0    0
H 75.32188259 -5.98948001 -55.84112642     6    844    0    0    0
H 96.77445396 45.34329131 -60.04660725     6     849    0    0    0 
C 95.67757966 43.83611284 -59.08165642     1     848    850    851    852
H 96.17599229 43.61009258 -57.17228225     6     849    0    0    0
H 93.71795935 44.47375368 -59.19363788     6     849    0    0    0
C 95.92552292 41.40080155 -60.67070660     2     849    853    854    855
H 94.10976910 40.72569752 -61.36547127     6     852    0    0    0
H 97.10897233 41.73268354 -62.34611792     6     852    0    0    0
C 96.87302659 39.09661059 -59.10573914     2     852    856   857   858
H 98.38257396 39.57001121 -57.73022639     6     855    0    0    0
H 95.26882793 38.43796127 -57.93154892     6     855    0    0    0
C 97.70203252 36.77513612 -60.62796599     2     855   859   860   861
H 96.06498131 35.67299012 -61.04049049     6    858    0    0    0
H 98.59447771 37.19350902 -62.50389038     6    858    0    0    0
C 99.62567002 35.15072883 -59.26474779     2    858   862   863   864
H 101.45785100 36.15003009 -59.00407523     6    861    0    0    0
H 99.20292611 34.61604454 -57.33233729     6    861    0    0    0
C 100.12722268 32.85137477 -60.85808792     2    861   865   866   867
H 98.70059115 31.34934046 -60.38957683     6    864    0    0    0
H 100.01239018 33.20532598 -62.84818598     6    864    0    0    0
C 102.83254994 31.81258671 -60.47145760     2    864   868   869   870
H 104.10832586 32.44273334 -61.91979894     6    867    0    0    0
H 103.27651446 32.10672820 -58.48805700     6    867    0    0    0
C 102.94615811 28.98247021 -60.71101051     2    867   871   872   873
H 101.41519219 28.31186303 -59.53524616     6    870    0    0    0
H 102.45277431 28.34534939 -62.63628963     6    870    0    0    0
C 105.46388985 27.70155351 -59.92788410     2    870   874   875   876
H 105.67782641 25.76316750 -60.65855331     6    873    0    0    0
H 107.01860438 28.59475100 -60.69371888     6    873    0    0    0
C 105.89221823 27.46716286 -57.03570413     2    873   877   878   879
H 106.58504453 29.39216355 -56.32330106     6    876    0    0    0
H 104.09665781 26.91588832 -56.16472830     6    876    0    0    0
C 108.06524949 25.55429599 -56.29054713     2    876   880   881   882
H 107.39251940 23.61296656 -56.83727449     6    879    0    0    0
H 109.85889289 25.77194539 -57.27055702     6    879    0    0    0
C 108.41348960 25.13744970 -53.43628493     1    879   883   884   885
H 106.85797903 25.91406082 -52.33287063     6    882    0    0    0
H 110.13338025 26.10162436 -52.75539932     6    882    0    0    0
H 108.64022055 23.12400465 -52.96713960     6    882    0    0    0
H 70.41854810 18.47474306 -51.51887877     6     887    0    0    0 
C 70.31579437 20.45777205 -52.34272423     1     886    888    889    890
H 70.80160180 20.12614164 -54.39702067     6     887    0    0    0
H 68.34899357 20.84324405 -52.52499299     6     887    0    0    0
C 71.89999794 22.31955068 -50.82931251     2     887    891    892    893
H 72.00494879 24.04349596 -51.95283896     6     890    0    0    0
H 70.98757606 22.77371542 -49.13802039     6     890    0    0    0
C 74.66788016 21.45899457 -50.37014034     2     890    894   895   896
H 74.31737453 19.67155713 -49.42090649     6     893    0    0    0
H 75.48787139 20.96539347 -52.19995069     6     893    0    0    0
C 76.28068099 23.27991225 -48.83692139     2     893   897   898   899
H 76.73796757 24.87222016 -50.14494750     6    896    0    0    0
H 75.29341896 23.99401666 -47.15887975     6    896    0    0    0
C 78.82726571 22.33533786 -47.99754576     2    896   900   901   902
H 78.71266502 20.74360133 -46.68655785     6    899    0    0    0
H 79.91054965 21.82910931 -49.55735240     6    899    0    0    0
C 80.48694542 24.32900728 -46.57144908     2    899   903   904   905
H 80.85750120 25.86544267 -47.89733908     6    902    0    0    0
H 79.28168317 24.84196315 -44.90506261     6    902    0    0    0
C 82.96507314 23.42156329 -45.44011700     2    902   906   907   908
H 82.38625535 21.85136381 -44.21970817     6    905    0    0    0
H 84.09057559 22.37377229 -46.82413721     6    905    0    0    0
C 84.77401914 25.33023261 -44.19993751     2    905   909   910   911
H 85.48117512 26.38733118 -45.75771445     6    908    0    0    0
H 83.72245547 26.69927113 -43.00285718     6    908    0    0    0
C 86.88074307 24.11313870 -42.73356649     2    908   912   913   914
H 86.09564370 23.22999128 -40.99371508     6    911    0    0    0
H 87.87379273 22.89807217 -44.13471706     6    911    0    0    0
C 89.09325564 25.70661268 -41.89217349     2    911   915   916   917
H 89.83399522 26.60415805 -43.46346582     6    914    0    0    0
H 88.55676916 27.18975789 -40.46778532     6    914    0    0    0
C 91.29302450 23.96916316 -40.69298876     2    914   918   919   920
H 90.58441153 22.90536420 -39.00875039     6    917    0    0    0
H 91.77359506 22.51083520 -41.97975620     6    917    0    0    0
C 93.55747659 25.58807267 -40.05744734     1    917   921   922   923
H 93.07160158 27.26108475 -38.99300265     6    920    0    0    0
H 94.55536836 26.40537076 -41.74958781     6    920    0    0    0
H 94.84196312 24.59459292 -38.72698628     6    920    0    0    0
H 93.79544823 29.36050288 -72.32001088     6     925    0    0    0 
C 92.79954670 30.71934848 -71.06754969     1     924    926    927    928
H 92.32951333 32.34006430 -72.10256590     6     925    0    0    0
H 91.15651531 29.81434273 -70.20852356     6     925    0    0    0
C 94.87770792 31.63078963 -69.25567429     2     925    929    930    931
H 95.97901464 33.19313506 -70.04141871     6     928    0    0    0
H 93.94305208 32.67301457 -67.68607293     6     928    0    0    0
C 96.58089532 29.56798835 -67.87793810     2     928    932   933   934
H 97.52366795 28.33396452 -69.19663613     6     931    0    0    0
H 98.02044276 30.35224248 -66.69418783     6     931    0    0    0
C 95.03592365 27.77924302 -66.00375272     2     931   935   936   937
H 93.85154238 28.89422632 -64.72123577     6    934    0    0    0
H 93.72042533 26.91268678 -67.28987199     6    934    0    0    0
C 96.68798272 25.77185515 -64.60916539     2    934   938   939   940
H 97.54122753 24.73552371 -66.06729318     6    937    0    0    0
H 98.31605490 26.63270870 -63.63475056     6    937    0    0    0
C 95.08028115 24.36043616 -62.80590024     2    937   941   942   943
H 93.57556135 25.61572650 -62.16062154     6    940    0    0    0
H 94.09745754 22.95570350 -63.92192433     6    940    0    0    0
C 96.33757517 23.14605135 -60.42438551     2    940   944   945   946
H 97.02978755 24.59194710 -59.19695833     6    943    0    0    0
H 94.90934462 22.14183857 -59.46838417     6    943    0    0    0
C 98.54964205 21.63826549 -61.14106681     2    943   947   948   949
H 97.98246215 20.24294291 -62.51110818     6    946    0    0    0
H 100.03959515 22.87352667 -62.03471517     6    946    0    0    0
C 99.72345345 20.23289364 -59.02521728     2    946   950   951   952
H 100.14441085 21.43725191 -57.42415736     6    949    0    0    0
H 98.39409816 19.05769493 -58.03689295     6    949    0    0    0
C 102.08054986 18.73167122 -59.74448442     2    949   953   954   955
H 101.82588410 17.51907670 -61.31826199     6    952    0    0    0
H 103.66053957 19.93458211 -60.30221840     6    952    0    0    0
C 103.36333846 17.38526833 -57.56168272     2    952   956   957   958
H 104.00993089 18.85845637 -56.17180505     6    955    0    0    0
H 101.76576530 16.40837881 -56.61839906     6    955    0    0    0
C 105.54032827 15.66868468 -58.50448725     1    955   959   960   961
H 106.30442923 14.47236529 -56.87027388     6    958    0    0    0
H 107.03684591 16.92067722 -59.12732223     6    958    0    0    0
H 104.82453618 14.55042734 -60.15010300     6    958    0    0    0
H 70.00752981 22.77450139 -34.22910456     6     963    0    0    0 
C 71.49142062 21.71380811 -33.28786602     1     962    964    965    966
H 70.51661501 20.51983237 -31.89285968     6     963    0    0    0
H 72.47832933 20.54959719 -34.69293347     6     963    0    0    0
C 73.34276933 23.60998326 -32.04432229     2     963    967    968    969
H 74.67790033 22.53242773 -30.86753457     6     966    0    0    0
H 74.37801251 24.75650366 -33.53595826     6     966    0    0    0
C 72.07055844 25.26336727 -30.07668080     2     966    970   971   972
H 70.95739107 24.16443073 -28.73785170     6     969    0    0    0
H 73.18738866 26.20671076 -28.60356503     6     969    0    0    0
C 70.51151205 27.40524724 -31.31862281     2     969   973   974   975
H 71.67134617 28.36164031 -32.81226750     6    972    0    0    0
H 68.95084402 26.33604397 -32.41999273     6    972    0    0    0
C 69.34926530 28.99753660 -29.35268062     2    972   976   977   978
H 68.37116109 27.88001420 -27.95626788     6    975    0    0    0
H 70.83710633 29.93163536 -28.32871306     6    975    0    0    0
C 67.44772340 30.99135293 -30.39889176     2    975   979   980   981
H 68.26837019 31.85252884 -32.02380006     6    978    0    0    0
H 65.99096648 30.13673536 -31.33702837     6    978    0    0    0
C 66.36959162 32.67771485 -28.40848482     2    978   982   983   984
H 65.64334164 31.45729860 -27.06682718     6    981    0    0    0
H 67.78999085 33.69885842 -27.21018435     6    981    0    0    0
C 64.42809401 34.71719206 -29.20223776     2    981   985   986   987
H 65.31378434 36.23602259 -30.32803777     6    984    0    0    0
H 63.00792605 34.02076553 -30.34705607     6    984    0    0    0
C 63.27176706 36.12439460 -27.01224748     2    984   988   989   990
H 62.07300167 34.83403993 -26.02463068     6    987    0    0    0
H 64.59083051 36.50989240 -25.52603826     6    987    0    0    0
C 61.63760070 38.42237300 -27.59732432     2    987   991   992   993
H 63.03243078 39.76040923 -28.17677210     6    990    0    0    0
H 60.49203917 38.17078061 -29.17514789     6    990    0    0    0
C 60.03534216 39.62224956 -25.49735243     2    990   994   995   996
H 58.26163133 38.70207659 -25.19444901     6    993    0    0    0
H 61.31226044 39.35590281 -23.90789084     6    993    0    0    0
C 59.74819753 42.47750322 -26.06417256     1    993   997   998   999
H 61.45448663 43.43147226 -26.60106067     6    996    0    0    0
H 59.11372455 43.44767473 -24.29028996     6    996    0    0    0
H 58.37154951 42.75433958 -27.62292316     6    996    0    0    0
H 66.60365195 9.12686919 -33.60257129     6     1001    0    0    0 
C 65.44424565 10.59656112 -34.52460349     1     1000    1002    1003    1004
H 66.68692688 11.43088228 -36.00453549     6     1001    0    0    0
H 64.14152195 9.48986751 -35.57115013     6     1001    0    0    0
C 64.24646700 12.43962134 -32.46217174     2     1001    1005    1006    1007
H 63.18102191 13.84832050 -33.58672319     6     1004    0    0    0
H 62.96817260 11.48300903 -31.09714515     6     1004    0    0    0
C 66.22622960 13.92146111 -30.79114625     2     1004    1008   1009   1010
H 67.43972619 12.56474359 -30.03665275     6     1007    0    0    0
H 67.55007785 14.89678464 -31.99457606     6     1007    0    0    0
C 64.86997226 15.49992487 -28.77402092     2     1007   1011   1012   1013
H 63.74704291 16.89362920 -29.73560615     6    1010    0    0    0
H 63.53906933 14.39892734 -27.73977939     6    1010    0    0    0
C 66.61086449 17.13410446 -27.28574666     2    1010   1014   1015   1016
H 67.84182402 16.08853504 -26.16467896     6    1013    0    0    0
H 67.78982809 18.05151328 -28.69114328     6    1013    0    0    0
C 65.35213109 18.96016681 -25.39141305     2    1013   1017   1018   1019
H 64.05215852 20.28244003 -26.19586342     6    1016    0    0    0
H 64.31825663 17.94087445 -23.96132286     6    1016    0    0    0
C 67.20466498 20.44638951 -23.92318073     2    1016   1020   1021   1022
H 68.69890161 19.34770596 -22.94772883     6    1019    0    0    0
H 68.44296447 21.55403083 -25.28277554     6    1019    0    0    0
C 65.99107487 22.51929163 -22.26038429     2    1019   1023   1024   1025
H 63.94420770 22.47775242 -22.34211465     6    1022    0    0    0
H 66.04685912 22.16507422 -20.25122039     6    1022    0    0    0
C 66.91359905 25.24929186 -22.87926534     2    1022   1026   1027   1028
H 68.89337670 25.58353162 -22.52155592     6    1025    0    0    0
H 66.84054878 25.73898969 -24.96173059     6    1025    0    0    0
C 65.40504867 27.05492591 -21.22186090     2    1025   1029   1030   1031
H 63.39309351 26.81392264 -21.50920832     6    1028    0    0    0
H 65.68606914 26.49986849 -19.25879012     6    1028    0    0    0
C 66.28478023 29.77961751 -21.41230375     2    1028   1032   1033   1034
H 67.77238305 30.17409305 -19.99971443     6    1031    0    0    0
H 67.05544190 30.27628890 -23.12590934     6    1031    0    0    0
C 64.08347897 31.68656322 -21.09709619     1    1031   1035   1036   1037
H 62.39248712 30.94587330 -22.17506192     6    1034    0    0    0
H 64.50235150 33.54241673 -21.93501168     6    1034    0    0    0
H 63.25488321 31.77248841 -19.18889069     6    1034    0    0    0
H 59.94241806 23.09318333 -56.52837933     6     1039    0    0    0 
C 60.08946175 23.37610910 -58.57464386     1     1038    1040    1041    1042
H 58.09908933 23.73303105 -59.06734337     6     1039    0    0    0
H 61.39556639 25.03330518 -58.73512348     6     1039    0    0    0
C 61.38106757 21.05218664 -59.89340170     2     1039    1043    1044    1045
H 63.05243751 20.73348535 -58.72363758     6     1042    0    0    0
H 59.99653877 19.50795920 -59.49585780     6     1042    0    0    0
C 61.94165757 21.38337247 -62.66733947     2     1042    1046   1047   1048
H 60.51065328 21.97449998 -64.02306874     6     1045    0    0    0
H 63.20011297 22.92236755 -62.71940371     6     1045    0    0    0
C 63.35076148 18.98972770 -63.82103875     2     1045   1049   1050   1051
H 65.01186047 18.44993675 -62.67604702     6    1048    0    0    0
H 62.21586604 17.16629491 -63.78207011     6    1048    0    0    0
C 64.33165332 19.28117617 -66.46868232     2    1048   1052   1053   1054
H 62.83237671 19.14671745 -67.77866518     6    1051    0    0    0
H 64.96676531 21.27914587 -66.52297087     6    1051    0    0    0
C 66.48423735 17.49365097 -67.28313642     2    1051   1055   1056   1057
H 68.04336831 17.65776169 -65.96785672     6    1054    0    0    0
H 65.82417972 15.49653981 -67.12131544     6    1054    0    0    0
C 67.38962202 17.97391481 -69.91967421     2    1054   1058   1059   1060
H 65.73106040 17.82250663 -71.17864493     6    1057    0    0    0
H 68.09109771 19.81937298 -70.34127519     6    1057    0    0    0
C 69.49722444 16.07414038 -70.62782180     2    1057   1061   1062   1063
H 70.66274687 15.73144681 -68.98986561     6    1060    0    0    0
H 68.81414374 14.16855547 -71.00839787     6    1060    0    0    0
C 70.99761189 16.62857627 -73.04640738     2    1060   1064   1065   1066
H 69.60591110 16.19297829 -74.61792055     6    1063    0    0    0
H 71.25542329 18.73995609 -73.10898313     6    1063    0    0    0
C 73.37887325 15.01128643 -73.16431667     2    1063   1067   1068   1069
H 74.63974068 15.58370222 -71.85693976     6    1066    0    0    0
H 72.92165995 13.13185739 -72.64995533     6    1066    0    0    0
C 74.58278100 15.06077147 -75.80627072     2    1066   1070   1071   1072
H 73.43391785 13.90666106 -77.16991592     6    1069    0    0    0
H 74.52801841 16.91129031 -76.53369843     6    1069    0    0    0
C 77.39738111 14.47086509 -75.83121353     1    1069   1073   1074   1075
H 78.43558240 15.23695547 -74.34830809     6    1072    0    0    0
H 78.33025617 15.08212377 -77.61826965     6    1072    0    0    0
H 77.54142307 12.28864278 -75.83429592     6    1072    0    0    0
H 82.59983785 33.18458400 -75.57310858     6     1077    0    0    0 
C 81.39743190 31.44839800 -75.62247750     1     1076    1078    1079    1080
H 79.70563405 31.79343798 -76.80730080     6     1077    0    0    0
H 82.53939603 29.98837368 -76.49265230     6     1077    0    0    0
C 80.55252299 30.65699461 -72.97183017     2     1077    1081    1082    1083
H 79.77969066 32.22713566 -71.84849263     6     1080    0    0    0
H 78.90884442 29.41028331 -73.17814101     6     1080    0    0    0
C 82.74630463 29.27137308 -71.64903477     2     1080    1084   1085   1086
H 83.49552691 27.78328552 -72.84845381     6     1083    0    0    0
H 84.30523467 30.48134096 -71.24450502     6     1083    0    0    0
C 81.79774457 27.95531009 -69.38511851     2     1083   1087   1088   1089
[...]
 1803      H      79.1530869000    38.3562984500   -71.3149136300
 1804      H      77.9756888700    40.3579982900   -68.9866118300
 1805      C      75.7129611000    36.8799426800   -69.8400633000
 1806      H      73.8103378300    37.6183726700   -69.1743828800
 1807      H      75.2180943100    35.7563801700   -71.4456001900
 1808      C      76.9539600600    35.3950340200   -67.7572602500
 1809      H      78.9705927400    35.1745781300   -68.0387152500
 1810      H      77.1023255500    36.6005556100   -66.1039455000
 1811      C      75.6654622300    32.9271886400   -66.8421556700
 1812      H      73.7238663600    33.2663467200   -66.3582120000
 1813      H      75.4250952700    31.5523386700   -68.2656855000
 1814      C      77.0024284300    31.7483811900   -64.5526879700
 1815      H      79.0839622500    31.8466455800   -64.7659915700
 1816      H      76.2274634300    32.6101888600   -62.8948107000
 1817      C      76.6476735000    28.8400552200   -63.9877503200
 1818      H      74.6345678900    28.5440794300   -63.4279947600
 1819      H      77.2106753600    27.6733618600   -65.7026254100
 1820      C      78.5114510000    28.0425870200   -61.7727911400
 1821      H      80.5010719300    28.3154318700   -62.3505682000
 1822      H      78.1080017700    29.2402261000   -60.1513474100
 1823      C      77.7920398000    25.3810375800   -60.9816312500
 1824      H      75.7055638400    25.4829728500   -60.8642255500
 1825      H      78.3510667300    23.9718487400   -62.4504268500
 1826      C      78.8743553500    24.4725144900   -58.3892584000
 1827      H      80.8387009200    24.8771398900   -58.5864073000
 1828      H      78.1527771400    25.5644451200   -56.8795459100
 1829      C      78.4426527000    21.7576440200   -57.8483142200
 1830      H      76.5683865900    21.5762435300   -57.2744346900
 1831      H      78.7608408100    20.5570960000   -59.5487052500
 1832      C      80.2034707300    20.6010249400   -55.8748252100
 1833      H      80.2974739000    21.7099931700   -54.2629826300
 1834      H      82.1006635200    20.4500919300   -56.5144982200
 1835      H      79.4933729900    18.6872993000   -55.4403193500
 1836      H      80.9718871000    27.3779111500   -53.8324663700
 1837      C      82.1449159700    28.9523192100   -52.9524594200
 1838      H      80.8737281400    30.5789283300   -52.7380950700
 1839      H      82.9130578500    28.0267713400   -51.2269548200
 1840      C      84.2563459700    29.7515952000   -54.9700130400
 1841      H      85.2793332700    31.3201885700   -53.9532881000
 1842      H      85.5605755500    28.1751818700   -54.9495403800
 1843      C      83.5450680000    30.5542812900   -57.6555134100
 1844      H      82.6693760600    28.9513150000   -58.6408223200
 1845      H      82.0972814000    31.8674473700   -57.4747941400
 1846      C      85.5875804000    31.4908325900   -59.4802191800
 1847      H      86.5088238100    33.1403405800   -58.7306683300
 1848      H      87.0345974200    30.0570330200   -59.4239115300
 1849      C      84.5587737900    32.0546179800   -62.2206306500
 1850      H      83.7530441300    30.3558996200   -63.0916118100
 1851      H      82.9575477800    33.3689884400   -62.0285528900
 1852      C      86.3420492100    33.0668760100   -64.2529446100
 1853      H      87.6511482000    31.6808237300   -64.9777459000
 1854      H      85.1799415500    33.4269201200   -65.8805815200
 1855      C      88.0903752700    35.3250797400   -63.4854228900
 1856      H      86.8779598500    36.4401272700   -62.2273344200
 1857      H      89.6617914000    34.4362972400   -62.1833711700
 1858      C      89.2327177000    36.7678505200   -65.8678636500
 1859      H      90.3119243000    35.4244028900   -67.0566382200
 1860      H      87.6756661600    37.3195847600   -67.0055640200
 1861      C      90.9501333400    39.0609423700   -65.1792985700
 1862      H      90.0096495200    40.0503391300   -63.6602422600
 1863      H      92.7336283900    38.2403538800   -64.5254211300
 1864      C      91.5251638700    40.7955299100   -67.5297220400
 1865      H      92.9624843200    39.9025624600   -68.6703364400
 1866      H      89.9130350400    40.8195387600   -68.7261144100
 1867      C      92.4809700300    43.5430530400   -66.8044363400
 1868      H      90.9908435600    44.6357258400   -65.7840623200
 1869      H      94.2173063500    43.4223366100   -65.6996620000
 1870      C      93.0794270400    45.1314449500   -69.1437243500
 1871      H      92.9316960300    47.1430145600   -68.8561652400
 1872      H      91.8646123600    44.4094931700   -70.6553004600
 1873      H      94.9289347500    44.8455493500   -69.9023320400
 1874      H      71.1680099400    53.0091117400   -42.3443038400
 1875      C      69.7910326800    51.7588271400   -43.1496207300
 1876      H      67.8858173000    52.3852241800   -42.9664660200
 1877      H      70.2174508900    51.4835316700   -45.1609934400
 1878      C      70.2354638100    49.1527412600   -41.9561554700
 1879      H      72.1373876700    48.4916350000   -42.5130928500
 1880      H      70.1576265400    49.4018366200   -39.9089954900
 1881      C      68.4067623900    47.0474895400   -42.7190425100
 1882      H      66.6901065000    47.9885666200   -42.5757867600
 1883      H      68.6092540200    46.8705412400   -44.8269450600
 1884      C      68.9054296300    44.5969789700   -41.1732381100
 1885      H      70.8900145000    44.2026567000   -40.7584907700
 1886      H      68.5107863800    45.1414210100   -39.1964819000
 1887      C      67.6883690300    42.1833348200   -42.0624555100
 1888      H      65.7460845300    42.4574822900   -42.7342941800
 1889      H      68.6971539700    41.5228243900   -43.6885732300
 1890      C      67.7137726400    40.1510019300   -40.0420526900
 1891      H      69.5398141800    40.0071281500   -39.3979287500
 1892      H      66.7338902200    40.9042769700   -38.3439606300
 1893      C      66.1108842800    37.7838274400   -40.7386938000
 1894      H      64.0442821900    38.3147533000   -41.1312999300
 1895      H      66.9546485600    36.8904504100   -42.5059605300
 1896      C      65.9219410600    35.9750311200   -38.5423533100
 1897      H      67.7489296800    35.6460690600   -37.6522667800
 1898      H      64.6355919000    36.8413675600   -37.1477522500
 1899      C      65.0841590100    33.4254424400   -39.5432875100
 1900      H      63.1632452100    33.7347493000   -40.4872149900
 1901      H      66.2801860400    32.7851919600   -41.0774528100
 1902      C      65.1348105200    31.4355859400   -37.4175512400
 1903      H      66.9401179700    31.4511468600   -36.4232153800
 1904      H      63.9328043700    31.9808523300   -35.9319917800
 1905      C      64.6109039200    28.7715836300   -38.4330649700
 1906      H      65.3378796100    28.3606598100   -40.2548396500
 1907      H      65.5762376000    27.3491316800   -37.1319878600
 1908      C      61.8176942900    28.0729446400   -38.6061021400
 1909      H      60.6265642300    29.1179578200   -39.9121280800
 1910      H      60.8440917800    28.2946373100   -36.8517944000
 1911      H      61.5570696400    26.0775097400   -38.9573393600
 ----------------------------------------------------------------
 Nuclear Repulsion Energy =           0.00000000 hartrees
 There are     2498 alpha and     2498 beta electrons

 Total QAlloc Memory Limit   2000 MB
 Mega-Array Size       204 MB
 MEM_STATIC part       192 MB
   **** Step 1: MM calculation on the entire system **** 
 OPLSAA force field loaded.
Reading user-defined FF parameters...
 Reading user defined atom types.
 Found 3 user defined AtomTypes
finished.
Determining angles, torsions, etc. from user defined input
Determining VDW/Coulomb pairs... (useList = 0)

 Time req'd to get MM system information: 0.2 s (CPU) 0.6 s (wall)

 ------ MM Energies ------
   Ebond:           556.479284299721
   Eangle:          872.929769408723
   EUreyBrad:         0.000000000000
   Eimptors:          0.000000000000
   Etorsion:        231.781270855756
   Evdw:        1193822.107446783222
   Ecoulomb:        183.518163409439
   Etot:        1195666.815934757004 Kcal/mol (   1905.416366113711 hartree)
 -------------------------
 Time req'd to calc MM energy: 0.1 s (CPU) 0.1 s (wall)
 OPLSAA force field loaded.
Reading user-defined FF parameters...
 Reading user defined atom types.
 Found 3 user defined AtomTypes
finished.
 Time req'd to get MM system information: 0.0 s (CPU) 0.0 s (wall)
 Time req'd to calc MM gradient: 0.2 s (CPU) 0.2 s (wall)
   **** Step 2: MM calculation on the model system **** 
 Reading user defined atom types.
 Found 3 user defined AtomTypes
 ----------------------------------------------------------------
             Standard Nuclear Orientation (Bohr)
    I     Atom           X                Y                Z
 ----------------------------------------------------------------
    1      Fe     74.1684298900    34.2527628100   -43.1296210400
    2      C      72.7175410900    33.6331517000   -40.0239356900
    3      C      74.6079145700    37.0404950800   -45.2043138900
    4      C      77.0791708800    35.2867613500   -41.3994440100
    5      C      75.9489821000    31.6194146200   -44.5841661200
    6      C      71.1494069900    33.6484172500   -44.4304591800
    7      O      71.9892418700    33.2634031400   -38.0123131600
    8      O      74.8452215500    38.8168921700   -46.4937790000
    9      O      78.8300392700    35.8964286000   -40.2652006800
   10      O      76.9095934200    29.8737993700   -45.5003231000
   11      O      69.1683815800    33.3978958100   -45.3509524700
 ----------------------------------------------------------------
 Nuclear Repulsion Energy =         792.22015887 hartrees
 There are       48 alpha and       48 beta electrons
 OPLSAA force field loaded.
Reading user-defined FF parameters...
 Reading user defined atom types.
 Found 3 user defined AtomTypes
finished.
Determining VDW/Coulomb pairs... (useList = 0)

 No MM bonds in system. Return all possible pairs.
 Time req'd to get MM system information: 0.0 s (CPU) 0.0 s (wall)

 ------ MM Energies ------
   Ebond:             0.000000000000
   Eangle:            0.000000000000
   EUreyBrad:         0.000000000000
   Eimptors:          0.000000000000
   Etorsion:          0.000000000000
   Evdw:        1194254.647162962239
   Ecoulomb:         -6.581935155667
   Etot:        1194248.065227806568 Kcal/mol (   1903.155442936425 hartree)
 -------------------------
 Eold: 1905.4163661 mm_energy: 1903.1554429 Enew:    2.2609232
 Time req'd to calc MM energy: 0.0 s (CPU) 0.0 s (wall)
 OPLSAA force field loaded.
Reading user-defined FF parameters...
 Reading user defined atom types.
 Found 3 user defined AtomTypes
finished.
Determining VDW/Coulomb pairs... (useList = 0)

 No MM bonds in system. Return all possible pairs.
 Time req'd to get MM system information: 0.0 s (CPU) 0.0 s (wall)
 Number of fixed atoms: 0
 Time req'd to calc MM gradient: 0.0 s (CPU) 0.0 s (wall)
   **** Step 3: QM calculation on the model system **** 
 Requested basis set is def2-mSVP
 There are 80 shells and 174 basis functions

                       Distance Matrix (Bohrs)
             Fe(  1)   C (  2)   C (  3)   C (  4)   C (  5)   C (  6)
   C (  2)  3.483429
   C (  3)  3.502706  6.482270
   C (  4)  3.540491  4.863154  4.864126
   C (  5)  3.495796  5.940795  5.618822  4.986904
   C (  6)  3.342441  4.677256  4.905743  6.858085  5.213099
   O (  7)  5.649295  2.171119  8.535148  6.440032  7.846750  6.484301
   O (  8)  5.710244  8.559034  2.207855  6.588217  7.527854  6.680529
   O (  9)  5.712893  6.522520  6.597732  2.173417  6.726574  9.021920
   O ( 10)  5.684147  7.854734  7.533052  6.793094  2.193009  6.969368
   O ( 11)  5.537652  6.405387  6.548172  9.042280  7.051773  2.198757
             O (  7)   O (  8)   O (  9)   O ( 10)
   O (  8) 10.532479
   O (  9)  7.668431  7.950036
   O ( 10)  9.579643  9.231874  8.207721
   O ( 11)  7.863267  7.930831 11.200677  8.506934

 A cutoff of  1.0D-11 yielded   2474 shell pairs
 There are     12738 function pairs (     14586 Cartesian)
 Smallest overlap matrix eigenvalue = 2.79E-03
 Guess MOs from SCF MO coefficient file
 Reading MOs from coefficient file
 Reading MOs from coefficient file
 A restricted Kohn-Sham SCF calculation will be
 performed using Pulay DIIS extrapolation
 Exchange:  B88      Correlation:  P86
 Using SG-1 standard quadrature grid
 SCF converges when DIIS error is below 1.0E-08
 Using Q-Chem read-in guess as SCF_GUESS READ specified.

 using 2 threads for integral computing
 -------------------------------------------------------
 OpenMP Integral computing Module                
 Release: version 1.0, May 2013, Q-Chem Inc. Pittsburgh 
 -------------------------------------------------------
 ---------------------------------------
  Cycle       Energy         DIIS Error
 ---------------------------------------
    1   -1830.5223019799      2.06E-09
    2   -1830.5223019797      1.72E-08
    3   -1830.5223019800      5.17E-09 Convergence criterion met
 ---------------------------------------
 SCF time:  CPU 4.06 s  wall 2.15 s
 E(QM + QM/MM):    -1830.5223019800 E(MM):    2.2609232 E(Tot): -1828.261378802737 
 SCF   energy in the final basis set = -1828.26137880
 Total energy in the final basis set = -1828.26137880

 --------------------------------------------------------------

                    Orbital Energies (a.u.)
 --------------------------------------------------------------

 Alpha MOs
 -- Occupied --
******** -29.6299 -25.5900 -25.5793 -25.5713 -18.8948 -18.8789 -18.8783
-18.8766 -18.8752 -10.0589 -10.0446 -10.0432 -10.0428 -10.0400  -3.3126
 -2.1486  -2.1278  -2.1105  -1.0736  -1.0596  -1.0500  -1.0493  -1.0475
 -0.5672  -0.5251  -0.5181  -0.5147  -0.5112  -0.4558  -0.4471  -0.4405
 -0.4349  -0.4302  -0.4254  -0.4216  -0.4208  -0.4149  -0.4106  -0.4095
 -0.4076  -0.3989  -0.3901  -0.3803  -0.2736  -0.2602  -0.2313  -0.2109
 -- Virtual --
 -0.0932  -0.0919  -0.0840  -0.0753  -0.0724  -0.0705  -0.0614  -0.0591
 -0.0529  -0.0394  -0.0195   0.0109   0.1925   0.2119   0.2244   0.2509
  0.2960   0.3180   0.3508   0.3942   0.4095   0.4227   0.4299   0.4416
  0.4513   0.4749   0.4843   0.5060   0.5232   0.5486   0.5817   0.6071
  0.6097   0.6272   0.6384   0.6531   0.7371   0.7514   0.7558   0.7624
  0.7712   0.8316   0.8413   0.8645   0.8756   0.8969   0.9451   0.9555
  0.9761   0.9796   0.9845   1.0025   1.0223   1.0280   1.0461   1.0662
  1.2029   1.2268   1.2509   1.3358   1.4034   1.4057   1.4129   1.4150
  1.4159   1.4183   1.4224   1.4325   1.4493   1.4605   1.4681   1.4774
  1.4974   1.5176   1.5407   1.5658   1.5834   1.6171   1.6408   1.6724
  1.6788   1.8216   1.8312   1.8422   1.8449   1.8495   1.8526   1.8539
  1.8577   1.8643   1.8693   1.8803   1.8853   1.8933   1.9084   1.9462
  2.3852   2.4221   2.4305   2.4566   2.4679   2.4727   2.4891   2.4975
  2.5177   2.5497   2.6395   2.6469   2.6511   2.6774   2.6836   2.8173
  2.8281   2.8863   2.8920   2.9931  13.2414  13.2653  13.3099  13.3444
 13.4184  24.9385  24.9459  24.9535  24.9764  25.0243
 --------------------------------------------------------------

          Ground-State Mulliken Net Atomic Charges

     Atom                 Charge (a.u.)
  ----------------------------------------
      1 Fe                   -0.482344
      2 C                     0.190320
      3 C                     0.217412
      4 C                     0.206816
      5 C                     0.232972
      6 C                     0.168588
      7 O                    -0.100011
      8 O                    -0.115607
      9 O                    -0.087222
     10 O                    -0.108920
     11 O                    -0.122003
  ----------------------------------------
  Sum of atomic charges =     0.000000

 -----------------------------------------------------------------
                    Cartesian Multipole Moments
 -----------------------------------------------------------------
    Charge (ESU x 10^10)
                -0.0000
    Dipole Moment (Debye)
         X       0.4632158974      Y       0.0594005104      Z       0.2700280586
       Tot       0.5394557819
    Quadrupole Moments (Debye-Ang)
        XX     -32.5408     XY      11.1260     YY     -67.5437
        XZ       0.0488     YZ       3.7919     ZZ     -81.9901
    Octopole Moments (Debye-Ang^2)
       XXX   -5980.4374    XXY    -465.0419    XYY   -2493.0356
       YYY   -3731.9009    XXZ    1161.5816    XYZ     -53.6605
       YYZ    1646.7013    XZZ   -2979.8297    YZZ   -1467.1273
       ZZZ    5186.1757
    Hexadecapole Moments (Debye-Ang^3)
      XXXX -526906.3413   XXXY -102769.6504   XXYY -114443.3363
      XYYY -143814.5363   YYYY -136625.5791   XXXZ  153013.8288
      XXYZ   18422.6429   XYYZ   60954.2356   YYYZ   87451.1627
      XXZZ -143813.3134   XYZZ  -52974.0261   YYZZ  -63116.1261
      XZZZ  198210.7328   YZZZ   93749.1482   ZZZZ -230797.3979
 -----------------------------------------------------------------
 Calculating MO derivatives via CPSCF
 Full subspace dimension requested for CIS/TDDFT
 MAX_CIS_SUBSPACE fits in available memory
    1     0    36    0.0394446  
    2     0    36    0.0065620  
    3     0    36    0.0006920  
    4     0    36    0.0000571  
    5    33     3    0.0000016  
    6    36     0    0.0000000  Converged
 Time for AOints: 6.5 s (CPU) 3.3 s (wall)
 ------------------------------------------------------------------------------
                     AOints        : Timing summary (seconds)
 ------------------------------------------------------------------------------
     job step          cpu (% of tot)      sys (% of tot)     wall (% of tot)
 ------------------------------------------------------------------------------
  AOints            0.6457E+01 ( 3.7)   0.1200E-04 (11.4)   0.3292E+01 ( 3.8)
 ------------------------------------------------------------------------------
   Grand Totals     0.1735E+03          0.1050E-03          0.8736E+02
 ------------------------------------------------------------------------------
 Polarizability Matrix (a.u.)
            1           2           3
    1 -98.5130954  -5.0731506  -3.2699417
    2  -5.0731506 -84.4819996   3.9477524
    3  -3.2699417   3.9477524 -95.4868418
 Derivative of Dipole Moment Matrix (a.u.)
            1           2           3
    1  -1.7910452  -0.0158552  -0.0266201
    2  -0.0707275  -1.7837860   0.0148723
    3  -0.0326150   0.0413035  -1.8384356
    4   0.6564930   0.1023871  -0.6679635
    5   0.1560671   0.4450642  -0.3371199
    6  -0.7953093  -0.3168005   2.0435696
    7   0.3718560   0.1760464  -0.1631401
    8   0.1005525   1.6670717  -0.8922189
    9  -0.0905942  -0.9917739   1.0715278
   10   1.5755902   0.4377799   0.7745880
   11   0.4104118   0.5668611   0.2845442
   12   0.7659145   0.3004318   0.8627394
   13   0.7863976  -0.6952709  -0.3645720
   14  -0.6915378   1.6426182   0.6204943
   15  -0.3874480   0.6660189   0.7686981
   16   1.9779728   0.2698928   0.6997955
   17   0.2315956   0.4893892   0.1236405
   18   0.6823382   0.1371983   0.7205667
   19  -0.3671866  -0.0866405   0.5053373
   20  -0.1157311  -0.2081267   0.2604271
   21   0.6450698   0.2653318  -1.5238201
   22  -0.1656345  -0.1431414   0.1220087
   23  -0.1168069  -1.1937606   0.7417009
   24   0.0982354   0.7691812  -0.7148397
   25  -1.1332616  -0.3564574  -0.6187565
   26  -0.3437901  -0.2668209  -0.2192570
   27  -0.6484688  -0.2383490  -0.5287693
   28  -0.4884929   0.5397595   0.2923009
   29   0.5969516  -1.1593529  -0.5195817
   30   0.3238481  -0.5223989  -0.4580048
   31  -1.4226888  -0.2285002  -0.5529782
   32  -0.1569851  -0.1991571  -0.0775020
   33  -0.5609706  -0.1101430  -0.4032320
 -----------------------------------------
 Net:  -0.00000  -0.00000  -0.00000
 -----------------------------------------

 Calculating analytic Hessian of the SCF energy
