                  Welcome to Q-Chem
     A Quantum Leap Into The Future Of Chemistry


 Q-Chem 5.4 (devel), Q-Chem, Inc., Pleasanton, CA (2021)

 E. Epifanovsky,  A. T. B. Gilbert,  Xintian Feng,  Joonho Lee,  Yuezhi Mao,  
 N. Mardirossian,  P. Pokhilko,  A. White,  M. Wormit,  M. P. Coons,  
 A. L. Dempwolff,  Zhengting Gan,  D. Hait,  P. R. Horn,  L. D. Jacobson,  
 I. Kaliman,  J. Kussmann,  A. W. Lange,  Ka Un Lao,  D. S. Levine,  Jie Liu,  
 S. C. McKenzie,  A. F. Morrison,  K. Nanda,  F. Plasser,  D. R. Rehn,  
 M. L. Vidal,  Zhi-Qiang You,  Ying Zhu,  B. Alam,  B. Albrecht,  
 A. Aldossary,  E. Alguire,  J. H. Andersen,  D. Barton,  K. Begam,  A. Behn,  
 Y. A. Bernard,  E. J. Berquist,  H. Burton,  A. Carreras,  K. Carter-Fenk,  
 R. Chakraborty,  A. D. Chien,  K. D. Closser,  V. Cofer-Shabica,  
 S. Dasgupta,  Jia Deng,  M. de Wergifosse,  M. Diedenhofen,  Hainam Do,  
 S. Ehlert,  Po-Tung Fang,  S. Fatehi,  Qingguo Feng,  T. Friedhoff,  
 J. Gayvert,  Qinghui Ge,  G. Gidofalvi,  M. Goldey,  J. Gomes,  
 C. Gonzalez-Espinoza,  S. Gulania,  A. Gunina,  M. W. D. Hanson-Heine,  
 P. H. P. Harbach,  A. W. Hauser,  M. F. Herbst,  M. Hernandez Vera,  
 M. Hodecker,  Z. C. Holden,  S. Houck,  Xunkun Huang,  Kerwin Hui,  
 B. C. Huynh,  M. Ivanov,  Hyunjun Ji,  Hanjie Jiang,  B. Kaduk,  S. Kaehler,  
 K. Khistyaev,  Jaehoon Kim,  P. Klunzinger,  Z. Koczor-Benda,  
 Joong Hoon Koh,  D. Kosenkov,  L. Koulias,  T. Kowalczyk,  C. M. Krauter,  
 K. Kue,  A. Kunitsa,  T. Kus,  A. Landau,  K. V. Lawler,  D. Lefrancois,  
 S. Lehtola,  Rain Li,  Yi-Pei Li,  Jiashu Liang,  M. Liebenthal,  
 Hung-Hsuan Lin,  You-Sheng Lin,  Fenglai Liu,  Kuan-Yu Liu,  
 M. Loipersberger,  A. Luenser,  A. Manjanath,  P. Manohar,  E. Mansoor,  
 S. F. Manzer,  Shan-Ping Mao,  A. V. Marenich,  T. Markovich,  S. Mason,  
 S. A. Maurer,  P. F. McLaughlin,  M. F. S. J. Menger,  J.-M. Mewes,  
 S. A. Mewes,  P. Morgante,  J. W. Mullinax,  K. J. Oosterbaan,  G. Paran,  
 Alexander C. Paul,  Suranjan K. Paul,  F. Pavosevic,  Zheng Pei,  S. Prager,  
 E. I. Proynov,  E. Ramos,  B. Rana,  A. E. Rask,  A. Rettig,  R. M. Richard,  
 F. Rob,  E. Rossomme,  T. Scheele,  M. Scheurer,  M. Schneider,  
 N. Sergueev,  S. M. Sharada,  W. Skomorowski,  D. W. Small,  C. J. Stein,  
 Yu-Chuan Su,  E. J. Sundstrom,  Zhen Tao,  J. Thirman,  T. Tsuchimochi,  
 N. M. Tubman,  S. P. Veccham,  O. Vydrov,  J. Wenzel,  J. Witte,  A. Yamada,  
 Kun Yao,  S. Yeganeh,  S. R. Yost,  A. Zech,  Igor Ying Zhang,  Xing Zhang,  
 Yu Zhang,  D. Zuev,  A. Aspuru-Guzik,  A. T. Bell,  N. A. Besley,  
 K. B. Bravaya,  B. R. Brooks,  D. Casanova,  Jeng-Da Chai,  S. Coriani,  
 C. J. Cramer,  A. E. DePrince, III,  R. A. DiStasio Jr.,  A. Dreuw,  
 B. D. Dunietz,  T. R. Furlani,  W. A. Goddard III,  S. Grimme,  
 S. Hammes-Schiffer,  T. Head-Gordon,  W. J. Hehre,  Chao-Ping Hsu,  
 T.-C. Jagau,  Yousung Jung,  A. Klamt,  Jing Kong,  D. S. Lambrecht,  
 WanZhen Liang,  N. J. Mayhall,  C. W. McCurdy,  J. B. Neaton,  
 C. Ochsenfeld,  J. A. Parkhill,  R. Peverati,  V. A. Rassolov,  Yihan Shao,  
 L. V. Slipchenko,  T. Stauch,  R. P. Steele,  J. E. Subotnik,  
 A. J. W. Thom,  A. Tkatchenko,  D. G. Truhlar,  T. Van Voorhis,  
 T. A. Wesolowski,  K. B. Whaley,  H. L. Woodcock III,  P. M. Zimmerman,  
 S. Faraji,  P. M. W. Gill,  M. Head-Gordon,  J. M. Herbert,  A. I. Krylov

 Additional authors for Version 5.4.1: 
 S. Kotaru,  Shaozhi Li,  Xiangyuan Li,  F. Matz,  A. Molle,  Haisheng Ren,  
 Yingli Su,  Hung-Yi Tsai,  C. Utku,  Fang Wang

 Contributors to earlier versions of Q-Chem not listed above: 
 R. D. Adamson,  B. Austin,  R. Baer,  J. Baker,  G. J. O. Beran,  
 K. Brandhorst,  S. T. Brown,  E. F. C. Byrd,  A. K. Chakraborty,  
 G. K. L. Chan,  Chun-Min Chang,  Yunqing Chen,  C.-L. Cheng,  
 Siu Hung Chien,  D. M. Chipman,  D. L. Crittenden,  H. Dachsel,  
 R. J. Doerksen,  A. D. Dutoi,  R. G. Edgar,  J. Fosso-Tande,  
 L. Fusti-Molnar,  D. Ghosh,  A. Ghysels,  A. Golubeva-Zadorozhnaya,  
 J. Gonthier,  M. S. Gordon,  S. R. Gwaltney,  G. Hawkins,  J. E. Herr,  
 A. Heyden,  S. Hirata,  E. G. Hohenstein,  G. Kedziora,  F. J. Keil,  
 C. Kelley,  Jihan Kim,  R. A. King,  R. Z. Khaliullin,  P. P. Korambath,  
 W. Kurlancheek,  A. Laurent,  A. M. Lee,  M. S. Lee,  S. V. Levchenko,  
 Ching Yeh Lin,  D. Liotard,  E. Livshits,  R. C. Lochan,  I. Lotan,  
 L. A. Martinez-Martinez,  P. E. Maslen,  N. Nair,  D. P. O'Neill,  
 D. Neuhauser,  E. Neuscamman,  C. M. Oana,  R. Olivares-Amaya,  R. Olson,  
 T. M. Perrine,  B. Peters,  P. A. Pieniazek,  A. Prociuk,  Y. M. Rhee,  
 J. Ritchie,  M. A. Rohrdanz,  E. Rosta,  N. J. Russ,  H. F. Schaefer III,  
 M. W. Schmidt,  N. E. Schultz,  S. Sharma,  N. Shenvi,  C. D. Sherrill,  
 A. C. Simmonett,  A. Sodt,  T. Stein,  D. Stuck,  K. S. Thanthiriwatte,  
 V. Vanovschi,  L. Vogt,  Tao Wang,  A. Warshel,  M. A. Watson,  
 C. F. Williams,  Q. Wu,  X. Xu,  Jun Yang,  W. Zhang,  Yan Zhao

 Please cite Q-Chem as follows:
 Y. Shao et al., Mol. Phys. 113, 184-215 (2015)
 DOI: 10.1080/00268976.2014.952696

 Q-Chem 5.4.1 for Intel X86 EM64T Linux

 Parts of Q-Chem use Armadillo 9.900.5 (Nocturnal Misbehaviour).
 http://arma.sourceforge.net/

 Q-Chem begins on Wed Jun 22 08:05:25 2022  

 Host: p09r16n04.grace.hpc.yale.internal
0

     Scratch files written to /home/tl686/scratch60/qchem_dev/scratch/qchem69862//
 Processing $rem in /home/tl686/qchem_dev/qchem/config/preferences:
 Processing $rem in /home/tl686/.qchemrc:
Applying user defined connections for MM calculations

 Checking the input file for inconsistencies... 	...done.

--------------------------------------------------------------
User input:
--------------------------------------------------------------
$molecule
0   1
 Fe 361.56678392 12.65342872 -40.62572139    -1  0   0   0   0
C 359.49653310 13.76331536 -42.87300638    -2  0   0   0   0 
C 364.80762397 11.66334863 -41.39257951    -2  0   0   0   0
C 362.76142062 15.77462731 -39.93823029    -2  0   0   0   0
C 360.69253503 12.25700425 -37.32813556    -2  0   0   0   0
C 360.06988586 9.70683037 -41.39794998    -2  0   0   0   0
O 358.03826509 14.54760188 -44.59213864    -3  0   0   0   0
O 366.74468180 10.76110279 -41.86262420    -3  0   0   0   0 
O 363.61447082 17.68208458 -39.41502217    -3  0   0   0   0
O 360.14276135 12.48988906 -35.20250444    -3  0   0   0   0 
O 358.93876121 7.83778968 -41.81366846    -3  0   0   0   0
H 350.64102488 37.01299292 -43.88945440      6     13    0    0    0 
C 349.16702296 37.29924804 -42.55065631     1     12    14    15    16
H 349.48474515 39.31185571 -41.78409872     6     13    0    0    0
H 347.20269536 37.38747652 -43.45776459     6     13    0    0    0
C 349.54294920 35.36508978 -40.48125038     2     13    17    18    19
H 351.35205899 35.55928529 -39.59750033     6     16    0    0    0
H 348.22588371 35.78423380 -38.95118812     6     16    0    0    0
C 349.24829360 32.47638530 -41.09694011     2     16    20   21   22
H 347.36527939 32.16774759 -41.86534667     6     19    0    0    0
H 350.57618731 31.72287230 -42.43421227     6     19    0    0    0
C 349.41033882 30.89106303 -38.75772203     2     19   23   24   25
H 351.04414789 31.56829666 -37.64593169     6    22    0    0    0
H 348.10674090 31.66508369 -37.45746875     6    22    0    0    0
C 348.65758348 28.07179487 -38.91058036     2    22   26   27   28
H 347.10509069 27.75038879 -40.22972610     6    25    0    0    0
H 350.33077162 27.10670947 -39.34060127     6    25    0    0    0
C 347.91852095 27.31953388 -36.27000778     2    25   29   30   31
H 349.15466881 28.19710765 -34.94118698     6    28    0    0    0
H 345.87379987 27.46777033 -36.07567412     6    28    0    0    0
C 348.25049430 24.41923212 -35.94139368     2    28   32   33   34
H 346.90945538 23.87355619 -37.44586443     6    31    0    0    0
H 350.20028490 23.85985218 -36.35534793     6    31    0    0    0
C 347.34634657 23.54040533 -33.21011420     2    31   35   36   37
H 348.18282459 24.75739399 -31.66153094     6    34    0    0    0
H 345.30870683 23.76595106 -33.07501280     6    34    0    0    0
C 347.59625543 20.76483802 -32.48283568     2    34   38   39   40
H 346.42963623 19.97180525 -34.00386479     6    37    0    0    0
H 349.53900413 20.04908036 -32.78832291     6    37    0    0    0
C 346.31814157 19.88191588 -29.91305071     2    37   41   42   43
H 347.08193929 21.03582881 -28.22246220     6    40    0    0    0
H 344.28996937 20.49327828 -29.88532258     6    40    0    0    0
C 346.85290996 17.00104064 -29.51397088     2    40   44   45   46
H 345.93286561 16.04775313 -31.15519687     6    43    0    0    0
H 348.96284474 16.64516072 -29.48003866     6    43    0    0    0
C 345.83711158 15.97416598 -26.92972792     1    43   47   48   49
H 346.66119218 16.86217131 -25.15468250     6    46    0    0    0
H 346.35206699 13.94511794 -26.87145360     6    46    0    0    0
H 343.81526187 16.24844254 -26.58484537     6    46    0    0    0
H 351.91448257 9.39022928 -36.11275907     6     51    0    0    0 
C 353.18150839 10.96483407 -35.76996264     1     50    52    53    54
H 354.92293567 10.26838606 -35.00813829     6     51    0    0    0
H 353.49327831 12.04554761 -37.48634117     6     51    0    0    0
C 352.27401752 12.84050685 -33.73764117     2     51    55    56    57
H 353.90786097 14.09305819 -33.42376105     6     54    0    0    0
H 350.86055578 14.22275190 -34.17572159     6     54    0    0    0
C 351.61636138 11.41297726 -31.38781790     2     54    58   59   60
H 352.98534970 9.94388487 -30.95009788     6     57    0    0    0
H 351.71187112 12.73260614 -29.83060606     6     57    0    0    0
C 348.98041217 10.24447003 -31.38616160     2     57   61   62   63
H 347.50960945 11.68099286 -31.28685894     6    60    0    0    0
H 348.55786554 9.40007088 -33.21118211     6    60    0    0    0
C 348.65068218 8.44707778 -29.20128883     2    60   64   65   66
H 350.15469523 7.03749366 -29.16330555     6    63    0    0    0
H 348.95236881 9.61689101 -27.50893510     6    63    0    0    0
C 345.93259045 7.34271491 -29.14127662     2    63   67   68   69
H 345.67483824 6.67400556 -27.20724369     6    66    0    0    0
H 344.45804760 8.96852393 -29.35718032     6    66    0    0    0
C 345.39101759 5.25800684 -31.06660892     2    66   70   71   72
H 345.78005631 6.22483377 -32.95017674     6    69    0    0    0
H 346.85896277 3.85902441 -30.86040141     6    69    0    0    0
C 342.69760967 4.15335326 -30.64703114     2    69   73   74   75
H 342.55513281 4.10605220 -28.50051574     6    72    0    0    0
H 341.30158496 5.64788679 -31.08202938     6    72    0    0    0
C 342.40749280 1.65215451 -31.84549735     2    72   76   77   78
H 342.88870867 1.78889450 -33.78032719     6    75    0    0    0
H 343.88010557 0.41807776 -31.05824706     6    75    0    0    0
C 339.76453493 0.62174560 -31.75232347     2    75   79   80   81
H 339.32023385 0.26593490 -29.74883880     6    78    0    0    0
H 338.20068314 1.82618777 -32.59095747     6    78    0    0    0
C 339.63025449 -1.93370639 -33.30559578     2    78   82   83   84
H 339.99171533 -1.49074811 -35.29902701     6    81    0    0    0
H 341.13385685 -3.22472606 -32.51320307     6    81    0    0    0
C 336.99216489 -3.08325611 -32.98749205     1    81   85   86   87
H 336.75742664 -5.10822368 -33.72261629     6    84    0    0    0
H 335.59830964 -2.00940705 -33.94108083     6    84    0    0    0
H 336.29119607 -3.28187103 -31.07720694     6    84    0    0    0
H 347.81892822 39.64924430 -24.76506516     6     89    0    0    0 
C 345.88711621 39.64151267 -25.49493150     1     88    90    91    92
H 345.01738405 41.41225718 -24.78775557     6     89    0    0    0
H 346.10699360 39.95430979 -27.48658720     6     89    0    0    0
C 344.35912217 37.19604654 -25.00750956     2     89    93    94    95
H 345.51483436 35.88110854 -26.07442267     6     92    0    0    0
H 344.38301130 37.02949581 -22.91579219     6     92    0    0    0
C 341.66168234 37.14686669 -26.09130833     2     92    96   97   98
H 341.01311282 39.13653331 -26.02243080     6     95    0    0    0
H 341.64339680 36.44692774 -28.09182376     6     95    0    0    0
C 339.95966492 35.41034081 -24.50192482     2     95   99   100   101
H 340.91508813 33.57004676 -24.19128972     6    98    0    0    0
H 339.81609049 36.29048623 -22.65169780     6    98    0    0    0
C 337.19500232 35.14203061 -25.52458868     2    98   102   103   104
H 336.32311805 37.02561560 -25.92010394     6    101    0    0    0
H 337.10302815 33.93832602 -27.21422208     6    101    0    0    0
C 335.28208617 33.64396270 -23.85886290     2    101   105   106   107
H 336.26768496 32.05102703 -22.84399154     6    104    0    0    0
H 334.78849606 35.09328134 -22.40944817     6    104    0    0    0
C 332.90078436 32.51841983 -25.00607403     2    104   108   109   110
H 331.55634267 34.06038397 -25.36703846     6    107    0    0    0
H 333.19169716 31.66548088 -26.85895272     6    107    0    0    0
C 331.68205257 30.53529991 -23.17848967     2    107   111   112   113
H 332.68703510 28.85591610 -22.69318308     6    110    0    0    0
H 331.56933011 31.50490497 -21.29459685     6    110    0    0    0
C 329.01368569 29.74090001 -24.05048964     2    110   114   115   116
H 327.87750919 31.34808591 -24.94137341     6    113    0    0    0
H 329.40752861 28.41023876 -25.58477494     6    113    0    0    0
C 327.38748270 28.31129955 -22.17254112     2    113   117   118   119
H 328.55002626 26.70459351 -21.41782206     6    116    0    0    0
H 327.14549029 29.55258520 -20.52366188     6    116    0    0    0
C 324.71549522 27.85006216 -22.99235514     2    116   120   121   122
H 323.82153993 26.67732770 -21.51005084     6    119    0    0    0
H 323.55099319 29.50925529 -23.22263625     6    119    0    0    0
C 324.39928541 26.58577979 -25.63137472     1    119   123   124   125
H 322.46920244 26.51292417 -26.32993540     6    122    0    0    0
H 325.36942575 24.78743317 -25.42355459     6    122    0    0    0
H 325.34648758 27.72933114 -27.19069346     6    122    0    0    0
H 360.31815462 31.78211555 -16.94141140     6     127    0    0    0 
C 360.99200470 30.01079329 -17.76415431     1     126    128    129    130
H 360.49344220 28.55206569 -16.22113394     6     127    0    0    0
H 359.90790145 29.60212249 -19.46597991     6     127    0    0    0
C 363.82102928 30.43062524 -18.13287783     2     127    131    132    133
H 364.19519720 32.21143753 -19.13498680     6     130    0    0    0
H 365.04287405 30.40227099 -16.31478413     6     130    0    0    0
C 364.90318118 28.44722547 -19.92124534     2     130    134   135   136
H 365.73527796 26.96488053 -18.83342462     6     133    0    0    0
H 363.49324362 27.74177386 -21.24524491     6     133    0    0    0
C 367.01791928 29.43242162 -21.78279220     2     133   137   138   139
H 366.36081600 31.19495533 -22.79435864     6    136    0    0    0
H 368.53410389 30.07009892 -20.43430058     6    136    0    0    0
C 367.73698607 27.44297850 -23.66176885     2    136   140   141   142
H 367.47186124 25.54015372 -22.93579599     6    139    0    0    0
H 366.44764142 27.68264687 -25.28604161     6    139    0    0    0
C 370.42672940 27.72785325 -24.55244634     2    139   143   144   145
H 370.62819361 29.65507200 -25.55297214     6    142    0    0    0
H 371.71617622 28.03529779 -23.06633223     6    142    0    0    0
C 371.30357481 25.48498131 -26.37931717     2    142   146   147   148
H 371.61321946 23.78487896 -25.16971361     6    145    0    0    0
H 369.90181949 25.16934056 -27.84470454     6    145    0    0    0
C 373.48158592 26.50876341 -27.93913699     2    145   149   150   151
H 373.31527038 28.47047889 -28.87438295     6    148    0    0    0
H 374.95208617 27.04127879 -26.52795951     6    148    0    0    0
C 374.62206506 24.72699509 -29.88875350     2    148   152   153   154
H 375.57004325 23.22189054 -28.83915052     6    151    0    0    0
H 373.03583373 23.90770457 -30.97869315     6    151    0    0    0
C 376.75491429 26.06855794 -31.56647950     2    151   155   156   157
H 375.92219423 27.70837422 -32.42753695     6    154    0    0    0
H 378.21757782 26.52011725 -30.29326075     6    154    0    0    0
C 377.66560741 24.39048495 -33.65237744     2    154   158   159   160
H 378.32714271 22.68249872 -32.89104204     6    157    0    0    0
H 375.99330567 23.44434980 -34.48047122     6    157    0    0    0
C 379.37825948 25.54664128 -35.56953300     1    157   161   162   163
H 378.29749683 26.36112852 -37.10220837     6    160    0    0    0
H 380.62124402 24.04859609 -36.33373678     6    160    0    0    0
H 380.57994185 27.11180919 -34.77691344     6    160    0    0    0
H 349.22433496 18.74553296 -3.92808329     6     165    0    0    0 
C 350.49147514 18.80178279 -5.56863789     1     164    166    167    168
H 350.85795843 16.87615168 -6.13502933     6     165    0    0    0
H 349.38658381 19.68713005 -7.02974245     6     165    0    0    0
C 352.91341023 20.23037857 -5.00823605     2     165    169    170    171
H 352.23586323 21.91321457 -3.94130417     6     168    0    0    0
H 353.95995696 19.17353085 -3.62736305     6     168    0    0    0
C 354.37901990 20.88428150 -7.43052338     2     168    172   173   174
H 355.18088621 19.20630844 -7.96600015     6     171    0    0    0
H 353.15015189 21.51961340 -8.97444580     6     171    0    0    0
C 356.52676405 22.68208875 -6.89636789     2     171   175   176   177
H 355.94197938 24.29738974 -5.77826060     6    174    0    0    0
H 357.76567452 21.93982757 -5.39463219     6    174    0    0    0
C 358.15189489 23.48439622 -9.16902089     2    174   178   179   180
H 359.03467444 21.78541638 -9.94716301     6    177    0    0    0
H 356.97426968 24.24538148 -10.70906052     6    177    0    0    0
C 360.13617811 25.29558863 -8.22835757     2    177   181   182   183
H 359.41384914 27.22916648 -7.85050927     6    180    0    0    0
H 360.99902384 24.68726603 -6.43594196     6    180    0    0    0
C 362.32679383 25.48288999 -10.22417000     2    180   184   185   186
H 363.49985589 23.81873258 -10.31905129     6    183    0    0    0
H 361.42040123 25.63017801 -12.04438647     6    183    0    0    0
C 364.12431210 27.70165143 -9.79177416     2    183   187   188   189
H 363.10563647 29.55129593 -9.75067180     6    186    0    0    0
H 364.93370759 27.79690636 -7.85745646     6    186    0    0    0
C 366.12957626 27.44079955 -11.81603661     2    186   190   191   192
H 367.42730088 25.85865938 -11.49398664     6    189    0    0    0
H 365.43783888 27.08653434 -13.63144689     6    189    0    0    0
C 367.79744491 29.78018178 -12.07854325     2    189   193   194   195
H 366.51738720 31.33923584 -12.55979255     6    192    0    0    0
H 368.55735696 30.44691762 -10.29648888     6    192    0    0    0
C 370.31841021 29.68206512 -13.66539630     2    192   196   197   198
H 371.59808885 28.38853792 -12.69119688     6    195    0    0    0
H 369.91079157 28.84978517 -15.38138249     6    195    0    0    0
C 371.45785048 32.41355560 -14.04891852     1    195   199   200   201
H 373.36861877 32.39087584 -14.92843564     6    198    0    0    0
H 371.68678490 33.34734326 -12.24161570     6    198    0    0    0
H 370.26596730 33.65044001 -15.38365784     6    198    0    0    0
H 354.62926271 11.29835621 -3.26018656     6     203    0    0    0 
C 352.66055911 11.08836846 -2.93830372     1     202    204    205    206
H 352.60395778 9.48096891 -1.62076174     6     203    0    0    0
H 352.02922774 12.75241053 -1.93602774     6     203    0    0    0
C 351.29810970 10.63500915 -5.40999107     2     203    207    208    209
H 349.39376529 10.30503960 -5.18937183     6     206    0    0    0
H 351.24438202 12.40295358 -6.49602059     6     206    0    0    0
C 352.47049937 8.79017691 -7.30784810     2     206    210   211   212
H 352.03798297 9.38570765 -9.25521114     6     209    0    0    0
H 354.44667518 8.98165884 -7.18437382     6     209    0    0    0
C 351.55822920 5.96749874 -6.87268338     2     209   213   214   215
H 351.92224258 5.43038982 -4.85931387     6    212    0    0    0
H 349.54514379 5.65508844 -7.54958085     6    212    0    0    0
C 353.13288776 3.84668366 -8.22194798     2    212   216   217   218
H 352.73091420 3.48431721 -10.16836374     6    215    0    0    0
H 355.06343826 4.56740747 -8.20209268     6    215    0    0    0
C 353.03256041 1.45585464 -6.67840103     2    215   219   220   221
H 354.14119760 1.66803948 -4.85961034     6    218    0    0    0
H 350.97838525 1.29480137 -5.87356479     6    218    0    0    0
C 353.71143757 -0.95692127 -8.15007366     2    218   222   223   224
H 352.61843686 -0.93015230 -9.82284679     6    221    0    0    0
H 355.72262349 -0.99281421 -8.81942000     6    221    0    0    0
C 352.96153025 -3.35161338 -6.64346996     2    221   225   226   227
H 354.37242857 -3.11064661 -5.08834630     6    224    0    0    0
H 351.03990126 -2.93856951 -5.85309552     6    224    0    0    0
C 352.94048482 -5.93273651 -8.02340383     2    224   228   229   230
H 351.71662072 -5.74882950 -9.58532867     6    227    0    0    0
H 354.87846614 -6.11956809 -8.72110495     6    227    0    0    0
C 352.32177556 -7.95139628 -6.17864446     2    227   231   232   233
H 353.74731824 -7.73256679 -4.58569067     6    230    0    0    0
H 350.27863089 -7.55839028 -5.73750858     6    230    0    0    0
C 352.46402922 -10.63204567 -7.23326348     2    230   234   235   236
H 351.49086236 -10.58422354 -9.03579775     6    233    0    0    0
H 354.36260612 -10.98645252 -7.79519444     6    233    0    0    0
C 351.24347472 -12.29340396 -5.27788165     1    233   237   238   239
H 351.48033169 -14.22158506 -5.71011847     6    236    0    0    0
H 349.29105365 -11.72447806 -5.18783939     6    236    0    0    0
H 351.77784633 -11.87612177 -3.32433481     6    236    0    0    0
H 339.87893711 10.92747024 -32.69630876     6     241    0    0    0 
C 340.32463520 12.68984363 -31.87607824     1     240    242    243    244
H 342.47990366 12.73416995 -31.76931523     6     241    0    0    0
H 339.56063766 14.29490824 -32.92241390     6     241    0    0    0
C 339.44502793 12.87424547 -29.21015330     2     241    245    246    247
H 340.54566822 11.49736119 -28.05253810     6     244    0    0    0
H 340.22395703 14.68380271 -28.59985068     6     244    0    0    0
C 336.56120324 12.92535221 -28.74641174     2     244    248   249   250
H 335.99598018 13.85975164 -26.91664678     6     247    0    0    0
H 335.73147994 14.18776348 -30.06648032     6     247    0    0    0
C 335.21022798 10.45860768 -29.02446602     2     247   251   252   253
H 333.24798697 10.93241640 -28.66034880     6    250    0    0    0
H 335.27024797 9.93723053 -30.98980650     6    250    0    0    0
C 336.03702439 8.27152875 -27.36036053     2    250   254   255   256
H 337.58132610 7.08787672 -28.08835702     6    253    0    0    0
H 337.03792308 8.88605612 -25.65000832     6    253    0    0    0
C 333.75952417 6.66941553 -26.75863801     2    253   257   258   259
H 334.29372648 5.03804109 -25.69381332     6    256    0    0    0
H 332.36286241 7.65549828 -25.57287924     6    256    0    0    0
C 332.36417529 5.70877024 -29.30352755     2    256   260   261   262
H 331.44069101 7.19009500 -30.42312965     6    259    0    0    0
H 333.88803674 4.88793076 -30.45047872     6    259    0    0    0
C 330.57875326 3.52401876 -28.64884293     2    259   263   264   265
H 331.76702960 2.05367633 -27.90137303     6    262    0    0    0
H 329.50245486 4.24648260 -27.07540131     6    262    0    0    0
C 329.13699431 2.23930034 -30.71485180     2    262   266   267   268
H 327.80442652 1.05278124 -29.78718275     6    265    0    0    0
H 328.10225509 3.77208016 -31.50333111     6    265    0    0    0
C 330.46983629 0.58550048 -32.77209357     2    265   269   270   271
H 332.24864996 1.41182892 -33.45166111     6    268    0    0    0
H 330.92609015 -1.33706972 -32.11125880     6    268    0    0    0
C 328.65691984 0.00638132 -35.00126571     2    268   272   273   274
H 326.96433820 -1.10569752 -34.37479083     6    271    0    0    0
H 328.01820557 1.86190184 -35.78905720     6    271    0    0    0
C 330.04343103 -1.59235782 -36.91670071     1    271   275   276   277
H 331.32872174 -0.54454566 -38.05183543     6    274    0    0    0
H 328.65199419 -2.50510899 -38.36056112     6    274    0    0    0
H 331.16770004 -3.05116779 -36.00111615     6    274    0    0    0
H 347.65147302 29.63845508 -10.51901976     6     279    0    0    0 
C 346.26478493 28.28219415 -11.44374699     1     278    280    281    282
H 344.62796819 28.40488839 -10.32361563     6     279    0    0    0
H 345.57607680 29.13066848 -13.30253861     6     279    0    0    0
C 347.57885182 25.78340758 -11.58609715     2     279    283    284    285
H 348.66936189 25.97076239 -13.43167279     6     282    0    0    0
H 348.94240229 25.61935731 -10.18869035     6     282    0    0    0
C 346.08877545 23.32421387 -11.76214902     2     282    286   287   288
H 345.42059555 22.72266718 -9.92296480     6     285    0    0    0
H 344.46349769 23.43925557 -12.97264586     6     285    0    0    0
C 347.82508165 21.11805486 -12.64508677     2     285   289   290   291
H 348.18647212 21.24046317 -14.60155308     6    288    0    0    0
H 349.59171274 21.43913411 -11.68343984     6    288    0    0    0
C 346.87973930 18.51947556 -11.95931962     2    288   292   293   294
H 346.77421946 18.53975750 -9.97377348     6    291    0    0    0
H 344.85859184 18.47510333 -12.51752957     6    291    0    0    0
C 348.14780188 16.43673466 -13.11686038     2    291   295   296   297
H 348.55924897 16.57690579 -15.09841754     6    294    0    0    0
H 349.98881236 16.29218393 -12.34977561     6    294    0    0    0
C 346.76964482 13.87386681 -12.66367195     2    294   298   299   300
H 346.25152196 13.76652719 -10.70731620     6    297    0    0    0
H 345.00004869 13.58022683 -13.74431277     6    297    0    0    0
C 348.55721903 11.56554949 -13.26184748     2    297   301   302   303
H 349.35709982 11.66860132 -15.09332429     6    300    0    0    0
H 350.15603717 11.78239391 -12.05168310     6    300    0    0    0
C 347.44711762 8.84327472 -12.66454326     2    300   304   305   306
H 347.50022580 8.60370181 -10.57858429     6    303    0    0    0
H 345.44171369 8.90477719 -13.21453833     6    303    0    0    0
C 348.67246289 6.67455213 -14.07827282     2    303   307   308   309
H 348.66437997 7.21404192 -16.18673554     6    306    0    0    0
H 350.69378367 6.41244711 -13.84264949     6    306    0    0    0
C 347.49988890 4.02061186 -13.83968147     2    306   310   311   312
H 347.24658873 3.42370449 -11.92567133     6    309    0    0    0
H 345.60710384 4.30415827 -14.79583454     6    309    0    0    0
C 349.00058130 1.80296807 -15.22688439     1    309   313   314   315
H 350.94144925 1.46526516 -14.54642770     6    312    0    0    0
H 349.02305921 2.02062140 -17.28568527     6    312    0    0    0
H 347.97792730 -0.02203932 -14.94046694     6    312    0    0    0
H 355.76163777 29.79262933 -21.81770063     6     317    0    0    0 
C 355.57843849 30.59685928 -23.70825388     1     316    318    319    320
H 353.98008767 29.75863135 -24.76582544     6     317    0    0    0
H 355.05120167 32.47765902 -22.95650222     6     317    0    0    0
C 358.15683173 30.65638143 -24.92768304     2     317    321    322    323
H 357.90623085 31.59875939 -26.77674244     6     320    0    0    0
H 359.30272844 31.95801020 -23.71218306     6     320    0    0    0
C 359.32224092 28.11549237 -25.57122729     2     320    324   325   326
H 360.19974119 27.42290835 -23.84167015     6     323    0    0    0
H 357.81676850 26.92468353 -26.24184482     6     323    0    0    0
C 361.37228128 27.97361033 -27.56012482     2     323   327   328   329
H 360.31864306 28.47981678 -29.32965653     6    326    0    0    0
H 362.70714064 29.59690059 -27.23719346     6    326    0    0    0
C 362.65407546 25.44265475 -28.21985225     2    326   330   331   332
H 363.65683052 24.66285895 -26.48555839     6    329    0    0    0
H 361.11357614 24.09212224 -28.89016751     6    329    0    0    0
C 364.70118950 25.44124993 -30.26442267     2    329   333   334   335
H 366.19798582 26.50501564 -29.61327732     6    332    0    0    0
H 365.50413007 23.55828191 -30.39146982     6    332    0    0    0
C 363.47163431 26.34645654 -32.77869397     2    332   336   337   338
H 361.93143249 25.04619692 -33.31679411     6    335    0    0    0
H 362.50495099 28.10570941 -32.76262207     6    335    0    0    0
C 365.50185163 26.75510189 -34.78437004     2    335   339   340   341
H 365.24913540 28.40990327 -36.13083044     6    338    0    0    0
H 367.08553448 27.35058501 -33.65184439     6    338    0    0    0
C 366.14860163 24.44718995 -36.47985797     2    338   342   343   344
H 366.63352421 22.87824859 -35.23639703     6    341    0    0    0
H 364.54515083 23.94878078 -37.69694293     6    341    0    0    0
C 368.30154098 25.02742166 -38.37257923     2    341   345   346   347
H 368.80919899 23.26348130 -39.31870616     6    344    0    0    0
H 367.69124779 26.26654550 -39.82380904     6    344    0    0    0
C 370.66709406 26.45341447 -37.36908292     2    344   348   349   350
H 370.11721725 28.12987491 -36.33480229     6    347    0    0    0
H 371.66564393 25.43832551 -35.97896916     6    347    0    0    0
C 372.65974283 27.30264652 -39.30095840     1    347   351   352   353
H 374.17445499 28.43965555 -38.39336029     6    350    0    0    0
H 371.77760147 28.42445296 -40.71965662     6    350    0    0    0
H 373.38954077 25.55596599 -40.13302303     6    350    0    0    0
H 339.41483098 2.29372726 -18.20995069     6     355    0    0    0 
C 339.35663664 3.81792466 -19.46519743     1     354    356    357    358
H 340.49185313 3.35047236 -21.16685774     6     355    0    0    0
H 337.40400831 4.04036161 -19.83052840     6     355    0    0    0
C 340.49065348 6.24940395 -18.24746754     2     355    359    360    361
H 339.63200814 6.65888758 -16.45397076     6     358    0    0    0
H 342.31448801 5.73285072 -17.54460533     6     358    0    0    0
C 340.26313448 8.53868977 -20.03446182     2     358    362   363   364
H 341.36810978 8.19844293 -21.75934663     6     361    0    0    0
H 338.34052655 8.95527877 -20.58599162     6     361    0    0    0
C 341.11883863 10.93707815 -18.76568806     2     361   365   366   367
H 340.01912382 11.17904290 -16.96344854     6    364    0    0    0
H 343.11334870 10.65347105 -18.33001145     6    364    0    0    0
C 341.06444233 13.38171658 -20.39273332     2    364   368   369   370
H 341.87985024 13.05516888 -22.32552085     6    367    0    0    0
H 339.09480667 13.89673808 -20.77812449     6    367    0    0    0
C 342.45499874 15.58652879 -19.13845983     2    367   371   372   373
H 341.66826101 15.96236695 -17.33609872     6    370    0    0    0
H 344.36561631 14.86386455 -18.83192473     6    370    0    0    0
C 342.97603214 17.94925635 -20.56332275     2    370   374   375   376
H 343.69061597 17.46525044 -22.48456042     6    373    0    0    0
H 341.29873997 19.07141581 -20.74357698     6    373    0    0    0
C 344.61511620 19.71261862 -18.91799778     2    373   377   378   379
H 343.83871763 20.05062734 -16.95476861     6    376    0    0    0
H 346.64141288 18.95365589 -18.71517173     6    376    0    0    0
C 344.64398990 22.29674790 -20.34694287     2    376   380   381   382
H 345.14118868 22.00904385 -22.33805044     6    379    0    0    0
H 342.76420002 22.83731331 -20.14918636     6    379    0    0    0
C 346.45345141 24.33875768 -19.13098541     2    379   383   384   385
H 345.68864505 24.69330311 -17.22962015     6    382    0    0    0
H 348.42874435 23.69537989 -19.11389535     6    382    0    0    0
C 346.35925698 26.98963210 -20.21799884     2    382   386   387   388
H 347.71131002 28.29256145 -19.37908351     6    385    0    0    0
H 347.46068544 26.84441330 -21.97991526     6    385    0    0    0
C 343.79969771 28.29376223 -20.07864082     1    385   389   390   391
H 343.24941888 28.55258251 -18.07960533     6    388    0    0    0
H 342.32855914 27.24968067 -20.91958682     6    388    0    0    0
H 343.70438332 30.07124314 -21.11093518     6    388    0    0    0
H 376.30322630 16.28141128 -56.98309919     6     393    0    0    0 
C 374.94624624 15.14585410 -58.17346155     1     392    394    395    396
H 375.35213150 16.03254049 -60.10545686     6     393    0    0    0
H 375.74426432 13.27542407 -58.34904681     6     393    0    0    0
C 372.23295505 15.51189127 -57.07402188     2     393    397    398    399
H 372.17691714 14.52249546 -55.21522458     6     396    0    0    0
H 371.62637301 17.45867463 -56.68828413     6     396    0    0    0
C 370.31864220 14.18928345 -58.87872561     2     396    400   401   402
H 370.06105508 15.61230766 -60.34627559     6     399    0    0    0
H 371.04177081 12.42004364 -59.76052480     6     399    0    0    0
C 367.81416263 13.88728805 -57.65856382     2     399   403   404   405
H 368.15257161 13.25010225 -55.69738744     6    402    0    0    0
H 366.65464648 15.66915049 -57.73695252     6    402    0    0    0
C 366.33610095 11.64534940 -58.69876176     2    402   406   407   408
H 366.49843322 11.63745358 -60.69127470     6    405    0    0    0
H 367.35047265 9.92300146 -57.93079273     6    405    0    0    0
C 363.56328761 11.40926838 -57.88041772     2    405   409   410   411
H 363.38571752 11.77843467 -55.86537046     6    408    0    0    0
H 362.41307090 13.03510755 -58.62959561     6    408    0    0    0
C 362.50110937 8.75813789 -58.31910043     2    408   412   413   414
H 363.22253847 8.18675514 -60.18489070     6    411    0    0    0
H 363.18335559 7.41449161 -56.90038243     6    411    0    0    0
C 359.53288186 8.74187603 -58.38437786     2    411   415   416   417
H 359.19992124 9.61096844 -56.51191118     6    414    0    0    0
H 358.52204395 10.02247353 -59.78025443     6    414    0    0    0
C 358.52353525 5.99615451 -58.61076021     2    414   418   419   420
H 359.03370461 5.09208096 -60.42110772     6    417    0    0    0
H 359.46246361 5.06847936 -56.99183889     6    417    0    0    0
C 355.71375947 5.94415246 -58.27922861     2    417   421   422   423
H 355.23526019 6.63545291 -56.43334774     6    420    0    0    0
H 354.92011151 7.08991812 -59.79626810     6    420    0    0    0
C 354.58124619 3.22332343 -58.62230479     2    420   424   425   426
H 352.63250230 3.62200509 -58.29620608     6    423    0    0    0
H 354.66735992 2.38641308 -60.53854388     6    423    0    0    0
C 355.53224364 1.12604350 -56.91734804     1    423   427   428   429
H 357.35591161 0.21669049 -57.42984619     6    426    0    0    0
H 354.08691595 -0.39801543 -56.88916544     6    426    0    0    0
H 355.56901325 1.38906876 -54.90605830     6    426    0    0    0
H 345.42616427 20.89712105 -51.65081141     6     431    0    0    0 
C 345.17561511 21.06683699 -53.67925392     1     430    432    433    434
H 343.87802162 19.70475262 -54.35183350     6     431    0    0    0
H 344.52377693 22.91672170 -54.07205449     6     431    0    0    0
C 347.74245529 20.61944132 -54.94628131     2     431    435    436    437
H 349.19159449 20.69954141 -53.44943049     6     434    0    0    0
H 347.98053766 18.51774661 -55.30903859     6     434    0    0    0
C 348.34459573 22.30593578 -57.24570462     2     434    438   439   440
H 347.10256278 21.78191426 -58.95642201     6     437    0    0    0
H 347.78564521 24.11661641 -56.87556402     6     437    0    0    0
C 351.15123333 22.20327491 -58.04430130     2     437   441   442   443
H 351.62473987 24.00953150 -58.87089175     6    440    0    0    0
H 352.24736660 21.98029248 -56.29293706     6    440    0    0    0
C 351.73674833 20.04321676 -60.06899734     2    440   444   445   446
H 351.17061855 18.07622437 -59.33766528     6    443    0    0    0
H 350.66599683 20.48250249 -61.79184867     6    443    0    0    0
C 354.44639119 20.27165807 -60.96205003     2    443   447   448   449
H 354.65265235 22.04884591 -62.01922424     6    446    0    0    0
H 355.73896421 20.41667532 -59.34981037     6    446    0    0    0
C 355.13873644 18.05025049 -62.66913061     2    446   450   451   452
H 354.73674133 16.43396374 -61.48232152     6    449    0    0    0
H 354.02970982 17.96544728 -64.39566075     6    449    0    0    0
C 357.96656349 17.86883440 -63.19428885     2    449   453   454   455
H 358.50343810 19.84400585 -63.58694586     6    452    0    0    0
H 359.18853222 17.33563077 -61.62040631     6    452    0    0    0
C 358.52242243 16.15664770 -65.43061988     2    452   456   457   458
H 358.23283265 14.22920171 -64.84978509     6    455    0    0    0
H 357.46909225 16.56093961 -67.06282285     6    455    0    0    0
C 361.31083528 16.39177668 -66.13758462     2    455   459   460   461
H 361.68756398 15.74777710 -68.03246815     6    458    0    0    0
H 361.65376101 18.36699832 -66.57519296     6    458    0    0    0
C 363.15386513 15.10392017 -64.21432467     2    458   462   463   464
H 363.08503466 16.02796264 -62.39932142     6    461    0    0    0
H 362.80179320 13.16954800 -64.13398712     6    461    0    0    0
C 365.72969984 15.41282196 -65.35471796     1    461   465   466   467
H 366.19047634 17.45122586 -65.73480514     6    464    0    0    0
H 365.72684922 14.32350887 -67.13695044     6    464    0    0    0
H 367.06506996 14.63210409 -64.04372936     6    464    0    0    0
H 336.83853261 29.70724762 -13.13517682     6     469    0    0    0 
C 336.38341291 29.72468555 -15.10875631     1     468    470    471    472
H 334.47557963 30.03529164 -15.21252648     6     469    0    0    0
H 337.32807054 31.48342744 -15.80718876     6     469    0    0    0
C 337.17639308 27.44853418 -16.64861118     2     469    473    474    475
H 337.08773168 27.83510765 -18.74815328     6     472    0    0    0
H 339.17153266 26.96210921 -16.41819238     6     472    0    0    0
C 335.46857074 25.23660516 -15.83082857     2     472    476   477   478
H 335.91902565 24.71015291 -13.84813833     6     475    0    0    0
H 333.43939234 25.77956303 -15.65627369     6     475    0    0    0
C 335.62676896 23.04176820 -17.74921961     2     475   479   480   481
H 335.02557015 23.84207115 -19.53249314     6    478    0    0    0
H 337.58779130 22.47695701 -17.65069261     6    478    0    0    0
C 334.12133344 20.70136576 -17.04151512     2    478   482   483   484
H 334.40589921 20.04448537 -15.19768795     6    481    0    0    0
H 332.14619382 21.09909487 -16.64843358     6    481    0    0    0
C 334.65356043 18.55656774 -18.99316709     2    481   485   486   487
H 334.53497796 19.27987789 -20.89052592     6    484    0    0    0
H 336.51267807 17.70509828 -18.75809932     6    484    0    0    0
C 332.55512573 16.61819862 -18.60991131     2    484   488   489   490
H 332.69909744 15.86204328 -16.68464562     6    487    0    0    0
H 330.75695949 17.56976408 -18.76732681     6    487    0    0    0
C 332.30678207 14.56261548 -20.70523917     2    487   491   492   493
H 331.96367819 15.40125562 -22.56669103     6    490    0    0    0
H 334.00674957 13.58382624 -20.94837427     6    490    0    0    0
C 330.17703177 12.81956276 -19.99502349     2    490   494   495   496
H 330.27571108 12.18527096 -18.00998791     6    493    0    0    0
H 328.40407163 13.84712709 -20.21584055     6    493    0    0    0
C 330.12213834 10.47373891 -21.60735910     2    493   497   498   499
H 329.98693280 11.43363680 -23.57050517     6    496    0    0    0
H 331.95306795 9.54918774 -21.74416747     6    496    0    0    0
C 328.01341439 8.79728589 -21.10343737     2    496   500   501   502
H 328.24329499 7.89679191 -19.26173852     6    499    0    0    0
H 326.24668754 9.93890210 -20.98762915     6    499    0    0    0
C 327.30450114 6.88594739 -23.10414066     1    499   503   504   505
H 326.00588256 5.49219183 -22.46246464     6    502    0    0    0
H 328.89454886 5.85905939 -23.68675086     6    502    0    0    0
H 326.42048929 7.86680580 -24.65018563     6    502    0    0    0
H 324.68035900 0.06221175 -43.18162821     6     507    0    0    0 
C 326.51520949 0.69900536 -42.68824374     1     506    508    509    510
H 326.36157112 1.66060930 -40.87845439     6     507    0    0    0
H 327.48107662 -1.06815242 -42.40410416     6     507    0    0    0
C 327.19629722 2.47084008 -44.77509180     2     507    511    512    513
H 326.47453640 1.54880065 -46.57464047     6     510    0    0    0
H 326.05219993 4.17368280 -44.56266800     6     510    0    0    0
C 329.99472464 3.12568083 -44.99328766     2     510    514   515   516
H 330.39973211 4.00916766 -43.18875632     6     513    0    0    0
H 331.19837322 1.37377747 -45.07305066     6     513    0    0    0
C 330.75339365 5.03949989 -46.90357233     2     513   517   518   519
H 330.20998573 4.35508397 -48.73107879     6    516    0    0    0
H 330.00424615 6.90363593 -46.57921494     6    516    0    0    0
C 333.67981345 5.54517260 -46.85801242     2    516   520   521   522
H 334.16970186 6.90359071 -45.44839154     6    519    0    0    0
H 334.74205007 3.86867868 -46.41871454     6    519    0    0    0
C 334.72669146 7.12136399 -49.12615485     2    519   523   524   525
H 333.62136463 6.59602127 -50.86235601     6    522    0    0    0
H 334.36052030 9.17899341 -48.87724308     6    522    0    0    0
C 337.44625155 6.33334263 -49.63736537     2    522   526   527   528
H 338.71572621 6.56246169 -47.99735579     6    525    0    0    0
H 337.80767520 4.56403546 -50.22069300     6    525    0    0    0
C 338.58517640 7.97499640 -51.69163680     2    525   529   530   531
H 337.72643940 7.41529121 -53.37153624     6    528    0    0    0
H 338.14533259 10.02348006 -51.48005711     6    528    0    0    0
C 341.52767744 7.95946023 -51.71232404     2    528   532   533   534
H 342.23601773 8.48112823 -49.92339021     6    531    0    0    0
H 342.32961893 6.07648051 -51.97524179     6    531    0    0    0
C 342.75736223 9.87981222 -53.43339169     2    531   535   536   537
H 342.00420763 9.28160464 -55.24574949     6    534    0    0    0
H 341.95932352 11.67691860 -53.13813482     6    534    0    0    0
C 345.65920620 10.21782129 -53.32751110     2    534   538   539   540
H 346.24460878 10.10121922 -51.34308385     6    537    0    0    0
H 346.61875686 8.69320690 -54.31754887     6    537    0    0    0
C 346.80353797 12.79660885 -54.40795838     1    537   541   542   543
H 348.85653718 12.82230478 -54.46401084     6    540    0    0    0
H 346.26945506 14.21525889 -53.04299095     6    540    0    0    0
H 345.93848721 13.17457061 -56.20888742     6    540    0    0    0
H 362.47213563 22.56963146 -46.63311659     6     545    0    0    0 
C 363.14211551 20.68131031 -46.16467185     1     544    546    547    548
H 361.69790186 19.69958040 -45.06723581     6     545    0    0    0
H 363.29786044 19.84719992 -48.08182143     6     545    0    0    0
C 365.64188842 20.51909889 -44.65173773     2     545    549    550    551
H 366.93336359 21.94661606 -45.30293327     6     548    0    0    0
H 365.15746613 21.06483371 -42.64317840     6     548    0    0    0
C 367.28685206 18.15614836 -44.87999039     2     548    552   553   554
H 366.57383228 16.60889528 -43.62464207     6     551    0    0    0
H 367.46690933 17.59397789 -46.81603113     6     551    0    0    0
C 369.90138887 18.96782390 -43.75793204     2     551   555   556   557
H 370.77370761 20.36251854 -45.05650176     6    554    0    0    0
H 369.58073964 20.03729590 -42.03620383     6    554    0    0    0
C 372.03088890 16.95898876 -43.07539962     2    554   558   559   560
H 371.41405581 15.86368369 -41.51697204     6    557    0    0    0
H 372.57499893 15.81573546 -44.73761785     6    557    0    0    0
C 374.44633986 18.27730027 -42.22547308     2    557   561   562   563
H 375.29384659 19.47223383 -43.63806090     6    560    0    0    0
H 373.99892775 19.43499812 -40.65745192     6    560    0    0    0
C 376.43151750 16.41653620 -41.19642322     2    560   564   565   566
H 375.28097315 14.80494273 -40.30692047     6    563    0    0    0
H 377.62232519 15.80705673 -42.61911036     6    563    0    0    0
C 378.22512663 17.61906241 -39.30667537     2    563   567   568   569
H 379.04604946 19.23850836 -40.09745535     6    566    0    0    0
H 377.17793414 18.36971951 -37.72759869     6    566    0    0    0
C 380.04759878 15.76805783 -38.38021669     2    566   570   571   572
H 379.01909755 14.29559272 -37.45743796     6    569    0    0    0
H 381.21076278 15.04052663 -39.87054337     6    569    0    0    0
C 381.78352506 16.84844078 -36.43941243     2    569   573   574   575
H 382.62933213 18.57616992 -37.27678681     6    572    0    0    0
H 380.72439617 17.58999028 -34.77860050     6    572    0    0    0
C 383.60615657 14.98576873 -35.08249471     2    572   576   577   578
H 384.33402584 13.74520026 -36.66435970     6    575    0    0    0
H 385.09691550 15.99308883 -34.39780147     6    575    0    0    0
C 382.50452280 13.36948172 -32.90925305     1    575   579   580   581
H 382.41566807 14.78681339 -31.35115437     6    578    0    0    0
H 383.88359825 11.91605319 -32.42348024     6    578    0    0    0
H 380.72422548 12.44026376 -33.44974805     6    578    0    0    0
H 356.32535642 12.21550148 -14.69010237     6     583    0    0    0 
C 355.41620042 13.91571068 -14.11851772     1     582    584    585    586
H 353.65650094 13.84821143 -15.03000796     6     583    0    0    0
H 355.20660236 14.23949391 -12.09545469     6     583    0    0    0
C 356.81781514 16.25565515 -15.07995029     2     583    587    588    589
H 357.38961954 16.19032459 -17.04213874     6     586    0    0    0
H 355.69374104 17.91680171 -14.99707690     6     586    0    0    0
C 359.18589081 16.76355528 -13.56022159     2     586    590   591   592
H 358.72379321 17.19267596 -11.68991459     6     589    0    0    0
H 360.14861691 14.86787656 -13.64287376     6     589    0    0    0
C 360.63723285 18.95271220 -14.79728697     2     589   593   594   595
H 360.64187789 18.82146669 -16.84959405     6    592    0    0    0
H 359.98982708 20.72075416 -14.41221432     6    592    0    0    0
C 363.50736837 19.12407279 -14.15943466     2    592   596   597   598
H 363.68347451 19.34831200 -12.10811424     6    595    0    0    0
H 364.43630091 17.32780973 -14.66892780     6    595    0    0    0
C 364.69624909 21.16772308 -15.77344640     2    595   599   600   601
H 363.96011584 21.23223873 -17.60700194     6    598    0    0    0
H 364.23664877 22.92277179 -14.63364602     6    598    0    0    0
C 367.52288143 20.73130363 -15.95827683     2    598   602   603   604
H 368.32720724 20.84164630 -14.09202163     6    601    0    0    0
H 367.89030251 18.78131231 -16.57880559     6    601    0    0    0
C 369.12138217 22.48794166 -17.73138718     2    601   605   606   607
H 368.50918558 22.16093516 -19.72819907     6    604    0    0    0
H 368.98462637 24.52099889 -17.41289891     6    604    0    0    0
C 371.98432270 22.26704484 -17.37129805     2    604   608   609   610
H 372.37176775 22.90682667 -15.51406487     6    607    0    0    0
H 372.24261783 20.17044441 -17.33242935     6    607    0    0    0
C 373.48952935 23.71943271 -19.42001371     2    607   611   612   613
H 372.74614392 23.14792864 -21.20590200     6    610    0    0    0
H 373.02848068 25.78808488 -19.32953387     6    610    0    0    0
C 376.35979096 22.95556944 -19.43276567     2    610   614   615   616
H 377.19611276 23.75456004 -17.77663959     6    613    0    0    0
H 376.54822678 20.96040176 -19.28794555     6    613    0    0    0
C 377.71804365 24.23556109 -21.63523599     1    613   617   618   619
H 377.17582433 23.60876842 -23.55037061     6    616    0    0    0
H 379.74722180 23.85475496 -21.33781111     6    616    0    0    0
H 377.45566340 26.33610715 -21.44500784     6    616    0    0    0
H 362.46195865 -0.79381180 -44.72592024     6     621    0    0    0 
C 362.91471837 0.25448248 -43.03595672     1     620    622    623    624
H 364.95727227 0.75976069 -43.32405360     6     621    0    0    0
H 362.05634989 2.01978136 -43.26749731     6     621    0    0    0
C 361.99040055 -0.86678255 -40.52338321     2     621    625    626    627
H 362.87495866 -0.04596671 -38.94527196     6     624    0    0    0
H 359.96628119 -0.36675867 -40.21293689     6     624    0    0    0
C 362.72481121 -3.76252384 -40.26625803     2     624    628   629   630
H 361.89810681 -4.82434771 -41.89925162     6     627    0    0    0
H 364.80853010 -3.85417875 -40.39707790     6     627    0    0    0
C 362.22364555 -4.91859160 -37.54542712     2     627   631   632   633
H 363.58502497 -4.18468002 -36.23867010     6    630    0    0    0
H 360.40962939 -4.25676577 -36.80306727     6    630    0    0    0
C 362.50605113 -7.83103128 -37.46908372     2    630   634   635   636
H 360.90481497 -8.81220780 -38.18573081     6    633    0    0    0
H 364.34626766 -8.27468954 -38.51164767     6    633    0    0    0
C 363.07340391 -8.91433931 -34.79209670     2    633   637   638   639
H 364.51363213 -7.73732514 -33.97425886     6    636    0    0    0
H 361.37006503 -8.65987143 -33.61334077     6    636    0    0    0
C 363.98750892 -11.71001514 -34.55406606     2    636   640   641   642
H 362.67792898 -12.94679015 -35.37116963     6    639    0    0    0
H 365.60449481 -11.75159339 -35.92039012     6    639    0    0    0
C 364.73645898 -12.42152115 -31.86328967     2    639   643   644   645
H 366.14836153 -11.12394380 -31.19830766     6    642    0    0    0
H 363.05174801 -12.08275545 -30.80975560     6    642    0    0    0
C 365.52516649 -15.24950993 -31.68785306     2    642   646   647   648
H 364.06660977 -16.52316612 -32.50153893     6    645    0    0    0
H 367.23308136 -15.50321484 -32.51174954     6    645    0    0    0
C 365.83553447 -16.03031052 -28.87404959     2    645   649   650   651
H 366.83706843 -14.66484222 -27.54558415     6    648    0    0    0
H 363.83965990 -16.18073077 -28.35653956     6    648    0    0    0
C 366.82129172 -18.79593157 -28.53342967     2    648   652   653   654
H 366.01568174 -19.78190228 -26.90298964     6    651    0    0    0
H 366.29274747 -19.87046336 -30.19026053     6    651    0    0    0
C 369.75704120 -18.77816927 -28.68397783     1    651   655   656   657
H 370.36763790 -17.77806826 -30.36388612     6    654    0    0    0
H 370.56150796 -20.65893896 -28.69314874     6    654    0    0    0
H 370.57630713 -17.89481121 -27.04016229     6    654    0    0    0
H 360.23623652 7.26532886 -17.11787128     6     659    0    0    0 
C 360.03173181 8.55639877 -18.65844246     1     658    660    661    662
H 360.25075669 7.36026506 -20.32720408     6     659    0    0    0
H 358.13208507 9.20786913 -18.60466678     6     659    0    0    0
C 361.95409980 10.73859280 -18.91512270     2     659    663    664    665
H 361.34106072 12.19755297 -17.71729541     6     662    0    0    0
H 363.69432970 9.97711377 -18.07849075     6     662    0    0    0
C 362.49041058 11.95817517 -21.44939613     2     662    666   667   668
H 363.39479726 10.59555152 -22.65900852     6     665    0    0    0
H 360.84753727 12.41463374 -22.58855963     6     665    0    0    0
C 364.30402148 14.18970819 -20.98162679     2     665   669   670   671
H 363.39675574 15.74144530 -20.19870950     6    668    0    0    0
H 365.72427322 13.74863109 -19.62547081     6    668    0    0    0
C 365.86051756 14.76733106 -23.27852410     2    668   672   673   674
H 366.83626998 13.00127007 -23.56482027     6    671    0    0    0
H 364.51717266 15.06211726 -24.82177980     6    671    0    0    0
C 367.66225271 17.06801578 -22.97945654     2    671   675   676   677
H 367.82304642 17.88951337 -24.92679603     6    674    0    0    0
H 366.50005796 18.40873203 -21.85843679     6    674    0    0    0
C 370.33105922 16.43479643 -22.01425000     2    674   678   679   680
H 371.05682133 17.82391489 -20.80309700     6    677    0    0    0
H 370.17376852 14.88349538 -20.63020405     6    677    0    0    0
C 372.10105424 15.56659532 -24.14550982     2    677   681   682   683
H 371.38997884 14.01476475 -25.19472852     6    680    0    0    0
H 372.20136177 17.00775463 -25.58291902     6    680    0    0    0
C 374.68895077 14.97900643 -23.13438001     2    680   684   685   686
H 374.61164415 14.90107975 -21.07477836     6    683    0    0    0
H 375.16059939 13.13097759 -23.92470993     6    683    0    0    0
C 376.77660759 16.73259703 -23.77612883     2    683   687   688   689
H 376.27358831 18.73465795 -23.12192027     6    686    0    0    0
H 378.69856723 16.07767909 -22.96616175     6    686    0    0    0
C 377.13589463 16.70924643 -26.65931799     2    686   690   691   692
H 377.47063973 14.70901665 -27.38689097     6    689    0    0    0
H 375.38960110 17.27906417 -27.70671113     6    689    0    0    0
C 379.37463407 18.27265863 -27.46150290     1    689   693   694   695
H 379.33536711 18.47892242 -29.51229347     6    692    0    0    0
H 381.00399895 17.26535901 -26.86955753     6    692    0    0    0
H 379.48611482 20.19141791 -26.75632893     6    692    0    0    0
H 387.45431840 16.63814166 -43.70995748     6     697    0    0    0 
C 385.53623548 16.15806181 -44.18219876     1     696    698    699    700
H 385.84722583 14.42434518 -45.32717783     6     697    0    0    0
H 384.39270008 15.67234843 -42.57924336     6     697    0    0    0
C 384.37641723 18.27335511 -45.79870923     2     697    701    702    703
H 383.95642190 19.89778915 -44.62779425     6     700    0    0    0
H 385.77491535 19.10331373 -47.30610462     6     700    0    0    0
C 381.79434494 17.60394577 -47.13810397     2     700    704   705   706
H 382.08290464 16.07554934 -48.35336673     6     703    0    0    0
H 380.68726894 16.82073282 -45.66343652     6     703    0    0    0
C 380.47111720 19.94849054 -48.05500934     2     703   707   708   709
H 379.56348720 21.14134738 -46.59337547     6    706    0    0    0
H 382.00501914 21.18561741 -48.70316773     6    706    0    0    0
C 378.65686037 19.67761730 -50.39373257     2    706   710   711   712
H 379.79498006 19.50267439 -52.06321606     6    709    0    0    0
H 377.70795943 17.95440370 -50.24000448     6    709    0    0    0
C 376.53443188 21.63676439 -50.69455768     2    709   713   714   715
H 375.31542625 21.82880666 -49.08606183     6    712    0    0    0
H 377.26166778 23.62984720 -50.77741622     6    712    0    0    0
C 375.00608100 21.37142135 -53.14075443     2    712   716   717   718
H 376.10955663 22.10042916 -54.67116459     6    715    0    0    0
H 374.54538893 19.54607903 -53.61520046     6    715    0    0    0
C 372.66080119 22.96300074 -52.85273986     2    715   719   720   721
H 371.77587804 22.34626786 -51.03487129     6    718    0    0    0
H 373.32862663 24.84181340 -52.44008616     6    718    0    0    0
C 370.84248119 22.70009324 -55.00333279     2    718   722   723   724
H 371.95779010 22.94701033 -56.70131629     6    721    0    0    0
H 370.06720153 20.77155897 -54.80848043     6    721    0    0    0
C 368.72326800 24.63600615 -54.81222852     2    721   725   726   727
H 367.70036129 24.06653676 -53.00585874     6    724    0    0    0
H 369.44478370 26.54351275 -54.59722699     6    724    0    0    0
C 366.82359039 24.63499044 -57.00315579     2    724   728   729   730
H 367.43996671 25.53402832 -58.74087904     6    727    0    0    0
H 366.57196228 22.67255120 -57.67487492     6    727    0    0    0
C 364.28155325 25.89279794 -56.17897564     1    727   731   732   733
H 362.73101943 25.80813441 -57.45870012     6    730    0    0    0
H 364.43562468 27.85357361 -55.44461308     6    730    0    0    0
H 363.51389025 24.77702859 -54.53641604     6    730    0    0    0
H 347.65796165 35.71406100 -34.68259035     6     735    0    0    0 
C 347.60478194 36.00579048 -32.69200652     1     734    736    737    738
H 349.07499913 37.41776641 -32.33261629     6     735    0    0    0
H 345.92897663 36.90567665 -32.04158697     6     735    0    0    0
C 348.00510868 34.05974534 -30.74440581     2     735    739    740    741
H 349.80897119 33.15106836 -31.38836105     6     738    0    0    0
H 348.40834423 34.88519911 -28.92448680     6     738    0    0    0
C 346.16415158 31.91477117 -30.41432678     2     738    742   743   744
H 344.43684600 32.66423827 -30.13764257     6     741    0    0    0
H 346.29457672 30.91730138 -32.24895932     6     741    0    0    0
C 346.80998436 30.32340261 -27.97862285     2     741   745   746   747
H 348.69073899 29.61440979 -28.09605272     6    744    0    0    0
H 346.44964979 31.48909560 -26.25386157     6    744    0    0    0
C 345.11375889 27.95236898 -27.93766587     2    744   748   749   750
H 345.16979951 27.05711523 -29.82946361     6    747    0    0    0
H 345.77236007 26.70922294 -26.41915512     6    747    0    0    0
C 342.19174148 28.40519251 -27.56893087     2    747   751   752   753
H 341.97052841 29.38399085 -25.79535804     6    750    0    0    0
H 341.84596306 29.81493191 -29.02278196     6    750    0    0    0
C 340.29779432 26.20019911 -28.03771553     2    750   754   755   756
H 338.33030016 26.84466354 -28.04784243     6    753    0    0    0
H 340.84183600 25.08962105 -29.73040036     6    753    0    0    0
C 340.52914664 24.21659632 -25.87519758     2    753   757   758   759
H 342.53038690 23.70704641 -25.41770580     6    756    0    0    0
H 339.61831035 24.92752676 -24.11924709     6    756    0    0    0
C 339.21682799 21.65336637 -26.57067264     2    756   760   761   762
H 340.00952083 21.10743786 -28.38047622     6    759    0    0    0
H 339.84655099 20.33400085 -25.02714864     6    759    0    0    0
C 336.21126684 21.83620495 -26.43703258     2    759   763   764   765
H 335.49548305 22.54033091 -24.71992420     6    762    0    0    0
H 335.79450488 23.33665246 -27.88330336     6    762    0    0    0
C 334.96968976 19.40055664 -27.57563279     2    762   766   767   768
H 335.97524298 18.71673677 -29.27819348     6    765    0    0    0
H 335.05862048 17.99879113 -26.03023388     6    765    0    0    0
C 332.14584027 19.86025017 -28.34010948     1    765   769   770   771
H 331.49191399 20.80695411 -26.66668301     6    768    0    0    0
H 330.92619821 18.23477299 -28.66386895     6    768    0    0    0
H 332.14872768 21.01550168 -30.01575839     6    768    0    0    0
H 357.94590610 -15.64744838 -37.20539000     6     773    0    0    0 
C 358.03864204 -16.79167132 -38.90086642     1     772    774    775    776
H 359.70253460 -17.96537027 -39.09266890     6     773    0    0    0
H 356.39555343 -17.99970838 -38.75301202     6     773    0    0    0
C 357.47142979 -15.19197461 -41.40038190     2     773    777    778    779
H 356.59021448 -16.42203591 -42.75936816     6     776    0    0    0
H 355.92123689 -13.86827704 -41.03124299     6     776    0    0    0
C 359.81070794 -13.86732043 -42.12542593     2     776    780   781   782
H 360.35908051 -12.54065440 -40.75590954     6     779    0    0    0
H 361.36004004 -15.12880160 -42.30670468     6     779    0    0    0
C 359.37217035 -12.44957419 -44.74315607     2     779   783   784   785
H 358.69909744 -13.90992720 -46.15027782     6    782    0    0    0
H 358.14218289 -10.80815492 -44.58889406     6    782    0    0    0
C 361.92789243 -11.39154589 -45.75711808     2    782   786   787   788
H 362.50021548 -9.76558369 -44.48581992     6    785    0    0    0
H 363.21772204 -12.83041697 -45.65365083     6    785    0    0    0
C 361.96856448 -10.41012027 -48.41039514     2    785   789   790   791
H 361.48742098 -12.00940717 -49.68778564     6    788    0    0    0
H 360.45614823 -9.00147019 -48.78419604     6    788    0    0    0
C 364.50120888 -9.18633417 -49.34978251     2    788   792   793   794
H 364.80014889 -7.70357394 -47.98958005     6    791    0    0    0
H 366.18059210 -10.28085074 -49.55674770     6    791    0    0    0
C 363.95648351 -7.99459192 -52.02532299     2    791   795   796   797
H 363.98212146 -9.62078291 -53.43174422     6    794    0    0    0
H 362.02857101 -7.12164595 -52.11135137     6    794    0    0    0
C 365.79918062 -6.08126219 -52.94369251     2    794   798   799   800
H 366.67135705 -4.87670454 -51.55800419     6    797    0    0    0
H 367.42079329 -6.95725856 -53.74739782     6    797    0    0    0
C 365.03458552 -4.73764192 -55.30464922     2    797   801   802   803
H 364.96630754 -6.15793824 -56.89859218     6    800    0    0    0
H 363.15289579 -3.68354452 -55.06271358     6    800    0    0    0
C 366.95681820 -2.74465815 -56.71354198     2    800   804   805   806
H 367.39750623 -1.29039704 -55.26224974     6    803    0    0    0
H 368.65617852 -3.77269121 -57.33095744     6    803    0    0    0
C 365.56222556 -1.56634630 -58.90302056     1    803   807   808   809
H 366.84008876 -0.61218450 -60.09371250     6    806    0    0    0
H 364.09840921 -0.25085819 -58.17177635     6    806    0    0    0
H 364.38560366 -3.00397670 -59.90282570     6    806    0    0    0
H 350.37266990 15.71522823 -19.17488829     6     811    0    0    0 
C 352.06513724 15.29621340 -20.16837461     1     810    812    813    814
H 351.85725709 16.24482044 -22.00584119     6     811    0    0    0
H 353.71599180 16.00871788 -19.16212378     6     811    0    0    0
C 352.35734045 12.39740778 -20.49630605     2     811    815    816    817
H 353.62737867 12.03922791 -22.02745825     6     814    0    0    0
H 353.34266820 11.61976804 -18.77638134     6     814    0    0    0
C 349.86651770 11.09109273 -20.79037739     2     814    818   819   820
H 348.99368256 10.77855838 -18.98118476     6     817    0    0    0
H 348.49002135 12.19576806 -21.79806880     6     817    0    0    0
C 350.11553765 8.51558600 -22.16730232     2     817   821   822   823
H 350.91189860 8.78639606 -24.00952973     6    820    0    0    0
H 351.47187403 7.20072187 -21.16758435     6    820    0    0    0
C 347.67860604 7.01656893 -22.34677491     2    820   824   825   826
H 347.00403982 6.69168304 -20.48784872     6    823    0    0    0
H 346.29908453 8.11956723 -23.55627125     6    823    0    0    0
C 348.39088035 4.25641196 -23.18351752     2    823   827   828   829
H 349.16759874 4.27000594 -25.00293096     6    826    0    0    0
H 349.73350537 3.32373828 -21.84813915     6    826    0    0    0
C 345.84079589 2.67948158 -23.43204298     2    826   830   831   832
H 344.97323245 2.43064817 -21.57601052     6    829    0    0    0
H 344.63575833 3.80366672 -24.54346835     6    829    0    0    0
C 346.04599778 0.07791653 -24.83131538     2    829   833   834   835
H 346.71124643 0.38477228 -26.56731770     6    832    0    0    0
H 347.19237343 -1.22619683 -23.60128095     6    832    0    0    0
C 343.48157451 -1.28314033 -25.23504674     2    832   836   837   838
H 342.87534927 -1.84940000 -23.37758692     6    835    0    0    0
H 342.04234586 0.06527962 -25.96440660     6    835    0    0    0
C 343.81942325 -3.58266807 -26.99754460     2    835   839   840   841
H 344.86359413 -3.03133018 -28.76351871     6    838    0    0    0
H 345.14723493 -4.77254614 -26.18459519     6    838    0    0    0
C 341.55116162 -5.32084965 -27.50920832     2    838   842   843   844
H 340.82936230 -6.18435657 -25.74727687     6    841    0    0    0
H 340.04649228 -4.14304648 -28.09977687     6    841    0    0    0
C 342.12052320 -7.62912823 -29.11418457     1    841   845   846   847
H 343.01400431 -7.00627075 -30.97397438     6    844    0    0    0
H 340.42916069 -8.74411536 -29.43976489     6    844    0    0    0
H 343.40695081 -8.90670678 -28.06486655     6    844    0    0    0
H 383.00004448 17.61721180 -18.71210062     6     849    0    0    0 
C 384.11074626 18.73205080 -17.15942020     1     848    850    851    852
H 386.11201053 18.16026663 -17.28698049     6     849    0    0    0
H 384.31100571 20.75172087 -17.54239034     6     849    0    0    0
C 382.99636465 18.35008090 -14.49482567     2     849    853    854    855
H 382.78762575 16.45529981 -14.10407509     6     852    0    0    0
H 384.10888002 18.86238776 -12.91144382     6     852    0    0    0
C 380.21772620 19.51079034 -14.45617861     2     852    856   857   858
H 380.31025468 21.53820152 -14.63307173     6     855    0    0    0
H 379.19296589 19.03764238 -16.14155552     6     855    0    0    0
C 378.80963242 18.66047426 -12.08728152     2     855   859   860   861
H 378.72828882 16.66116926 -12.27724785     6    858    0    0    0
H 379.79989725 18.97083064 -10.16857673     6    858    0    0    0
C 376.12534124 19.75069422 -11.98436550     2    858   862   863   864
H 376.18118895 21.78224262 -12.15157795     6    861    0    0    0
H 375.27094921 19.04580575 -13.73457403     6    861    0    0    0
C 374.81472962 19.16699756 -9.50886904     2    861   865   866   867
H 375.28941907 17.23421140 -9.19670220     6    864    0    0    0
H 375.42440153 20.26320594 -7.94977006     6    864    0    0    0
C 372.01439354 19.29830150 -10.01090585     2    864   868   869   870
H 371.70449816 21.34798468 -10.23864207     6    867    0    0    0
H 371.64995970 18.23083776 -11.70895279     6    867    0    0    0
C 370.57617145 18.56099578 -7.58237605     2    867   871   872   873
H 371.30698122 16.83457757 -6.72814575     6    870    0    0    0
H 370.90818271 20.04282980 -6.13033631     6    870    0    0    0
C 367.73178987 18.33605718 -8.13197701     2    870   874   875   876
H 367.31295407 19.84041769 -9.51359552     6    873    0    0    0
H 367.44772874 16.63696658 -9.16245856     6    873    0    0    0
C 365.94721299 18.21292785 -5.74567479     2    873   877   878   879
H 366.41489047 16.49454860 -4.65062783     6    876    0    0    0
H 366.25690774 20.02226094 -4.74371639     6    876    0    0    0
C 363.12269913 18.18100784 -6.48886096     2    876   880   881   882
H 362.78641654 19.94710821 -7.52303066     6    879    0    0    0
H 362.86898171 16.62639586 -7.88504648     6    879    0    0    0
C 361.22762930 17.86362401 -4.40016954     1    879   883   884   885
H 361.39051925 19.43557375 -3.26188332     6    882    0    0    0
H 361.76356882 16.41473566 -3.07783161     6    882    0    0    0
H 359.14891852 17.84647927 -5.05921745     6    882    0    0    0
H 354.19344419 1.34131522 -22.65184833     6     887    0    0    0 
C 356.27771116 1.43237291 -22.47908101     1     886    888    889    890
H 356.95382935 1.88583563 -20.55968791     6     887    0    0    0
H 356.87134812 -0.53210665 -22.76966440     6     887    0    0    0
C 357.69789958 3.11152571 -24.41448059     2     887    891    892    893
H 359.73708886 3.10232805 -24.30886702     6     890    0    0    0
H 357.17995543 2.28010199 -26.12586321     6     890    0    0    0
C 356.57170114 5.73634022 -24.12446424     2     890    894   895   896
H 354.53955410 5.55114558 -24.30651689     6     893    0    0    0
H 357.02063462 6.43707513 -22.33199151     6     893    0    0    0
C 357.53256728 7.45913571 -26.23568860     2     893   897   898   899
H 359.55983769 7.45742353 -26.36023093     6    896    0    0    0
H 357.15188735 7.01912413 -28.13374641     6    896    0    0    0
C 356.69154470 10.24472292 -25.82156151     2    896   900   901   902
H 354.82564160 10.67831387 -26.11341127     6    899    0    0    0
H 357.05674237 10.73522219 -23.93154797     6    899    0    0    0
C 358.08855245 12.21118953 -27.59241400     2    899   903   904   905
H 360.16363006 12.25954303 -27.55296098     6    902    0    0    0
H 357.50127576 11.61106938 -29.46361853     6    902    0    0    0
C 357.10409958 14.94611111 -27.30115391     2    902   906   907   908
H 358.13954382 15.86636203 -28.84753892     6    905    0    0    0
H 355.14170529 14.96262058 -27.69235132     6    905    0    0    0
C 358.10996035 16.13267474 -24.91305358     2    905   909   910   911
H 357.43945903 14.96853918 -23.25097235     6    908    0    0    0
H 360.17422197 16.19006427 -25.01960161     6    908    0    0    0
C 357.28827218 18.87464233 -24.76841303     2    908   912   913   914
H 357.52971175 19.64133347 -26.63419675     6    911    0    0    0
H 355.26965964 18.89579511 -24.67023634     6    911    0    0    0
C 358.82308185 20.38116279 -22.74653319     2    911   915   916   917
H 359.41275689 19.17591397 -21.27824026     6    914    0    0    0
H 360.68071519 20.89553144 -23.67878185     6    914    0    0    0
C 357.34925669 22.64519941 -21.72720796     2    914   918   919   920
H 356.80776056 23.78216786 -23.24177756     6    917    0    0    0
H 355.53865989 21.98832937 -20.97261546     6    917    0    0    0
C 358.90748242 24.12566276 -19.88287891     1    917   921   922   923
H 357.92197195 25.86050370 -19.10109330     6    920    0    0    0
H 360.67700265 24.88151522 -20.72416832     6    920    0    0    0
H 359.38953319 22.92532858 -18.30489717     6    920    0    0    0
H 374.81961120 -2.15981124 -23.86395072     6     925    0    0    0 
C 376.51579125 -1.40073665 -24.73359815     1     924    926    927    928
H 378.00806685 -2.75077722 -24.74566152     6     925    0    0    0
H 376.18875391 -0.89119597 -26.72770188     6     925    0    0    0
C 377.08787882 1.19464688 -23.55783292     2     925    929    930    931
H 378.86650107 1.83455235 -24.39048115     6     928    0    0    0
H 375.78102971 2.55933135 -24.13299495     6     928    0    0    0
C 377.18110047 1.23338492 -20.74243986     2     928    932   933   934
H 378.93988663 0.29944972 -19.97931353     6     931    0    0    0
H 377.31553277 3.30155802 -20.20256687     6     931    0    0    0
C 374.74378690 0.15036830 -19.36795199     2     931   935   936   937
H 373.13260212 1.27126257 -20.01544773     6    934    0    0    0
H 374.49680243 -1.82720449 -19.98021810     6    934    0    0    0
C 374.80362708 0.39674387 -16.49422744     2    934   938   939   940
H 376.50470199 -0.55925602 -15.70010410     6    937    0    0    0
H 375.10488580 2.47611017 -16.02113972     6    937    0    0    0
C 372.46560220 -0.85597831 -15.14810519     2    937   941   942   943
H 371.62779940 -2.27917119 -16.44117812     6    940    0    0    0
H 373.21639958 -1.54334242 -13.32306427     6    940    0    0    0
C 370.36193591 1.16103944 -14.47545595     2    940   944   945   946
H 371.17532650 2.73412472 -13.40804401     6    943    0    0    0
H 369.69070611 1.88162041 -16.25854590     6    943    0    0    0
C 367.99169290 -0.01395363 -13.28473867     2    943   947   948   949
H 367.02504486 -1.49343575 -14.35887263     6    946    0    0    0
H 368.70088509 -0.62209505 -11.42469562     6    946    0    0    0
C 366.19451276 2.12643510 -12.53639904     2    946   950   951   952
H 366.91818140 3.26254513 -11.01608072     6    949    0    0    0
H 365.93940888 3.43542154 -14.19226825     6    949    0    0    0
C 363.61244973 0.96589217 -11.66343998     2    949   953   954   955
H 362.53454593 0.10384072 -13.16119773     6    952    0    0    0
H 364.25125833 -0.64269908 -10.52763814     6    952    0    0    0
C 362.04003452 2.60868595 -9.94260918     2    952   956   957   958
H 360.28712992 1.60227043 -9.10261370     6    955    0    0    0
H 362.81740985 3.01497589 -8.02736537     6    955    0    0    0
C 361.03926434 4.79679726 -11.37470393     1    955   959   960   961
H 360.22102680 6.17099519 -10.01351580     6    958    0    0    0
H 359.82690243 4.29199395 -12.89690889     6    958    0    0    0
H 362.50456430 6.05907486 -12.10270826     6    958    0    0    0
H 344.58524222 16.83213557 -37.25658429     6     963    0    0    0 
C 345.09839241 14.81800123 -37.43767656     1     962    964    965    966
H 346.77496708 14.48910369 -36.35675793     6     963    0    0    0
H 343.71027779 13.72625584 -36.66043885     6     963    0    0    0
C 345.38134999 14.27053296 -40.34719223     2     963    967    968    969
H 345.92486713 12.28711340 -40.44349301     6     966    0    0    0
H 343.56552995 14.39203512 -41.38142318     6     966    0    0    0
C 347.57072824 15.84770158 -41.45892851     2     966    970   971   972
H 347.48118776 17.90932796 -41.12159394     6     969    0    0    0
H 349.34451627 15.25191225 -40.42031163     6     969    0    0    0
C 347.88799911 15.17411167 -44.25764009     2     969   973   974   975
H 348.13107171 13.09724298 -44.57580260     6    972    0    0    0
H 346.00465569 15.52666937 -44.92405955     6    972    0    0    0
C 350.02877091 16.73127335 -45.50576686     2    972   976   977   978
H 349.85493910 18.80992219 -45.28750168     6    975    0    0    0
H 351.86305100 16.09235842 -44.62948653     6    975    0    0    0
C 350.07118653 16.04037828 -48.29694261     2    975   979   980   981
H 349.78602502 13.96122253 -48.41220554     6    978    0    0    0
H 348.48631478 16.97598283 -49.24759811     6    978    0    0    0
C 352.57888008 16.80085193 -49.69595383     2    978   982   983   984
H 352.59377215 18.89035760 -49.81980601     6    981    0    0    0
H 354.26475717 16.10757516 -48.72198261     6    981    0    0    0
C 352.91836767 15.91949006 -52.37574096     2    981   985   986   987
H 353.28629200 13.87434495 -52.50072985     6    984    0    0    0
H 351.31044548 16.20497806 -53.52220909     6    984    0    0    0
C 354.97263298 17.28597261 -53.99298049     2    984   988   989   990
H 354.62737621 16.72736190 -56.04159113     6    987    0    0    0
H 354.86344385 19.30544297 -53.90873262     6    987    0    0    0
C 357.48901203 16.59256687 -53.26848113     2    987   991   992   993
H 357.67839043 17.37842482 -51.36144901     6    990    0    0    0
H 358.00860797 14.64736421 -53.36057031     6    990    0    0    0
C 359.50907408 17.94228833 -55.03689044     2    990   994   995   996
H 359.21662700 16.92419336 -56.79064235     6    993    0    0    0
H 358.87768145 19.95626681 -55.39028933     6    993    0    0    0
C 362.39911171 17.86174080 -54.41639767     1    993   997   998   999
H 362.87208513 19.11075994 -52.94315594     6    996    0    0    0
H 363.41866520 18.41323947 -56.02139159     6    996    0    0    0
H 363.00032197 15.93093791 -53.84942752     6    996    0    0    0
H 336.67329419 18.85024379 -34.18703414     6     1001    0    0    0 
C 336.16443842 20.75855944 -34.63999230     1     1000    1002    1003    1004
H 334.62138878 20.65547032 -36.05834741     6     1001    0    0    0
H 335.38145996 21.67630760 -32.99411863     6     1001    0    0    0
C 338.26624312 22.25114380 -35.84366838     2     1001    1005    1006    1007
H 337.36982527 24.13836468 -36.32892558     6     1004    0    0    0
H 339.71454996 22.26169750 -34.38925841     6     1004    0    0    0
C 339.32427974 21.17393001 -38.29868547     2     1004    1008   1009   1010
H 339.81841472 19.24046756 -38.05451362     6     1007    0    0    0
H 337.94497518 21.28003836 -39.74278745     6     1007    0    0    0
C 341.74960698 22.45881753 -39.21536169     2     1007   1011   1012   1013
H 341.63363734 24.48948997 -38.96422908     6    1010    0    0    0
H 343.22100877 21.86577298 -38.04051429     6    1010    0    0    0
C 342.25841652 21.55884836 -41.91575703     2    1010   1014   1015   1016
H 342.46172947 19.57465719 -42.04923022     6    1013    0    0    0
H 340.85321384 22.19383443 -43.27819796     6    1013    0    0    0
C 344.80976965 22.68234603 -42.88612917     2    1013   1017   1018   1019
H 344.67597715 24.70442738 -42.42071156     6    1016    0    0    0
H 346.56971768 22.05470235 -41.82863143     6    1016    0    0    0
C 345.16028926 22.34323509 -45.72710029     2    1016   1020   1021   1022
H 345.78942336 20.39293570 -45.86725935     6    1019    0    0    0
H 343.44632342 22.83742467 -46.79471928     6    1019    0    0    0
C 347.57953697 23.81283760 -46.56009859     2    1019   1023   1024   1025
H 349.16127761 23.56225552 -45.20583581     6    1022    0    0    0
H 348.10450807 23.08228681 -48.28697337     6    1022    0    0    0
C 346.88862220 26.61916518 -47.05806600     2    1022   1026   1027   1028
H 345.34195972 26.85521986 -48.43211386     6    1025    0    0    0
H 346.23209426 27.37029252 -45.19383692     6    1025    0    0    0
C 349.17365312 28.39066478 -47.97287504     2    1025   1029   1030   1031
H 350.52365162 28.77226116 -46.52586418     6    1028    0    0    0
H 350.13199804 27.72620103 -49.65966059     6    1028    0    0    0
C 348.12956718 31.00225550 -48.87015062     2    1028   1032   1033   1034
H 346.60296249 30.91501311 -50.41165699     6    1031    0    0    0
H 347.18623346 31.78659323 -47.27205382     6    1031    0    0    0
C 350.05906798 32.61819728 -50.23454119     1    1031   1035   1036   1037
H 349.36248012 34.44276363 -50.69339240     6    1034    0    0    0
H 350.93144213 31.84206110 -51.93863153     6    1034    0    0    0
H 351.61757221 32.89152768 -49.00681544     6    1034    0    0    0
H 355.09490301 -4.76438096 -40.79767594     6     1039    0    0    0 
C 355.35156638 -6.78637983 -40.18165324     1     1038    1040    1041    1042
H 354.08933766 -7.84213648 -41.31320729     6     1039    0    0    0
H 357.36230071 -7.14790208 -40.43539024     6     1039    0    0    0
C 354.72737812 -6.84531296 -37.35637230     2     1039    1043    1044    1045
H 356.10778928 -5.58001533 -36.53417452     6     1042    0    0    0
H 352.89821881 -6.01410805 -37.16387924     6     1042    0    0    0
C 354.80734108 -9.44378426 -36.13751260     2     1042    1046   1047   1048
H 353.75756775 -10.90115132 -37.36968979     6     1045    0    0    0
H 356.67421638 -10.09134901 -36.34483626     6     1045    0    0    0
C 354.08690704 -9.41511967 -33.36358812     2     1045   1049   1050   1051
H 355.31282402 -8.17316253 -32.22680204     6    1048    0    0    0
H 352.21197335 -8.51759666 -33.29041666     6    1048    0    0    0
C 354.01539603 -12.09621846 -32.14292766     2    1048   1052   1053   1054
H 352.48486673 -13.16305027 -33.31061320     6    1051    0    0    0
H 355.82501748 -12.89768530 -32.64661801     6    1051    0    0    0
C 353.42750129 -12.12810482 -29.34887676     2    1051   1055   1056   1057
H 355.06582672 -11.34914651 -28.60454571     6    1054    0    0    0
H 351.86944464 -10.87364677 -28.87489417     6    1054    0    0    0
C 353.06925631 -14.72273580 -28.05232053     2    1054   1058   1059   1060
H 351.55419189 -15.66740854 -28.79066400     6    1057    0    0    0
H 354.69165132 -15.91260507 -28.14889075     6    1057    0    0    0
C 352.12771897 -14.30048856 -25.37440345     2    1057   1061   1062   1063
H 353.44187724 -13.27868377 -24.16856840     6    1060    0    0    0
H 350.42920347 -13.33510182 -25.51719141     6    1060    0    0    0
C 351.21158543 -16.68023314 -23.91865662     2    1060   1064   1065   1066
H 350.07837766 -17.85361513 -25.23456165     6    1063    0    0    0
H 352.87312435 -17.71706979 -23.34107089     6    1063    0    0    0
C 349.71658289 -15.98230353 -21.50929249     2    1063   1067   1068   1069
H 350.55381299 -14.37531561 -20.48147406     6    1066    0    0    0
H 347.95008932 -15.05138732 -22.21890534     6    1066    0    0    0
C 349.27354566 -18.38921589 -19.76178141     2    1066   1070   1071   1072
H 348.38177437 -19.94156596 -20.92923434     6    1069    0    0    0
H 351.13796082 -19.16887078 -19.26207428     6    1069    0    0    0
C 347.44483603 -18.37826210 -17.46807612     1    1069   1073   1074   1075
H 347.15401405 -20.25530370 -16.66464319     6    1072    0    0    0
[...]
 1786      H     370.8842437200    35.2166198800   -51.6953520500
 1787      H     367.9024009700    34.0359412200   -50.8561519500
 1788      C     368.3516538300    35.3561718900   -54.7740935600
 1789      H     366.3929749200    35.9013919500   -55.1763400700
 1790      H     369.5561672000    36.9075311100   -55.5933731900
 1791      C     369.2895100800    32.7950347800   -55.8271413300
 1792      H     371.2612313700    32.5423603800   -55.4682521600
 1793      H     368.2463440000    31.1710946100   -55.2359421100
 1794      C     368.8968744900    32.8661698800   -58.6763374800
 1795      H     370.2392543800    34.1802857500   -59.5625544600
 1796      H     367.1394042000    33.5725612600   -59.3002225000
 1797      H     369.1264632900    31.1188086300   -59.5323005500
 1798      H     381.5763195800    -8.0822891400   -39.1237774900
 1799      C     380.8407229900    -8.2219470600   -37.1066904800
 1800      H     379.8532086700   -10.1068672900   -36.8689736700
 1801      H     382.1859268100    -7.8778990600   -35.6441627500
 1802      C     378.7480285900    -6.1439160100   -36.7611635400
 1803      H     379.7688189000    -4.4874772500   -37.2389082200
 1804      H     377.4277124000    -6.4647798500   -38.2793780600
 1805      C     377.8575761100    -6.4163111000   -33.9384588800
 1806      H     376.9361748400    -8.2395973300   -33.6657972600
 1807      H     379.5008345600    -6.2760828600   -32.4950106800
 1808      C     375.7269155800    -4.5506466100   -33.3036682400
 1809      H     376.3466561500    -2.6277462600   -33.7613090400
 1810      H     374.2331168200    -4.9674890100   -34.5314673100
 1811      C     374.3355390600    -4.8930828000   -30.8336949600
 1812      H     373.8980665800    -7.0653193000   -30.3770276800
 1813      H     375.4738320800    -4.1562400100   -29.3944685300
 1814      C     371.8581552100    -3.2556541300   -30.6846894000
 1815      H     372.4986426000    -1.3818972600   -30.4771431400
 1816      H     370.9542874600    -3.3772018800   -32.4553125600
 1817      C     370.3134392000    -4.1403961200   -28.2803290100
 1818      H     368.8471849500    -5.3227928000   -28.8984800000
 1819      H     371.4005610900    -5.2493162400   -26.7408461500
 1820      C     368.9533252800    -1.9573215200   -26.9611186300
 1821      H     370.0620333400    -0.4013311300   -26.5715874200
 1822      H     367.4788791500    -1.5347158300   -28.3466878900
 1823      C     367.7292149700    -2.6279474500   -24.3955263000
 1824      H     366.7640475200    -4.4611252700   -24.6033473600
 1825      H     369.3982108000    -2.8280565400   -23.1899631500
 1826      C     366.3609998000    -0.3444577900   -23.0217356600
 1827      H     367.4316679400     1.2866426200   -23.0163308800
 1828      H     364.6220175900     0.1089725200   -23.9410844100
 1829      C     365.7391136100    -0.8631131500   -20.2781190400
 1830      H     364.3993631600    -2.4454637100   -20.1866730500
 1831      H     367.2638044500    -1.5228884700   -19.0166986400
 1832      C     364.6060328600     1.3998136000   -18.8083890500
 1833      H     363.0586551300     2.2692993700   -19.7711404300
 1834      H     366.0725755200     2.8305284600   -18.5295506900
 1835      H     363.7906749700     1.0133509800   -16.8678012500
 1836      H     368.8277968100     5.0905729700   -31.2547973700
 1837      C     367.2277248400     6.2786978400   -30.9521165900
 1838      H     367.4181349500     8.0892163200   -31.9285971200
 1839      H     365.6841516900     5.3132219400   -31.9747686900
 1840      C     366.9061879300     6.2774603300   -28.0123987600
 1841      H     365.5346588700     7.8217830500   -27.5605039900
 1842      H     365.9581831400     4.7060707100   -27.2297838700
 1843      C     369.4122936300     6.8482039900   -26.6519471600
 1844      H     370.7515383800     5.3152699600   -27.2123905300
 1845      H     370.3599674600     8.7079189800   -27.1619987300
 1846      C     368.9846303100     6.9202350100   -23.8593516500
 1847      H     368.2419310700     8.7208111000   -23.4171697500
 1848      H     367.6118709700     5.7342729500   -22.9092661900
 1849      C     371.3540522500     6.6291864400   -22.3187284900
 1850      H     371.9325826900     4.7754773900   -22.7046139400
 1851      H     372.8870109100     7.9252233500   -22.8195924200
 1852      C     371.1605024000     6.8207507200   -19.5001404600
 1853      H     370.3909507900     5.0036226100   -18.8939285300
 1854      H     373.0598537000     6.8413408300   -18.6057561100
 1855      C     369.7934901100     9.2570392400   -18.4086674200
 1856      H     370.2875440500    10.8615602500   -19.6106139500
 1857      H     367.8368130300     9.1208617000   -18.8174885800
 1858      C     370.2847532100     9.7582363200   -15.5730936900
 1859      H     369.0890953100    11.4054329700   -15.2091923400
 1860      H     369.8440675300     8.1882459900   -14.2173501700
 1861      C     372.9839415200    10.6902312800   -15.1339613000
 1862      H     374.0918314400    10.8899694400   -17.0381644400
 1863      H     372.9567493900    12.5179579400   -14.1532473900
 1864      C     374.3879529300     8.5838816200   -13.4811327600
 1865      H     373.4734883000     8.3490942000   -11.5803095000
 1866      H     374.3806224900     6.5893504900   -14.1900012500
 1867      C     377.2043452000     9.3264485700   -13.0162007800
 1868      H     378.0371355300     9.6968704500   -14.8523412600
 1869      H     377.4032921500    11.1188185300   -12.0690304400
 1870      C     378.5641118500     7.1887777700   -11.7041636800
 1871      H     380.4917935600     7.6038689200   -11.1539463200
 1872      H     378.4492396900     5.5958583700   -12.9146424800
 1873      H     377.7031509800     6.8900243000    -9.9965629400
 1874      H     379.2914153500    10.8243466900   -54.3910567200
 1875      C     378.5051775900    10.2770001600   -52.6107363400
 1876      H     378.7862142900     8.2644722700   -52.5984877400
 1877      H     379.4731868700    11.3963532700   -51.0654854100
 1878      C     375.6496297700    11.0731677700   -52.8086243400
 1879      H     375.4348632300    13.0697196500   -53.0957961000
 1880      H     374.7656773200    10.0749414700   -54.4163432100
 1881      C     373.9068991000    10.5838292300   -50.4183877700
 1882      H     373.5250318300     8.6715249300   -50.2023635900
 1883      H     375.0136343400    11.2363446700   -48.7516407600
 1884      C     371.3521726200    12.0007840900   -50.4434444300
 1885      H     371.7387696300    13.9550165500   -50.1258403700
 1886      H     370.7802829800    11.9319573500   -52.3540851900
 1887      C     369.1084847000    10.9158112500   -48.9060677800
 1888      H     369.1208732800     8.9753283200   -49.4576813000
 1889      H     369.3028219800    11.0332452100   -46.8568516000
 1890      C     366.5580723600    12.1028474300   -49.5305059800
 1891      H     366.5225334500    14.1247601200   -48.8937788600
 1892      H     366.7448151800    12.1139079400   -51.5236478200
 1893      C     364.4393788300    10.2486717300   -48.6556858000
 1894      H     364.5335380700     8.5043585100   -49.6721901300
 1895      H     364.5169895400     9.8380588200   -46.6581342900
 1896      C     361.7951877500    11.2358537100   -49.4762249600
 1897      H     361.3922980700    12.8795251700   -48.3416678900
 1898      H     361.9407570200    11.8508147700   -51.3874373800
 1899      C     359.6430506800     9.3669191800   -49.1012820400
 1900      H     360.0970016400     7.5151053300   -49.7861880000
 1901      H     359.3170054600     9.0860341700   -47.1378637300
 1902      C     357.0800296300    10.0214662000   -50.3647512300
 1903      H     356.1064253900    11.5121044300   -49.3451396200
 1904      H     357.2814030200    10.5301435600   -52.3802535200
 1905      C     355.3469938300     7.6737741000   -50.4169843800
 1906      H     356.0709869000     5.9652305300   -51.4733255800
 1907      H     355.1592171100     6.8894549500   -48.4089074300
 1908      C     352.5675443500     8.3823373500   -51.2373687400
 1909      H     352.3309665000     9.3788896000   -53.0675818500
 1910      H     351.7151695400     9.3955796500   -49.5681166900
 1911      H     351.3972992000     6.7606273500   -51.5115548900
 ----------------------------------------------------------------
 Nuclear Repulsion Energy =           0.00000000 hartrees
 There are     2498 alpha and     2498 beta electrons

 Total QAlloc Memory Limit   2000 MB
 Mega-Array Size       188 MB
 MEM_STATIC part       192 MB
   **** Step 1: MM calculation on the entire system **** 
 OPLSAA force field loaded.
Reading user-defined FF parameters...
 Reading user defined atom types.
 Found 3 user defined AtomTypes
finished.
Determining angles, torsions, etc. from user defined input
Determining VDW/Coulomb pairs... (useList = 0)

 Time req'd to get MM system information: 0.2 s (CPU) 0.4 s (wall)

 ------ MM Energies ------
   Ebond:           561.311878077295
   Eangle:          896.024152019065
   EUreyBrad:         0.000000000000
   Eimptors:          0.000000000000
   Etorsion:        225.090152100962
   Evdw:        1026114.887270397856
   Ecoulomb:        184.955454593292
   Etot:        1027982.268907188438 Kcal/mol (   1638.194029596070 hartree)
 -------------------------
 Time req'd to calc MM energy: 0.1 s (CPU) 0.1 s (wall)
 OPLSAA force field loaded.
Reading user-defined FF parameters...
 Reading user defined atom types.
 Found 3 user defined AtomTypes
finished.
 Time req'd to get MM system information: 0.0 s (CPU) 0.0 s (wall)
 Time req'd to calc MM gradient: 0.2 s (CPU) 0.2 s (wall)
   **** Step 2: MM calculation on the model system **** 
 Reading user defined atom types.
 Found 3 user defined AtomTypes
 ----------------------------------------------------------------
             Standard Nuclear Orientation (Bohr)
    I     Atom           X                Y                Z
 ----------------------------------------------------------------
    1      Fe    361.5667839200    12.6534287200   -40.6257213900
    2      C     359.4965331000    13.7633153600   -42.8730063800
    3      C     364.8076239700    11.6633486300   -41.3925795100
    4      C     362.7614206200    15.7746273100   -39.9382302900
    5      C     360.6925350300    12.2570042500   -37.3281355600
    6      C     360.0698858600     9.7068303700   -41.3979499800
    7      O     358.0382650900    14.5476018800   -44.5921386400
    8      O     366.7446818000    10.7611027900   -41.8626242000
    9      O     363.6144708200    17.6820845800   -39.4150221700
   10      O     360.1427613500    12.4898890600   -35.2025044400
   11      O     358.9387612100     7.8377896800   -41.8136684600
 ----------------------------------------------------------------
 Nuclear Repulsion Energy =         800.91147294 hartrees
 There are       48 alpha and       48 beta electrons
 OPLSAA force field loaded.
Reading user-defined FF parameters...
 Reading user defined atom types.
 Found 3 user defined AtomTypes
finished.
Determining VDW/Coulomb pairs... (useList = 0)

 No MM bonds in system. Return all possible pairs.
 Time req'd to get MM system information: 0.0 s (CPU) 0.0 s (wall)

 ------ MM Energies ------
   Ebond:             0.000000000000
   Eangle:            0.000000000000
   EUreyBrad:         0.000000000000
   Eimptors:          0.000000000000
   Etorsion:          0.000000000000
   Evdw:        1026542.289452605764
   Ecoulomb:         -6.357852134732
   Etot:        1026535.931600471027 Kcal/mol (   1635.889144373522 hartree)
 -------------------------
 Eold: 1638.1940296 mm_energy: 1635.8891444 Enew:    2.3048852
 Time req'd to calc MM energy: 0.0 s (CPU) 0.0 s (wall)
 OPLSAA force field loaded.
Reading user-defined FF parameters...
 Reading user defined atom types.
 Found 3 user defined AtomTypes
finished.
Determining VDW/Coulomb pairs... (useList = 0)

 No MM bonds in system. Return all possible pairs.
 Time req'd to get MM system information: 0.0 s (CPU) 0.0 s (wall)
 Number of fixed atoms: 0
 Time req'd to calc MM gradient: 0.0 s (CPU) 0.0 s (wall)
   **** Step 3: QM calculation on the model system **** 
 Requested basis set is def2-mSVP
 There are 80 shells and 174 basis functions

                       Distance Matrix (Bohrs)
             Fe(  1)   C (  2)   C (  3)   C (  4)   C (  5)   C (  6)
   C (  2)  3.250858
   C (  3)  3.474388  5.899933
   C (  4)  3.411991  4.828848  4.817125
   C (  5)  3.434463  5.868985  5.814300  4.844229
   C (  6)  3.394036  4.354262  5.125832  6.796565  4.842981
   O (  7)  5.636559  2.386853  8.023734  6.743341  8.065837  6.145193
   O (  8)  5.649907  7.910108  2.187963  6.686186  7.708942  6.773501
   O (  9)  5.562930  6.653707  6.446668  2.154028  6.505713  8.949903
   O ( 10)  5.609444  7.802296  7.794943  6.330401  2.207894  6.792221
   O ( 11)  5.613208  6.045259  7.018245  9.006852  6.536451  2.223866
             O (  7)   O (  8)   O (  9)   O ( 10)
   O (  8)  9.878741
   O (  9)  8.229313  7.980537
   O ( 10)  9.840138  9.535788  7.533722
   O ( 11)  7.317948  8.335500 11.159118  8.173074

 A cutoff of  1.0D-11 yielded   2493 shell pairs
 There are     12831 function pairs (     14683 Cartesian)
 Smallest overlap matrix eigenvalue = 2.41E-03
 Guess from superposition of atomic densities
 Warning:  Energy on first SCF cycle will be non-variational
 SAD guess density has 96.000000 electrons
 A restricted Kohn-Sham SCF calculation will be
 performed using Pulay DIIS extrapolation
 Exchange:  B88      Correlation:  P86
 Using SG-1 standard quadrature grid
 SCF converges when DIIS error is below 1.0E-08
 using 2 threads for integral computing
 -------------------------------------------------------
 OpenMP Integral computing Module                
 Release: version 1.0, May 2013, Q-Chem Inc. Pittsburgh 
 -------------------------------------------------------
 ---------------------------------------
  Cycle       Energy         DIIS Error
 ---------------------------------------
    1   -1832.1436002890      6.81E-02

 Q-Chem fatal error occurred in module libmdc/newfileman.C, line 384:

 FileMan error: End of file reached prematurely reading (102648) bytes in file FILE_MULT_MATRIX
 Path: /home/tl686/scratch60/qchem_dev/scratch/qchem69862/63.0


 Please submit a crash report at q-chem.com/reporter 
 
 
 
User input: 2 of 2 
 
                  Welcome to Q-Chem
     A Quantum Leap Into The Future Of Chemistry


 Q-Chem 5.4 (devel), Q-Chem, Inc., Pleasanton, CA (2021)

 E. Epifanovsky,  A. T. B. Gilbert,  Xintian Feng,  Joonho Lee,  Yuezhi Mao,  
 N. Mardirossian,  P. Pokhilko,  A. White,  M. Wormit,  M. P. Coons,  
 A. L. Dempwolff,  Zhengting Gan,  D. Hait,  P. R. Horn,  L. D. Jacobson,  
 I. Kaliman,  J. Kussmann,  A. W. Lange,  Ka Un Lao,  D. S. Levine,  Jie Liu,  
 S. C. McKenzie,  A. F. Morrison,  K. Nanda,  F. Plasser,  D. R. Rehn,  
 M. L. Vidal,  Zhi-Qiang You,  Ying Zhu,  B. Alam,  B. Albrecht,  
 A. Aldossary,  E. Alguire,  J. H. Andersen,  D. Barton,  K. Begam,  A. Behn,  
 Y. A. Bernard,  E. J. Berquist,  H. Burton,  A. Carreras,  K. Carter-Fenk,  
 R. Chakraborty,  A. D. Chien,  K. D. Closser,  V. Cofer-Shabica,  
 S. Dasgupta,  Jia Deng,  M. de Wergifosse,  M. Diedenhofen,  Hainam Do,  
 S. Ehlert,  Po-Tung Fang,  S. Fatehi,  Qingguo Feng,  T. Friedhoff,  
 J. Gayvert,  Qinghui Ge,  G. Gidofalvi,  M. Goldey,  J. Gomes,  
 C. Gonzalez-Espinoza,  S. Gulania,  A. Gunina,  M. W. D. Hanson-Heine,  
 P. H. P. Harbach,  A. W. Hauser,  M. F. Herbst,  M. Hernandez Vera,  
 M. Hodecker,  Z. C. Holden,  S. Houck,  Xunkun Huang,  Kerwin Hui,  
 B. C. Huynh,  M. Ivanov,  Hyunjun Ji,  Hanjie Jiang,  B. Kaduk,  S. Kaehler,  
 K. Khistyaev,  Jaehoon Kim,  P. Klunzinger,  Z. Koczor-Benda,  
 Joong Hoon Koh,  D. Kosenkov,  L. Koulias,  T. Kowalczyk,  C. M. Krauter,  
 K. Kue,  A. Kunitsa,  T. Kus,  A. Landau,  K. V. Lawler,  D. Lefrancois,  
 S. Lehtola,  Rain Li,  Yi-Pei Li,  Jiashu Liang,  M. Liebenthal,  
 Hung-Hsuan Lin,  You-Sheng Lin,  Fenglai Liu,  Kuan-Yu Liu,  
 M. Loipersberger,  A. Luenser,  A. Manjanath,  P. Manohar,  E. Mansoor,  
 S. F. Manzer,  Shan-Ping Mao,  A. V. Marenich,  T. Markovich,  S. Mason,  
 S. A. Maurer,  P. F. McLaughlin,  M. F. S. J. Menger,  J.-M. Mewes,  
 S. A. Mewes,  P. Morgante,  J. W. Mullinax,  K. J. Oosterbaan,  G. Paran,  
 Alexander C. Paul,  Suranjan K. Paul,  F. Pavosevic,  Zheng Pei,  S. Prager,  
 E. I. Proynov,  E. Ramos,  B. Rana,  A. E. Rask,  A. Rettig,  R. M. Richard,  
 F. Rob,  E. Rossomme,  T. Scheele,  M. Scheurer,  M. Schneider,  
 N. Sergueev,  S. M. Sharada,  W. Skomorowski,  D. W. Small,  C. J. Stein,  
 Yu-Chuan Su,  E. J. Sundstrom,  Zhen Tao,  J. Thirman,  T. Tsuchimochi,  
 N. M. Tubman,  S. P. Veccham,  O. Vydrov,  J. Wenzel,  J. Witte,  A. Yamada,  
 Kun Yao,  S. Yeganeh,  S. R. Yost,  A. Zech,  Igor Ying Zhang,  Xing Zhang,  
 Yu Zhang,  D. Zuev,  A. Aspuru-Guzik,  A. T. Bell,  N. A. Besley,  
 K. B. Bravaya,  B. R. Brooks,  D. Casanova,  Jeng-Da Chai,  S. Coriani,  
 C. J. Cramer,  A. E. DePrince, III,  R. A. DiStasio Jr.,  A. Dreuw,  
 B. D. Dunietz,  T. R. Furlani,  W. A. Goddard III,  S. Grimme,  
 S. Hammes-Schiffer,  T. Head-Gordon,  W. J. Hehre,  Chao-Ping Hsu,  
 T.-C. Jagau,  Yousung Jung,  A. Klamt,  Jing Kong,  D. S. Lambrecht,  
 WanZhen Liang,  N. J. Mayhall,  C. W. McCurdy,  J. B. Neaton,  
 C. Ochsenfeld,  J. A. Parkhill,  R. Peverati,  V. A. Rassolov,  Yihan Shao,  
 L. V. Slipchenko,  T. Stauch,  R. P. Steele,  J. E. Subotnik,  
 A. J. W. Thom,  A. Tkatchenko,  D. G. Truhlar,  T. Van Voorhis,  
 T. A. Wesolowski,  K. B. Whaley,  H. L. Woodcock III,  P. M. Zimmerman,  
 S. Faraji,  P. M. W. Gill,  M. Head-Gordon,  J. M. Herbert,  A. I. Krylov

 Additional authors for Version 5.4.1: 
 S. Kotaru,  Shaozhi Li,  Xiangyuan Li,  F. Matz,  A. Molle,  Haisheng Ren,  
 Yingli Su,  Hung-Yi Tsai,  C. Utku,  Fang Wang

 Contributors to earlier versions of Q-Chem not listed above: 
 R. D. Adamson,  B. Austin,  R. Baer,  J. Baker,  G. J. O. Beran,  
 K. Brandhorst,  S. T. Brown,  E. F. C. Byrd,  A. K. Chakraborty,  
 G. K. L. Chan,  Chun-Min Chang,  Yunqing Chen,  C.-L. Cheng,  
 Siu Hung Chien,  D. M. Chipman,  D. L. Crittenden,  H. Dachsel,  
 R. J. Doerksen,  A. D. Dutoi,  R. G. Edgar,  J. Fosso-Tande,  
 L. Fusti-Molnar,  D. Ghosh,  A. Ghysels,  A. Golubeva-Zadorozhnaya,  
 J. Gonthier,  M. S. Gordon,  S. R. Gwaltney,  G. Hawkins,  J. E. Herr,  
 A. Heyden,  S. Hirata,  E. G. Hohenstein,  G. Kedziora,  F. J. Keil,  
 C. Kelley,  Jihan Kim,  R. A. King,  R. Z. Khaliullin,  P. P. Korambath,  
 W. Kurlancheek,  A. Laurent,  A. M. Lee,  M. S. Lee,  S. V. Levchenko,  
 Ching Yeh Lin,  D. Liotard,  E. Livshits,  R. C. Lochan,  I. Lotan,  
 L. A. Martinez-Martinez,  P. E. Maslen,  N. Nair,  D. P. O'Neill,  
 D. Neuhauser,  E. Neuscamman,  C. M. Oana,  R. Olivares-Amaya,  R. Olson,  
 T. M. Perrine,  B. Peters,  P. A. Pieniazek,  A. Prociuk,  Y. M. Rhee,  
 J. Ritchie,  M. A. Rohrdanz,  E. Rosta,  N. J. Russ,  H. F. Schaefer III,  
 M. W. Schmidt,  N. E. Schultz,  S. Sharma,  N. Shenvi,  C. D. Sherrill,  
 A. C. Simmonett,  A. Sodt,  T. Stein,  D. Stuck,  K. S. Thanthiriwatte,  
 V. Vanovschi,  L. Vogt,  Tao Wang,  A. Warshel,  M. A. Watson,  
 C. F. Williams,  Q. Wu,  X. Xu,  Jun Yang,  W. Zhang,  Yan Zhao

 Please cite Q-Chem as follows:
 Y. Shao et al., Mol. Phys. 113, 184-215 (2015)
 DOI: 10.1080/00268976.2014.952696

 Q-Chem 5.4.1 for Intel X86 EM64T Linux

 Parts of Q-Chem use Armadillo 9.900.5 (Nocturnal Misbehaviour).
 http://arma.sourceforge.net/

 Q-Chem begins on Wed Jun 22 08:05:29 2022  

 Host: p09r16n04.grace.hpc.yale.internal
0

     Scratch files written to /home/tl686/scratch60/qchem_dev/scratch/qchem69862//
 Processing $rem in /home/tl686/qchem_dev/qchem/config/preferences:
 Processing $rem in /home/tl686/.qchemrc:
Applying user defined connections for MM calculations
