                  Welcome to Q-Chem
     A Quantum Leap Into The Future Of Chemistry


 Q-Chem 5.4 (devel), Q-Chem, Inc., Pleasanton, CA (2021)

 E. Epifanovsky,  A. T. B. Gilbert,  Xintian Feng,  Joonho Lee,  Yuezhi Mao,  
 N. Mardirossian,  P. Pokhilko,  A. White,  M. Wormit,  M. P. Coons,  
 A. L. Dempwolff,  Zhengting Gan,  D. Hait,  P. R. Horn,  L. D. Jacobson,  
 I. Kaliman,  J. Kussmann,  A. W. Lange,  Ka Un Lao,  D. S. Levine,  Jie Liu,  
 S. C. McKenzie,  A. F. Morrison,  K. Nanda,  F. Plasser,  D. R. Rehn,  
 M. L. Vidal,  Zhi-Qiang You,  Ying Zhu,  B. Alam,  B. Albrecht,  
 A. Aldossary,  E. Alguire,  J. H. Andersen,  D. Barton,  K. Begam,  A. Behn,  
 Y. A. Bernard,  E. J. Berquist,  H. Burton,  A. Carreras,  K. Carter-Fenk,  
 R. Chakraborty,  A. D. Chien,  K. D. Closser,  V. Cofer-Shabica,  
 S. Dasgupta,  Jia Deng,  M. de Wergifosse,  M. Diedenhofen,  Hainam Do,  
 S. Ehlert,  Po-Tung Fang,  S. Fatehi,  Qingguo Feng,  T. Friedhoff,  
 J. Gayvert,  Qinghui Ge,  G. Gidofalvi,  M. Goldey,  J. Gomes,  
 C. Gonzalez-Espinoza,  S. Gulania,  A. Gunina,  M. W. D. Hanson-Heine,  
 P. H. P. Harbach,  A. W. Hauser,  M. F. Herbst,  M. Hernandez Vera,  
 M. Hodecker,  Z. C. Holden,  S. Houck,  Xunkun Huang,  Kerwin Hui,  
 B. C. Huynh,  M. Ivanov,  Hyunjun Ji,  Hanjie Jiang,  B. Kaduk,  S. Kaehler,  
 K. Khistyaev,  Jaehoon Kim,  P. Klunzinger,  Z. Koczor-Benda,  
 Joong Hoon Koh,  D. Kosenkov,  L. Koulias,  T. Kowalczyk,  C. M. Krauter,  
 K. Kue,  A. Kunitsa,  T. Kus,  A. Landau,  K. V. Lawler,  D. Lefrancois,  
 S. Lehtola,  Rain Li,  Yi-Pei Li,  Jiashu Liang,  M. Liebenthal,  
 Hung-Hsuan Lin,  You-Sheng Lin,  Fenglai Liu,  Kuan-Yu Liu,  
 M. Loipersberger,  A. Luenser,  A. Manjanath,  P. Manohar,  E. Mansoor,  
 S. F. Manzer,  Shan-Ping Mao,  A. V. Marenich,  T. Markovich,  S. Mason,  
 S. A. Maurer,  P. F. McLaughlin,  M. F. S. J. Menger,  J.-M. Mewes,  
 S. A. Mewes,  P. Morgante,  J. W. Mullinax,  K. J. Oosterbaan,  G. Paran,  
 Alexander C. Paul,  Suranjan K. Paul,  F. Pavosevic,  Zheng Pei,  S. Prager,  
 E. I. Proynov,  E. Ramos,  B. Rana,  A. E. Rask,  A. Rettig,  R. M. Richard,  
 F. Rob,  E. Rossomme,  T. Scheele,  M. Scheurer,  M. Schneider,  
 N. Sergueev,  S. M. Sharada,  W. Skomorowski,  D. W. Small,  C. J. Stein,  
 Yu-Chuan Su,  E. J. Sundstrom,  Zhen Tao,  J. Thirman,  T. Tsuchimochi,  
 N. M. Tubman,  S. P. Veccham,  O. Vydrov,  J. Wenzel,  J. Witte,  A. Yamada,  
 Kun Yao,  S. Yeganeh,  S. R. Yost,  A. Zech,  Igor Ying Zhang,  Xing Zhang,  
 Yu Zhang,  D. Zuev,  A. Aspuru-Guzik,  A. T. Bell,  N. A. Besley,  
 K. B. Bravaya,  B. R. Brooks,  D. Casanova,  Jeng-Da Chai,  S. Coriani,  
 C. J. Cramer,  A. E. DePrince, III,  R. A. DiStasio Jr.,  A. Dreuw,  
 B. D. Dunietz,  T. R. Furlani,  W. A. Goddard III,  S. Grimme,  
 S. Hammes-Schiffer,  T. Head-Gordon,  W. J. Hehre,  Chao-Ping Hsu,  
 T.-C. Jagau,  Yousung Jung,  A. Klamt,  Jing Kong,  D. S. Lambrecht,  
 WanZhen Liang,  N. J. Mayhall,  C. W. McCurdy,  J. B. Neaton,  
 C. Ochsenfeld,  J. A. Parkhill,  R. Peverati,  V. A. Rassolov,  Yihan Shao,  
 L. V. Slipchenko,  T. Stauch,  R. P. Steele,  J. E. Subotnik,  
 A. J. W. Thom,  A. Tkatchenko,  D. G. Truhlar,  T. Van Voorhis,  
 T. A. Wesolowski,  K. B. Whaley,  H. L. Woodcock III,  P. M. Zimmerman,  
 S. Faraji,  P. M. W. Gill,  M. Head-Gordon,  J. M. Herbert,  A. I. Krylov

 Additional authors for Version 5.4.1: 
 S. Kotaru,  Shaozhi Li,  Xiangyuan Li,  F. Matz,  A. Molle,  Haisheng Ren,  
 Yingli Su,  Hung-Yi Tsai,  C. Utku,  Fang Wang

 Contributors to earlier versions of Q-Chem not listed above: 
 R. D. Adamson,  B. Austin,  R. Baer,  J. Baker,  G. J. O. Beran,  
 K. Brandhorst,  S. T. Brown,  E. F. C. Byrd,  A. K. Chakraborty,  
 G. K. L. Chan,  Chun-Min Chang,  Yunqing Chen,  C.-L. Cheng,  
 Siu Hung Chien,  D. M. Chipman,  D. L. Crittenden,  H. Dachsel,  
 R. J. Doerksen,  A. D. Dutoi,  R. G. Edgar,  J. Fosso-Tande,  
 L. Fusti-Molnar,  D. Ghosh,  A. Ghysels,  A. Golubeva-Zadorozhnaya,  
 J. Gonthier,  M. S. Gordon,  S. R. Gwaltney,  G. Hawkins,  J. E. Herr,  
 A. Heyden,  S. Hirata,  E. G. Hohenstein,  G. Kedziora,  F. J. Keil,  
 C. Kelley,  Jihan Kim,  R. A. King,  R. Z. Khaliullin,  P. P. Korambath,  
 W. Kurlancheek,  A. Laurent,  A. M. Lee,  M. S. Lee,  S. V. Levchenko,  
 Ching Yeh Lin,  D. Liotard,  E. Livshits,  R. C. Lochan,  I. Lotan,  
 L. A. Martinez-Martinez,  P. E. Maslen,  N. Nair,  D. P. O'Neill,  
 D. Neuhauser,  E. Neuscamman,  C. M. Oana,  R. Olivares-Amaya,  R. Olson,  
 T. M. Perrine,  B. Peters,  P. A. Pieniazek,  A. Prociuk,  Y. M. Rhee,  
 J. Ritchie,  M. A. Rohrdanz,  E. Rosta,  N. J. Russ,  H. F. Schaefer III,  
 M. W. Schmidt,  N. E. Schultz,  S. Sharma,  N. Shenvi,  C. D. Sherrill,  
 A. C. Simmonett,  A. Sodt,  T. Stein,  D. Stuck,  K. S. Thanthiriwatte,  
 V. Vanovschi,  L. Vogt,  Tao Wang,  A. Warshel,  M. A. Watson,  
 C. F. Williams,  Q. Wu,  X. Xu,  Jun Yang,  W. Zhang,  Yan Zhao

 Please cite Q-Chem as follows:
 Y. Shao et al., Mol. Phys. 113, 184-215 (2015)
 DOI: 10.1080/00268976.2014.952696

 Q-Chem 5.4.1 for Intel X86 EM64T Linux

 Parts of Q-Chem use Armadillo 9.900.5 (Nocturnal Misbehaviour).
 http://arma.sourceforge.net/

 Q-Chem begins on Wed Jun  1 23:30:23 2022  

 Host: p09r14n13.grace.hpc.yale.internal
0

     Scratch files written to /home/tl686/scratch60/qchem_dev/scratch/qchem244552//
 Processing $rem in /home/tl686/qchem_dev/qchem/config/preferences:
 Processing $rem in /home/tl686/.qchemrc:
Applying user defined connections for MM calculations

 Checking the input file for inconsistencies... 	...done.

--------------------------------------------------------------
User input:
--------------------------------------------------------------
$molecule
0   1
 Fe 109.63736222 -5.80120317 38.56191522    -1  0   0   0   0
C 110.57291605 -8.07797810 40.90867614    -2  0   0   0   0 
C 107.04820608 -6.62297434 36.62240306    -2  0   0   0   0
C 111.72854914 -2.95323263 38.49410885    -2  0   0   0   0
C 111.62087192 -7.05445163 36.11866101    -2  0   0   0   0
C 107.36412167 -4.25155806 40.65794906    -2  0   0   0   0
O 111.07511581 -9.49423745 42.57805412    -3  0   0   0   0
O 105.33681717 -7.34467778 35.29405310    -3  0   0   0   0 
O 112.84579414 -1.07123277 38.47721756    -3  0   0   0   0
O 112.93177511 -7.93136821 34.57004866    -3  0   0   0   0 
O 105.75280908 -3.33628858 41.80634188    -3  0   0   0   0
H 137.33201592 -4.59790384 47.80016952      6     13    0    0    0 
C 137.34533417 -5.88509489 49.39618977     1     12    14    15    16
H 139.32522704 -6.15011817 50.15083863     6     13    0    0    0
H 136.12561053 -5.44758765 50.90839798     6     13    0    0    0
C 136.59217474 -8.50553504 48.41610585     2     13    17    18    19
H 138.30210927 -9.45852474 47.77035459     6     16    0    0    0
H 136.15668523 -9.66170790 50.01634628     6     16    0    0    0
C 134.27327611 -8.68850240 46.57064704     2     16    20   21   22
H 132.66638037 -7.81930768 47.46678736     6     19    0    0    0
H 134.80119723 -7.64792739 44.88671105     6     19    0    0    0
C 133.46193429 -11.34064771 45.85987873     2     19   23   24   25
H 134.99851188 -12.41732656 44.97305201     6    22    0    0    0
H 132.61060961 -12.35953991 47.41240910     6    22    0    0    0
C 131.40693474 -11.15144816 43.69852781     2    22   26   27   28
H 130.00823885 -9.74846335 44.20668597     6    25    0    0    0
H 132.51925899 -10.22654928 42.07472239     6    25    0    0    0
C 130.31439554 -13.75607187 42.98637112     2    25   29   30   31
H 131.87798558 -15.15042811 43.21854342     6    28    0    0    0
H 128.91100122 -14.43389295 44.32469545     6    28    0    0    0
C 129.44636304 -13.86299191 40.12362998     2    28   32   33   34
H 127.94701454 -12.40527023 40.12561288     6    31    0    0    0
H 130.92986397 -13.29449589 38.74564112     6    31    0    0    0
C 128.39727258 -16.52031392 39.32130013     2    31   35   36   37
H 130.14789225 -17.54112666 39.67422176     6    34    0    0    0
H 126.88303705 -17.15092149 40.43999778     6    34    0    0    0
C 127.74259144 -16.51504324 36.52104660     2    34   38   39   40
H 126.38966769 -15.06808467 36.24607343     6    37    0    0    0
H 129.52169730 -15.65236195 35.61049123     6    37    0    0    0
C 127.26719456 -19.20008284 35.43970309     2    37   41   42   43
H 128.92554226 -20.28286986 35.78735322     6    40    0    0    0
H 125.54973143 -20.01313577 36.23510167     6    40    0    0    0
C 126.90229406 -19.25566009 32.44981940     2    40   44   45   46
H 125.30266333 -18.19236371 31.81470948     6    43    0    0    0
H 128.57510276 -18.49884422 31.51034359     6    43    0    0    0
C 126.74993260 -21.97458620 31.59707158     1    43   47   48   49
H 128.35095351 -23.12789861 32.41241287     6    46    0    0    0
H 127.24016952 -22.02644884 29.60812777     6    46    0    0    0
H 124.89204795 -22.97499292 32.10654623     6    46    0    0    0
H 116.06370698 -16.67010461 37.63353038     6     51    0    0    0 
C 114.49877573 -15.77062193 36.59193850     1     50    52    53    54
H 113.10909141 -17.05709952 36.02118345     6     51    0    0    0
H 113.63913048 -14.24371628 37.85504625     6     51    0    0    0
C 115.41887831 -14.36245840 34.19802203     2     51    55    56    57
H 113.90665355 -13.04347386 33.77993311     6     54    0    0    0
H 117.17405825 -13.35272259 34.57691032     6     54    0    0    0
C 115.85759664 -15.93323781 31.78689828     2     54    58   59   60
H 114.19411261 -16.80197144 31.25948805     6     57    0    0    0
H 116.19481781 -14.77916081 30.21960760     6     57    0    0    0
C 117.85286324 -18.10844991 32.21610627     2     57   61   62   63
H 119.47252858 -17.37958166 33.36261526     6    60    0    0    0
H 117.01727111 -19.48400837 33.41439481     6    60    0    0    0
C 118.97474666 -19.18013216 29.79953337     2    60   64   65   66
H 117.57835835 -18.95181512 28.30734454     6    63    0    0    0
H 120.53232246 -17.86707921 29.41289269     6    63    0    0    0
C 120.07816679 -21.73851353 30.41896950     2    63   67   68   69
H 121.66308728 -22.01899306 29.20116141     6    66    0    0    0
H 120.92534272 -21.93053790 32.25033733     6    66    0    0    0
C 118.25411943 -24.15132646 29.80333653     2    66   70   71   72
H 116.43652332 -23.89161955 30.60354891     6    69    0    0    0
H 117.96962570 -24.24185814 27.67447294     6    69    0    0    0
C 119.18893160 -26.70660448 30.95849763     2    69   73   74   75
H 121.04386141 -27.37158664 30.26613688     6    72    0    0    0
H 119.22378893 -26.57285585 32.97592299     6    72    0    0    0
C 117.23291194 -28.75466516 30.28833132     2    72   76   77   78
H 115.28280238 -28.10230971 30.79762340     6    75    0    0    0
H 117.30569203 -29.14405243 28.24115561     6    75    0    0    0
C 117.64302162 -31.18088756 31.83905978     2    75   79   80   81
H 119.49573976 -31.83667071 31.72541078     6    78    0    0    0
H 117.19168978 -30.89713343 33.79031836     6    78    0    0    0
C 116.03456677 -33.33947384 30.82947347     2    78   82   83   84
H 113.94471697 -33.19114794 30.99627577     6    81    0    0    0
H 116.50473229 -33.78167868 28.98292284     6    81    0    0    0
C 116.71448250 -35.74019223 32.37882165     1    81   85   86   87
H 115.24477002 -37.15859634 31.91171802     6    84    0    0    0
H 116.86798721 -35.41626596 34.42290041     6    84    0    0    0
H 118.48324708 -36.56141581 31.87563092     6    84    0    0    0
H 143.01825093 1.32470366 27.96412906     6     89    0    0    0 
C 141.80181567 -0.36165281 28.03908548     1     88    90    91    92
H 140.93775118 -0.36076498 29.91168168     6     89    0    0    0
H 140.43585001 -0.61628864 26.52120233     6     89    0    0    0
C 143.46171817 -2.83615561 27.90122829     2     89    93    94    95
H 144.15138528 -3.22617446 25.98338222     6     92    0    0    0
H 145.17786801 -2.53578924 29.10485697     6     92    0    0    0
C 142.12420435 -5.18806685 28.84396219     2     92    96   97   98
H 141.78769015 -4.91388874 30.87281668     6     95    0    0    0
H 140.19281881 -5.28752567 27.95206127     6     95    0    0    0
C 143.74268866 -7.58169929 28.46759489     2     95   99   100   101
H 144.48485802 -7.55017096 26.57476950     6    98    0    0    0
H 145.31749755 -7.79628747 29.88635727     6    98    0    0    0
C 142.24497812 -10.06215656 28.70559790     2    98   102   103   104
H 141.14523004 -10.09079026 30.43868635     6    101    0    0    0
H 140.72424099 -9.74600668 27.33250592     6    101    0    0    0
C 143.51459445 -12.60328647 28.24774481     2    101   105   106   107
H 144.02692989 -12.54806145 26.28808427     6    104    0    0    0
H 145.32939005 -12.67635966 29.18819200     6    104    0    0    0
C 141.92263545 -14.89941374 28.70178860     2    104   108   109   110
H 141.21734520 -14.91479940 30.58842907     6    107    0    0    0
H 140.06935992 -14.51482482 27.81440579     6    107    0    0    0
C 143.26605244 -17.23999861 27.67048579     2    107   111   112   113
H 143.72624916 -17.28834279 25.66441416     6    110    0    0    0
H 144.94973461 -17.17759903 28.97162411     6    110    0    0    0
C 141.75938666 -19.58433303 28.47898351     2    110   114   115   116
H 141.17195568 -19.32368077 30.50263963     6    113    0    0    0
H 140.00107305 -19.52503501 27.47960595     6    113    0    0    0
C 143.22381552 -22.06860055 28.00110140     2    113   117   118   119
H 143.47319670 -22.02961033 25.89135782     6    116    0    0    0
H 144.99981035 -22.00898854 28.90660826     6    116    0    0    0
C 141.50659743 -24.23383043 28.86884435     2    116   120   121   122
H 142.61242185 -25.80418413 29.57323880     6    119    0    0    0
H 140.38830873 -23.40228761 30.30862037     6    119    0    0    0
C 139.52907518 -25.23484052 26.89132961     1    119   123   124   125
H 138.55653701 -26.77814171 27.67014974     6    122    0    0    0
H 140.52813838 -25.86464932 25.11146369     6    122    0    0    0
H 138.20965310 -23.71735412 26.26268869     6    122    0    0    0
H 131.96590026 19.22273147 17.79411394     6     127    0    0    0 
C 130.57985653 17.78626393 18.31322991     1     126    128    129    130
H 129.44533049 17.49049525 16.57318518     6     127    0    0    0
H 131.86782431 16.17055133 18.64603011     6     127    0    0    0
C 128.97693221 18.26605918 20.67444673     2     127    131    132    133
H 130.22971275 19.20413289 22.06508190     6     130    0    0    0
H 127.65181952 19.70449168 20.21229249     6     130    0    0    0
C 127.66295948 15.85232478 21.74909725     2     130    134   135   136
H 126.28615880 15.19748685 20.38714448     6     133    0    0    0
H 129.13028215 14.46823966 21.83111122     6     133    0    0    0
C 126.30389284 16.43325673 24.43713050     2     133   137   138   139
H 127.58969956 17.30567050 25.78287697     6    136    0    0    0
H 124.95554094 17.75720064 24.58086000     6    136    0    0    0
C 125.54268359 13.85573245 25.57761205     2    136   140   141   142
H 123.86715295 12.99418655 24.72273682     6    139    0    0    0
H 127.11928897 12.54072688 25.46965572     6    139    0    0    0
C 124.81027721 14.26254146 28.44015797     2    139   143   144   145
H 126.63656127 14.53649764 29.37681778     6    142    0    0    0
H 123.72994824 15.80452174 28.66094353     6    142    0    0    0
C 123.48478674 11.91417650 29.55585210     2    142   146   147   148
H 121.89600125 11.07744289 28.35901079     6    145    0    0    0
H 125.02262130 10.63749204 29.90239359     6    145    0    0    0
C 122.70573537 12.64544245 32.24545863     2    145   149   150   151
H 124.18491035 13.51567202 33.20682041     6    148    0    0    0
H 121.04543070 13.97374353 32.03677645     6    148    0    0    0
C 121.91362040 10.19543452 33.68460077     2    148   152   153   154
H 120.46672099 9.41884276 32.62291770     6    151    0    0    0
H 123.45428937 8.83528407 33.76181621     6    151    0    0    0
C 121.12490571 10.80594152 36.40205885     2    151   155   156   157
H 121.51297846 9.15319141 37.60557272     6    154    0    0    0
H 122.14201162 12.49378288 37.00096543     6    154    0    0    0
C 118.19617271 11.29800439 36.75584924     2    154   158   159   160
H 117.61469000 13.06066916 35.60339546     6    157    0    0    0
H 117.24192162 9.49939613 36.21678728     6    157    0    0    0
C 117.67462081 11.95772964 39.58888511     1    157   161   162   163
H 117.11244062 10.33934610 40.89538007     6    160    0    0    0
H 116.13369057 13.21434651 39.48502731     6    160    0    0    0
H 119.33404827 12.70819062 40.28360558     6    160    0    0    0
H 126.40620391 -11.40794454 -1.07540792     6     165    0    0    0 
C 127.93431453 -10.40034172 -0.19828371     1     164    166    167    168
H 129.05108857 -11.66424986 0.89046425     6     165    0    0    0
H 129.10429010 -9.97958342 -1.74419982     6     165    0    0    0
C 126.92101515 -8.19023772 1.43392769     2     165    169    170    171
H 125.47504466 -7.08867994 0.41920324     6     168    0    0    0
H 126.29084399 -8.87044289 3.23463641     6     168    0    0    0
C 128.92534369 -6.12043730 2.01410024     2     168    172   173   174
H 130.55204834 -7.08494711 2.86230983     6     171    0    0    0
H 129.45257404 -5.18397640 0.34895299     6     171    0    0    0
C 128.01768457 -4.31129679 4.11850782     2     171   175   176   177
H 126.26194504 -3.46269239 3.45746595     6    174    0    0    0
H 127.71015598 -5.24630799 5.98375982     6    174    0    0    0
C 129.97722957 -2.20101664 4.48983929     2    174   178   179   180
H 131.19583717 -2.89076732 5.99602681     6    177    0    0    0
H 131.13843132 -1.81225643 2.81956166     6    177    0    0    0
C 128.97138652 0.46462472 5.13575536     2    177   181   182   183
H 127.44702452 0.93375156 3.74844409     6    180    0    0    0
H 128.08820099 0.45533967 6.97155282     6    180    0    0    0
C 131.26465933 2.31704575 5.12715730     2    180   184   185   186
H 132.86383456 1.69128849 6.31865283     6    183    0    0    0
H 132.06579674 2.34084920 3.29868868     6    183    0    0    0
C 130.65019918 5.06632481 6.13481441     2    183   187   188   189
H 129.74392151 6.20587959 4.69764537     6    186    0    0    0
H 129.13305356 4.86000895 7.58092838     6    186    0    0    0
C 133.05052385 6.35816050 7.26357972     2    186   190   191   192
H 134.15623064 5.25824965 8.66675705     6    189    0    0    0
H 134.22021837 6.84579898 5.68305154     6    189    0    0    0
C 132.42966298 8.93376531 8.49635813     2    189   193   194   195
H 131.17503363 9.99325159 7.22740362     6    192    0    0    0
H 131.62496219 8.59499628 10.46146220     6    192    0    0    0
C 134.96290026 10.42515619 9.03782072     2    192   196   197   198
H 136.12655114 9.34588299 10.35971125     6    195    0    0    0
H 136.18640745 10.31335310 7.36814563     6    195    0    0    0
C 134.30684765 13.05597010 10.03467348     1    195   199   200   201
H 136.03587238 14.06857986 10.27034624     6    198    0    0    0
H 133.52037549 12.72992538 11.91540492     6    198    0    0    0
H 132.80034631 14.24381115 9.08057513     6    198    0    0    0
H 122.20215404 -9.15143121 12.44118157     6     203    0    0    0 
C 121.64148174 -7.82615426 10.93362366     1     202    204    205    206
H 119.55295436 -7.65007068 10.87836012     6     203    0    0    0
H 122.41590583 -6.08757933 11.77030160     6     203    0    0    0
C 122.80306707 -8.47983975 8.40005283     2     203    207    208    209
H 122.59942449 -6.97101383 7.18903897     6     206    0    0    0
H 124.84692291 -8.58849359 8.45181752     6     206    0    0    0
C 121.73851495 -10.86948433 7.32215436     2     206    210   211   212
H 122.44854371 -10.98830280 5.34173970     6     209    0    0    0
H 122.45537059 -12.55998442 8.19652206     6     209    0    0    0
C 118.84976169 -11.01919327 6.71356032     2     209   213   214   215
H 117.75854213 -10.70344128 8.45209886     6    212    0    0    0
H 118.57318648 -9.44388435 5.59304717     6    212    0    0    0
C 117.66335969 -13.27438253 5.50311703     2    212   216   217   218
H 118.67218942 -13.25606705 3.67307729     6    215    0    0    0
H 118.15409242 -15.17654452 6.40705023     6    215    0    0    0
C 114.81170201 -13.04959185 5.20695225     2    215   219   220   221
H 113.77370191 -12.44178674 6.84369708     6    218    0    0    0
H 114.33109390 -11.73060463 3.68736196     6    218    0    0    0
C 113.74090606 -15.64962191 4.89519933     2    218   222   223   224
H 114.14727724 -16.50196438 3.05750310     6    221    0    0    0
H 114.44361206 -16.75089569 6.43648988     6    221    0    0    0
C 110.80538081 -15.57118269 5.24104589     2    221   225   226   227
H 110.20716539 -15.44999420 7.17629434     6    224    0    0    0
H 109.99292219 -13.89745817 4.32046324     6    224    0    0    0
C 109.71787817 -17.93880068 3.98906564     2    224   228   229   230
H 109.92915455 -17.77792145 1.99372799     6    227    0    0    0
H 110.82643303 -19.54023711 4.54888451     6    227    0    0    0
C 106.89242619 -18.19035239 4.57198985     2    227   231   232   233
H 106.52550509 -17.85375243 6.47712518     6    230    0    0    0
H 105.92340933 -16.57813517 3.67406898     6    230    0    0    0
C 105.86385610 -20.65473065 3.74519413     2    230   234   235   236
H 105.73144814 -21.01528485 1.83005606     6    233    0    0    0
H 107.02904718 -22.17739658 4.37319929     6    233    0    0    0
C 103.14396313 -20.85319629 4.86757653     1    233   237   238   239
H 101.85148268 -22.40978403 4.10580381     6    236    0    0    0
H 102.04869461 -19.12883585 4.35770416     6    236    0    0    0
H 103.16180970 -20.92298347 6.97645718     6    236    0    0    0
H 129.54103638 -35.45063500 25.91252414     6     241    0    0    0 
C 130.84618125 -34.23171404 24.69931883     1     240    242    243    244
H 132.64019634 -35.09727949 24.15116313     6     241    0    0    0
H 129.72644569 -34.07317507 22.94603228     6     241    0    0    0
C 131.04208027 -31.69642964 26.02155679     2     241    245    246    247
H 132.02484037 -31.76203527 27.94860288     6     244    0    0    0
H 132.06801032 -30.52573549 24.83695294     6     244    0    0    0
C 128.50430212 -30.27733374 26.43989986     2     244    248   249   250
H 128.86490537 -28.27620324 26.99913195     6     247    0    0    0
H 127.59171208 -30.27401314 24.56545308     6     247    0    0    0
C 126.55028817 -31.58776496 28.34953347     2     247   251   252   253
H 124.61365237 -30.73529364 28.00788744     6    250    0    0    0
H 126.47666578 -33.57069494 27.98847894     6    250    0    0    0
C 127.37089503 -30.99243465 31.03448410     2    250   254   255   256
H 129.47216172 -31.43569144 31.38340077     6    253    0    0    0
H 127.29036464 -28.89466305 31.30747304     6    253    0    0    0
C 125.81298673 -32.47067796 33.09827732     2    253   257   258   259
H 126.09836525 -31.72956083 34.96040871     6    256    0    0    0
H 123.83363831 -31.98435101 32.74130615     6    256    0    0    0
C 126.14005668 -35.33750657 32.85909365     2    256   260   261   262
H 126.05388497 -35.93489388 30.80868688     6    259    0    0    0
H 128.05527888 -35.82777504 33.47372029     6    259    0    0    0
C 124.14667645 -36.86120018 34.40995989     2    259   263   264   265
H 124.49169195 -36.62998440 36.49840301     6    262    0    0    0
H 122.22298406 -36.14301759 34.36147102     6    262    0    0    0
C 123.98073537 -39.63573290 33.58286824     2    262   266   267   268
H 123.01782386 -40.72440559 35.07200164     6    265    0    0    0
H 122.73151700 -39.80799139 31.92240861     6    265    0    0    0
C 126.40868212 -40.97869111 32.92741016     2    265   269   270   271
H 127.35922374 -40.05651638 31.30775843     6    268    0    0    0
H 127.67297963 -41.30242614 34.54172939     6    268    0    0    0
C 125.71075479 -43.61830270 32.05335333     2    268   272   273   274
H 124.72607671 -44.56186257 33.62506816     6    271    0    0    0
H 124.42730043 -43.60148219 30.42168193     6    271    0    0    0
C 128.14870692 -45.11410237 31.20892665     1    271   275   276   277
H 128.95682157 -43.89968404 29.81543178     6    274    0    0    0
H 127.88118047 -46.97911544 30.50883068     6    274    0    0    0
H 129.62540973 -45.14347406 32.66371516     6    274    0    0    0
H 133.11686907 -9.05065372 19.29799234     6     279    0    0    0 
C 133.01050441 -8.77409511 17.23364512     1     278    280    281    282
H 133.28341417 -6.73506648 16.93630633     6     279    0    0    0
H 134.79132252 -9.61503706 16.46926008     6     279    0    0    0
C 130.58280255 -9.68044142 15.88750459     2     279    283    284    285
H 128.88938918 -9.00355811 16.73500003     6     282    0    0    0
H 130.68346087 -9.02386780 13.89652864     6     282    0    0    0
C 130.65497064 -12.62140001 15.67181007     2     282    286   287   288
H 132.00885377 -12.88547270 14.26720406     6     285    0    0    0
H 131.22629131 -13.57318242 17.38706706     6     285    0    0    0
C 128.15082560 -13.66241168 14.85893104     2     285   289   290   291
H 126.55139463 -13.02554420 15.98957616     6    288    0    0    0
H 127.74076314 -13.12299360 12.85522297     6    288    0    0    0
C 128.15726392 -16.60006065 14.97417796     2    288   292   293   294
H 129.86336264 -17.37218036 14.08862206     6    291    0    0    0
H 128.44180518 -17.15838950 17.03423659     6    291    0    0    0
C 125.89872435 -17.90318480 13.75161336     2    291   295   296   297
H 124.27105892 -17.00662054 14.58541282     6    294    0    0    0
H 125.90492510 -17.70741475 11.77074590     6    294    0    0    0
C 125.69378209 -20.70878957 14.35946383     2    294   298   299   300
H 127.36671511 -21.61529744 13.45305325     6    297    0    0    0
H 125.75743555 -21.02518221 16.31304153     6    297    0    0    0
C 123.24612906 -22.10155486 13.37700293     2    297   301   302   303
H 121.73290820 -21.46168845 14.75327127     6    300    0    0    0
H 122.68558124 -21.34514908 11.55590553     6    300    0    0    0
C 123.39660392 -24.96029864 13.35858074     2    300   304   305   306
H 124.60877866 -25.32716810 11.84373883     6    303    0    0    0
H 124.32735958 -25.70244319 15.10315013     6    303    0    0    0
C 120.80968799 -26.33906390 12.97760124     2    303   307   308   309
H 119.41382268 -25.62297333 14.42560866     6    306    0    0    0
H 120.07384500 -25.84949190 11.11385990     6    306    0    0    0
C 120.86205151 -29.26894783 13.22095075     2    306   310   311   312
H 122.02385819 -29.77386562 11.74405164     6    309    0    0    0
H 121.49910171 -29.74039472 15.01808965     6    309    0    0    0
C 118.33671935 -30.43260903 13.04786796     1    309   313   314   315
H 117.20279441 -29.70858015 11.51699923     6    312    0    0    0
H 117.15387829 -30.11780492 14.74682595     6    312    0    0    0
H 118.46376807 -32.55476708 12.86447730     6    312    0    0    0
H 132.89349035 -3.75610723 33.90969573     6     317    0    0    0 
C 133.53331317 -2.89469189 35.65473637     1     316    318    319    320
H 132.75570404 -4.22206169 37.13465948     6     317    0    0    0
H 135.59027108 -2.71218830 35.64213315     6     317    0    0    0
C 132.31474162 -0.28661362 35.87308716     2     317    321    322    323
H 132.77562634 0.62670315 37.79106676     6     320    0    0    0
H 133.34545672 0.71591503 34.42232927     6     320    0    0    0
C 129.45100297 -0.48730294 35.22450354     2     320    324   325   326
H 129.11453258 -0.42666170 33.28598824     6     323    0    0    0
H 128.73420443 -2.20083450 36.08210541     6     323    0    0    0
C 128.11622065 1.81460936 36.35968582     2     323   327   328   329
H 128.86355782 1.83508392 38.22387945     6    326    0    0    0
H 128.82137877 3.61956613 35.53784984     6    326    0    0    0
C 125.24327255 1.79728176 36.35724196     2    326   330   331   332
H 124.65860194 1.71454462 34.31570193     6    329    0    0    0
H 124.57881783 -0.04941552 36.72866812     6    329    0    0    0
C 123.75792576 3.60672753 38.20224590     2    329   333   334   335
H 124.37014555 5.56391686 38.25654618     6    332    0    0    0
H 121.77206373 3.50664872 37.47311158     6    332    0    0    0
C 123.78290117 2.38665686 40.84992599     2    332   336   337   338
H 123.04420451 0.43288719 41.05936103     6    335    0    0    0
H 125.73809784 2.25278979 41.37408916     6    335    0    0    0
C 122.54340135 4.04262580 42.73990691     2    335   339   340   341
H 123.00486400 3.54217603 44.63461757     6    338    0    0    0
H 123.32855711 5.91153672 42.46931481     6    338    0    0    0
C 119.61895082 4.35787483 42.45940538     2    338   342   343   344
H 119.28833467 5.22943913 40.69814824     6    341    0    0    0
H 119.15647176 2.43091678 42.30525892     6    341    0    0    0
C 118.40560686 5.96379559 44.59284393     2    341   345   346   347
H 119.00074370 5.28126353 46.43270159     6    344    0    0    0
H 119.01558297 7.94445611 44.42801725     6    344    0    0    0
C 115.53884553 5.71871180 44.50248645     2    344   348   349   350
H 115.20565376 6.04884955 42.60528968     6    347    0    0    0
H 114.95399101 3.84177545 44.72181820     6    347    0    0    0
C 114.24195228 7.62171701 46.23412446     1    347   351   352   353
H 112.56799967 8.41716496 45.61303116     6    350    0    0    0
H 115.35359008 9.27817495 46.51057331     6    350    0    0    0
H 113.98584343 6.95861122 48.18143818     6    350    0    0    0
H 128.55563299 -25.60109884 21.53952139     6     355    0    0    0 
C 128.93209860 -24.20288012 22.95983313     1     354    356    357    358
H 127.09927090 -24.21659527 24.02718488     6     355    0    0    0
H 130.32683124 -24.83909717 24.37390345     6     355    0    0    0
C 129.54929238 -21.66925040 21.66370493     2     355    359    360    361
H 131.31402868 -21.75005231 20.63410923     6     358    0    0    0
H 127.97063855 -21.16421707 20.54595185     6     358    0    0    0
C 129.66980754 -19.62476483 23.73046618     2     358    362   363   364
H 127.84350461 -19.36405294 24.65128380     6     361    0    0    0
H 131.01423048 -20.07832317 25.12940353     6     361    0    0    0
C 130.38403693 -16.99670941 22.76793842     2     361   365   366   367
H 132.23552867 -16.99410999 22.11538882     6    364    0    0    0
H 129.28573197 -16.42534232 21.11871419     6    364    0    0    0
C 130.12344452 -14.88269286 24.77086653     2    364   368   369   370
H 128.21423510 -14.18058027 24.71699482     6    367    0    0    0
H 130.64093250 -15.36858479 26.60935633     6    367    0    0    0
C 131.90314901 -12.72616982 23.71458236     2    367   371   372   373
H 133.69830589 -13.46115736 23.55973579     6    370    0    0    0
H 131.32774928 -12.00234156 21.93901848     6    370    0    0    0
C 131.86209883 -10.48906953 25.66928074     2    370   374   375   376
H 130.03618907 -10.35167277 26.28833478     6    373    0    0    0
H 132.97421555 -10.85670672 27.24054485     6    373    0    0    0
C 132.68075104 -7.89455890 24.71160399     2    373   377   378   379
H 134.49614924 -7.84957302 23.71999012     6    376    0    0    0
H 131.24785757 -7.17127366 23.51560030     6    376    0    0    0
C 132.77525106 -5.93122137 26.65167039     2    376   380   381   382
H 134.25213528 -6.07210713 27.98458088     6    379    0    0    0
H 133.23570279 -4.06184747 25.78652052     6    379    0    0    0
C 130.17010482 -5.78698609 28.16019123     2    379   383   384   385
H 128.61509451 -6.42446118 26.96253785     6    382    0    0    0
H 130.26804889 -7.07927666 29.70290751     6    382    0    0    0
C 129.56834394 -3.13633381 28.95356763     2    382   386   387   388
H 127.87854531 -3.11308734 30.20238605     6    385    0    0    0
H 131.08576312 -2.26545113 29.91027085     6    385    0    0    0
C 128.78193596 -1.22761348 26.90875518     1    385   389   390   391
H 127.33631574 -1.93890528 25.69803634     6    388    0    0    0
H 130.31612717 -0.99029854 25.66954016     6    388    0    0    0
H 128.37055656 0.70447459 27.48632998     6    388    0    0    0
H 103.39498910 4.68918290 61.60709029     6     393    0    0    0 
C 102.23934015 3.24085731 60.64744985     1     392    394    395    396
H 100.88097528 2.50754826 61.97458110     6     393    0    0    0
H 100.90923761 4.05074821 59.31317726     6     393    0    0    0
C 103.90744186 1.23064595 59.41853010     2     393    397    398    399
H 104.33529474 1.69266463 57.45789562     6     396    0    0    0
H 105.63711632 1.19801123 60.23591308     6     396    0    0    0
C 102.52963363 -1.23007436 59.53460849     2     396    400   401   402
H 102.67447888 -2.07856336 61.38194162     6     399    0    0    0
H 100.46269117 -0.83217073 59.03833420     6     399    0    0    0
C 103.35649602 -2.89774466 57.18272079     2     399   403   404   405
H 102.52553749 -1.95900534 55.53596383     6    402    0    0    0
H 105.40986885 -3.04239188 57.30335862     6    402    0    0    0
C 102.37638944 -5.62568136 57.20317443     2    402   406   407   408
H 103.12357749 -6.36458187 58.95329613     6    405    0    0    0
H 100.24584317 -5.54413991 57.67002698     6    405    0    0    0
C 102.97172802 -7.32873866 55.06414759     2    405   409   410   411
H 101.95696327 -6.58819428 53.40067631     6    408    0    0    0
H 104.88924482 -7.01330129 54.66676683     6    408    0    0    0
C 102.70690252 -10.12892248 55.58086890     2    408   412   413   414
H 103.76243762 -10.75637876 57.26748571     6    411    0    0    0
H 100.67174060 -10.28680093 55.98037594     6    411    0    0    0
C 103.76486150 -11.73078461 53.29833859     2    411   415   416   417
H 102.96506840 -10.92440978 51.56195278     6    414    0    0    0
H 105.89268962 -11.66396759 53.20717181     6    414    0    0    0
C 102.92401389 -14.44329032 53.71402184     2    414   418   419   420
H 104.12051290 -15.22677212 55.11510418     6    417    0    0    0
H 101.05839897 -14.59726643 54.44659999     6    417    0    0    0
C 103.07468005 -16.04495431 51.40109283     2    417   421   422   423
H 101.59214195 -15.61481442 49.98071716     6    420    0    0    0
H 104.74284578 -15.56942637 50.41816412     6    420    0    0    0
C 103.00273221 -18.83374305 52.19000735     2    420   424   425   426
H 104.78992357 -19.43710052 52.99176357     6    423    0    0    0
H 101.49485197 -19.24137165 53.54905176     6    423    0    0    0
C 102.78943725 -20.79329900 49.89018029     1    423   427   428   429
H 102.92727920 -22.70622553 50.58032953     6    426    0    0    0
H 104.07386542 -20.44661022 48.40311395     6    426    0    0    0
H 100.95569377 -20.58380463 49.06737272     6    426    0    0    0
H 119.15618326 -17.58230604 52.62551559     6     431    0    0    0 
C 120.52592489 -17.85505988 54.11004220     1     430    432    433    434
H 119.79249990 -19.24648728 55.42592878     6     431    0    0    0
H 122.19454010 -18.47449982 53.11274166     6     431    0    0    0
C 120.79385829 -15.18281227 55.01217979     2     431    435    436    437
H 121.68778168 -14.28469860 53.46855260     6     434    0    0    0
H 119.06255782 -14.20769953 54.88920896     6     434    0    0    0
C 122.11728569 -14.86797262 57.52362751     2     434    438   439   440
H 122.13120976 -16.57853578 58.47908166     6     437    0    0    0
H 124.01176221 -14.70652497 57.17791365     6     437    0    0    0
C 121.24115308 -12.65527798 58.91198527     2     437   441   442   443
H 122.69588814 -12.51266511 60.31684284     6    440    0    0    0
H 121.33691529 -10.88949418 57.75654173     6    440    0    0    0
C 118.52739154 -12.92665815 59.91925002     2    440   444   445   446
H 117.36459348 -12.55840527 58.27747505     6    443    0    0    0
H 118.29043384 -14.86546993 60.56511731     6    443    0    0    0
C 117.59538715 -11.26362246 62.11620124     2    443   447   448   449
H 118.84326185 -11.63222030 63.71467908     6    446    0    0    0
H 117.98808471 -9.36569672 61.42673418     6    446    0    0    0
C 114.83785282 -11.66016272 62.82783038     2    446   450   451   452
H 113.68063641 -11.38076731 61.18013413     6    449    0    0    0
H 114.92409051 -13.51165516 63.52001613     6    449    0    0    0
C 113.68674299 -9.73826307 64.86254893     2    449   453   454   455
H 115.17670486 -9.72857451 66.26352160     6    452    0    0    0
H 113.57470792 -7.97695659 63.96637181     6    452    0    0    0
C 111.14106302 -10.49648884 65.92713010     2    452   456   457   458
H 109.63831195 -9.99058370 64.53163491     6    455    0    0    0
H 110.96667674 -12.55964807 65.81519159     6    455    0    0    0
C 110.44635808 -9.61380689 68.71982997     2    455   459   460   461
H 108.79866205 -10.88765932 69.26009651     6    458    0    0    0
H 111.93550834 -10.13363903 70.10333187     6    458    0    0    0
C 109.96932804 -6.80216599 68.84558908     2    458   462   463   464
H 111.74561647 -5.92009005 68.24380794     6    461    0    0    0
H 108.57458175 -6.17965351 67.50868757     6    461    0    0    0
C 109.23375267 -5.66823515 71.36250835     1    461   465   466   467
H 110.43064597 -6.57440380 72.92589493     6    464    0    0    0
H 107.36961748 -6.20038729 72.04419383     6    464    0    0    0
H 109.44449042 -3.66737762 71.46386415     6    464    0    0    0
H 139.11164949 -5.39827365 20.09802041     6     469    0    0    0 
C 141.04019507 -5.83233842 20.46064838     1     468    470    471    472
H 142.17540613 -5.62230543 18.71438965     6     469    0    0    0
H 141.72744474 -4.36087935 21.75572206     6     469    0    0    0
C 141.13012109 -8.46470762 21.57077659     2     469    473    474    475
H 143.07364963 -9.08719774 22.25154918     6     472    0    0    0
H 139.87943986 -8.55423774 23.20899625     6     472    0    0    0
C 140.22201177 -10.62957484 19.82877637     2     472    476   477   478
H 138.35362691 -10.37212995 18.97715507     6     475    0    0    0
H 141.70029886 -10.71938864 18.44270250     6     475    0    0    0
C 139.83801547 -13.23079175 21.30702835     2     475   479   480   481
H 141.44332624 -13.89023313 22.44897080     6    478    0    0    0
H 138.13045928 -13.02709970 22.52810194     6    478    0    0    0
C 139.16393530 -15.56552604 19.60245558     2    478   482   483   484
H 137.26600571 -15.28120715 18.86573856     6    481    0    0    0
H 140.30181098 -15.55275857 17.84713893     6    481    0    0    0
C 139.05970728 -18.35183175 20.67755303     2    481   485   486   487
H 140.98692947 -18.69886795 21.43023623     6    484    0    0    0
H 137.73744509 -18.48146836 22.17097875     6    484    0    0    0
C 138.77430088 -20.12003687 18.37594338     2    484   488   489   490
H 137.34847531 -19.43197516 17.15140464     6    487    0    0    0
H 140.34616555 -19.96946210 16.93682400     6    487    0    0    0
C 138.64456451 -22.90351330 19.17100638     2    487   491   492   493
H 140.58429165 -23.45178497 19.87526214     6    490    0    0    0
H 137.30406809 -23.10950618 20.68689561     6    490    0    0    0
C 138.21812001 -24.51279341 16.79886850     2    490   494   495   496
H 137.14175561 -23.47221005 15.26160850     6    493    0    0    0
H 140.05560571 -25.14330123 16.08064044     6    493    0    0    0
C 136.52929081 -26.83267356 17.37068219     2    493   497   498   499
H 137.24652932 -27.69639596 19.15753646     6    496    0    0    0
H 134.72164750 -26.30942252 17.83596051     6    496    0    0    0
C 136.44509779 -28.67135863 15.18984488     2    496   500   501   502
H 135.60947809 -27.93455869 13.51778705     6    499    0    0    0
H 138.35726697 -28.81262524 14.55147142     6    499    0    0    0
C 135.48125866 -31.23602032 15.98338701     1    499   503   504   505
H 135.78133781 -32.67156556 14.54504403     6    502    0    0    0
H 133.42151944 -31.34279849 15.98860172     6    502    0    0    0
H 136.42550144 -31.82521117 17.67504428     6    502    0    0    0
H 126.59375785 -34.78674848 39.96116906     6     507    0    0    0 
C 125.25682840 -34.72183971 41.50366655     1     506    508    509    510
H 123.38493263 -34.58036142 40.71849876     6     507    0    0    0
H 125.20867627 -36.40452111 42.73122563     6     507    0    0    0
C 125.58624072 -32.17155737 42.97680854     2     507    511    512    513
H 127.49962671 -32.03600938 44.02005382     6     510    0    0    0
H 125.49908191 -30.49064475 41.84931422     6     510    0    0    0
C 123.49779426 -32.00087859 44.95123550     2     510    514   515   516
H 121.57138589 -31.83993461 44.12041532     6     513    0    0    0
H 123.45590615 -33.99864789 45.85061647     6     513    0    0    0
C 123.86755991 -29.62667743 46.65837548     2     513   517   518   519
H 124.89410402 -30.09882218 48.33916155     6    516    0    0    0
H 124.88185008 -28.22446360 45.61589951     6    516    0    0    0
C 121.12292492 -28.68221576 47.35588926     2    516   520   521   522
H 120.05786772 -28.31603787 45.63273091     6    519    0    0    0
H 120.18419923 -30.22170478 48.52624802     6    519    0    0    0
C 120.84587623 -26.20035564 48.79615891     2    519   523   524   525
H 121.74341930 -26.46537179 50.62700439     6    522    0    0    0
H 121.73949874 -24.73358191 47.82767521     6    522    0    0    0
C 117.96298499 -25.50051550 49.11209921     2    522   526   527   528
H 117.13206957 -25.35196341 47.24072970     6    525    0    0    0
H 117.06603131 -27.01742577 50.16865369     6    525    0    0    0
C 117.32113181 -22.92530928 50.42565823     2    525   529   530   531
H 118.25748681 -22.71645004 52.22428526     6    528    0    0    0
H 117.70104369 -21.34709895 49.25991565     6    528    0    0    0
C 114.42961573 -22.77194908 50.91375918     2    528   532   533   534
H 113.53920978 -22.60687085 49.20083392     6    531    0    0    0
H 113.56770874 -24.43245788 51.78022990     6    531    0    0    0
C 113.82606270 -20.56768917 52.70857501     2    531   535   536   537
H 115.07643027 -20.61659640 54.33372838     6    534    0    0    0
H 114.43449193 -19.08933061 51.45721269     6    534    0    0    0
C 111.14511697 -20.31919426 53.43461120     2    534   538   539   540
H 109.83069676 -21.04089257 52.01087568     6    537    0    0    0
H 111.01220684 -21.75300400 54.85677843     6    537    0    0    0
C 110.32063434 -17.58645621 54.19198542     1    537   541   542   543
H 108.36358130 -17.58981383 54.96906610     6    540    0    0    0
H 110.28736911 -16.36000942 52.53777791     6    540    0    0    0
H 111.65887490 -16.87917186 55.66628984     6    540    0    0    0
H 111.53369469 -5.44516506 46.37376674     6     545    0    0    0 
C 111.73394019 -3.53786401 47.26126438     1     544    546    547    548
H 110.69149788 -3.85363546 48.99203880     6     545    0    0    0
H 113.72908979 -3.11297287 47.51539501     6     545    0    0    0
C 110.49781895 -1.20667803 45.90936735     2     545    549    550    551
H 111.23792914 -0.76825760 44.08207926     6     548    0    0    0
H 108.46283156 -1.63638823 45.32588516     6     548    0    0    0
C 110.44660188 1.27590303 47.25008803     2     548    552   553   554
H 109.46590548 1.03251137 48.97835521     6     551    0    0    0
H 112.36363809 1.79480245 47.70977809     6     551    0    0    0
C 109.33130079 3.50282109 45.84515596     2     551   555   556   557
H 109.81785884 5.06918746 47.02992864     6    554    0    0    0
H 110.34567801 3.93410740 44.08432925     6    554    0    0    0
C 106.48850833 3.26025617 45.32827494     2    554   558   559   560
H 106.07369766 1.43463540 44.62165897     6    557    0    0    0
H 105.50489181 3.56176061 47.07413654     6    557    0    0    0
C 105.61080205 5.17520031 43.37752400     2    557   561   562   563
H 106.33340531 7.00840398 44.04838358     6    560    0    0    0
H 106.41458371 5.00303192 41.47811124     6    560    0    0    0
C 102.77995303 5.42316701 42.83042985     2    560   564   565   566
H 101.88161504 3.56591917 42.69838743     6    563    0    0    0
H 101.89257423 6.46459743 44.24630474     6    563    0    0    0
C 102.29373373 7.07752764 40.53737626     2    563   567   568   569
H 103.40208591 8.81321668 40.50547325     6    566    0    0    0
H 103.17552922 6.23522924 38.74005015     6    566    0    0    0
C 99.54356758 7.76603340 39.94388026     2    566   570   571   572
H 98.37091060 6.11872195 40.05865164     6    569    0    0    0
H 98.75640965 8.94715189 41.54457763     6    569    0    0    0
C 99.21677646 9.17943683 37.42725565     2    569   573   574   575
H 100.15696364 10.99103079 37.48205848     6    572    0    0    0
H 100.05745726 8.09345702 35.76807927     6    572    0    0    0
C 96.43787132 9.67773529 36.71245412     2    572   576   577   578
H 95.54282352 10.70762123 38.26656991     6    575    0    0    0
H 96.46180656 10.94114208 35.12633222     6    575    0    0    0
C 94.69215733 7.45171805 36.21552112     1    575   579   580   581
H 95.16280862 6.82814124 34.28650160     6    578    0    0    0
H 92.73672859 7.98961433 36.41253342     6    578    0    0    0
H 95.01434087 5.87164144 37.53839167     6    578    0    0    0
H 130.76689952 -4.61031979 12.22594450     6     583    0    0    0 
C 129.63994541 -2.97706862 11.34099506     1     582    584    585    586
H 130.99580243 -2.05205071 10.11100615     6     583    0    0    0
H 128.10576635 -3.84586266 10.31768854     6     583    0    0    0
C 128.59319150 -1.02247340 13.31458157     2     583    587    588    589
H 127.21434162 -1.85360315 14.66828015     6     586    0    0    0
H 130.33953384 -0.43910403 14.32942946     6     586    0    0    0
C 127.11007100 1.11325346 12.19545160     2     586    590   591   592
H 128.43829218 2.43388510 11.20112293     6     589    0    0    0
H 125.68292851 0.49396170 10.61810244     6     589    0    0    0
C 125.70334336 2.71673130 14.05999778     2     589   593   594   595
H 124.22603414 1.63035280 14.71678487     6    592    0    0    0
H 127.12995876 3.18213780 15.50108049     6    592    0    0    0
C 124.66616036 5.14891011 12.83452081     2    592   596   597   598
H 126.18953777 6.35011716 12.21055387     6    595    0    0    0
H 123.56954673 4.47695291 11.18040801     6    595    0    0    0
C 123.21640512 6.65836067 14.79528138     2    595   599   600   601
H 121.48479892 5.75949669 15.31035758     6    598    0    0    0
H 124.41476292 6.66590546 16.54745724     6    598    0    0    0
C 122.55711234 9.32679565 14.08897498     2    598   602   603   604
H 124.12328768 10.32738786 13.39323980     6    601    0    0    0
H 121.07456918 9.30750709 12.75646147     6    601    0    0    0
C 121.41566953 11.09356629 16.13754652     2    601   605   606   607
H 120.01845253 10.30586991 17.21509106     6    604    0    0    0
H 122.95908690 11.89577700 17.29249813     6    604    0    0    0
C 120.21582282 13.29682925 14.84627528     2    604   608   609   610
H 121.48170014 14.36212667 13.71617072     6    607    0    0    0
H 118.74923124 12.53220179 13.67969810     6    607    0    0    0
C 119.05119743 15.16565489 16.79637470     2    607   611   612   613
H 117.64330268 14.22024192 17.99070136     6    610    0    0    0
H 120.51277602 15.93969023 18.03437831     6    610    0    0    0
C 117.61244211 17.56671997 15.53122547     2    610   614   615   616
H 119.03991369 18.78313631 14.78198869     6    613    0    0    0
H 116.48790883 16.99482069 13.88603267     6    613    0    0    0
C 115.91263475 18.99485092 17.48302723     1    613   617   618   619
H 117.14206921 19.88301433 18.80943487     6    616    0    0    0
H 114.59308119 17.77831929 18.44565242     6    616    0    0    0
H 114.59741642 20.38484143 16.74664400     6    616    0    0    0
H 96.35164824 -19.14084046 29.71561282     6     621    0    0    0 
C 96.43201427 -17.12583845 29.13972712     1     620    622    623    624
H 94.49535998 -16.47866573 29.47083147     6     621    0    0    0
H 97.78064911 -15.94883528 30.16630284     6     621    0    0    0
C 97.18742172 -17.15082281 26.39240717     2     621    625    626    627
H 97.67115135 -15.19787369 25.96747317     6     624    0    0    0
H 98.88239280 -18.26797983 26.30442404     6     624    0    0    0
C 95.29122271 -18.27454751 24.67194994     2     624    628   629   630
H 94.64969308 -20.11691143 25.45617500     6     627    0    0    0
H 93.54648307 -17.25200361 24.39196237     6     627    0    0    0
C 96.39774254 -18.52201814 22.00247888     2     627   631   632   633
H 97.32085853 -16.79552973 21.37611798     6    630    0    0    0
H 98.01252452 -19.77599266 22.12781395     6    630    0    0    0
C 94.33848060 -19.28204631 20.09056370     2    630   634   635   636
H 93.93119122 -21.25298717 20.46806503     6    633    0    0    0
H 92.71543948 -18.10432863 20.52256106     6    633    0    0    0
C 95.29497675 -19.04674202 17.44610810     2    633   637   638   639
H 96.16992641 -17.21773613 17.03036914     6    636    0    0    0
H 96.63292243 -20.66255126 17.13271151     6    636    0    0    0
C 93.34881837 -19.50269270 15.55927388     2    636   640   641   642
H 91.96427452 -20.87013164 16.20534484     6    639    0    0    0
H 92.13218138 -17.86121971 15.47158090     6    639    0    0    0
C 94.41511856 -19.99019903 12.97555083     2    639   643   644   645
H 95.29006679 -18.33153718 12.12154755     6    642    0    0    0
H 95.95642005 -21.46232093 13.22170662     6    642    0    0    0
C 92.76353941 -21.13012662 10.95188055     2    642   646   647   648
H 91.56875921 -22.58248369 11.71139525     6    645    0    0    0
H 91.35747092 -19.66646799 10.54385579     6    645    0    0    0
C 94.23278922 -22.14032276 8.65755386     2    645   649   650   651
H 95.38076608 -20.56467724 8.01408995     6    648    0    0    0
H 95.67408975 -23.54821900 9.13304338     6    648    0    0    0
C 92.39968195 -23.23434288 6.77189919     2    648   652   653   654
H 91.31302346 -24.78737547 7.69663632     6    651    0    0    0
H 91.13786037 -21.63295243 6.52343355     6    651    0    0    0
C 93.75699475 -23.96121326 4.32292842     1    651   655   656   657
H 94.87206650 -22.18801098 3.85740851     6    654    0    0    0
H 92.51581819 -24.57040233 2.82642757     6    654    0    0    0
H 95.05888403 -25.46990863 4.49372610     6    654    0    0    0
H 122.01002250 -6.36230022 16.57916177     6     659    0    0    0 
C 121.13640638 -4.82852160 17.51455163     1     658    660    661    662
H 119.58183417 -5.67354550 18.60559892     6     659    0    0    0
H 122.46473423 -3.89307067 18.87407489     6     659    0    0    0
C 119.59286013 -2.92403131 15.84241033     2     659    663    664    665
H 121.04340551 -1.92750915 14.75555357     6     662    0    0    0
H 118.55443182 -4.02311147 14.46985777     6     662    0    0    0
C 117.76601605 -1.22761172 17.33856586     2     662    666   667   668
H 116.46226267 -0.26981406 16.19002388     6     665    0    0    0
H 116.61077884 -2.32963284 18.58170338     6     665    0    0    0
C 119.03730178 0.74420237 18.86085812     2     665   669   670   671
H 119.82397436 -0.25416213 20.44439288     6    668    0    0    0
H 120.68500174 1.27215588 17.71106687     6    668    0    0    0
C 117.14967706 2.93903727 19.81809831     2    668   672   673   674
H 115.75048892 3.42525573 18.33905063     6    671    0    0    0
H 116.15348919 2.23550373 21.40185964     6    671    0    0    0
C 118.66520198 5.50950028 20.61437360     2    671   675   676   677
H 119.65080169 5.27628622 22.45941080     6    674    0    0    0
H 119.94418549 5.91266540 19.14112369     6    674    0    0    0
C 116.85305864 7.85871061 21.12477506     2    674   678   679   680
H 117.69304157 9.45829724 21.94644745     6    677    0    0    0
H 116.06922740 8.62777579 19.23647195     6    677    0    0    0
C 114.78314594 7.14201512 22.90849413     2    677   681   682   683
H 113.54423303 5.79089885 21.91115126     6    680    0    0    0
H 115.64250383 6.00391198 24.47708707     6    680    0    0    0
C 113.33787799 9.48583113 23.88541677     2    680   684   685   686
H 112.43626664 10.52891610 22.37021973     6    683    0    0    0
H 111.77380185 9.04468794 25.18641022     6    683    0    0    0
C 114.92404141 11.28671757 25.53746273     2    683   687   688   689
H 115.34707548 10.08975991 27.13065777     6    686    0    0    0
H 116.61933577 11.89481481 24.76487868     6    686    0    0    0
C 113.47391441 13.48159153 26.56967878     2    686   690   691   692
H 113.26884085 14.97212312 25.14728793     6    689    0    0    0
H 111.53634316 12.78028470 27.16251761     6    689    0    0    0
C 114.62658718 14.52065081 29.10469727     1    689   693   694   695
H 113.58661763 16.07879380 29.91865845     6    692    0    0    0
H 116.59355045 15.14614819 28.82922407     6    692    0    0    0
H 114.82802253 12.93041919 30.33480750     6    692    0    0    0
H 95.91632491 14.17908015 46.94804940     6     697    0    0    0 
C 96.74552763 14.31939281 48.88720994     1     696    698    699    700
H 97.30998842 16.21768886 49.17546241     6     697    0    0    0
H 95.13324621 14.01045012 50.19134937     6     697    0    0    0
C 98.87109707 12.43014407 49.09418523     2     697    701    702    703
H 98.35160516 10.40874319 48.82901022     6     700    0    0    0
H 100.49450593 12.90256701 47.75217038     6     700    0    0    0
C 100.06331113 12.51815679 51.76308026     2     700    704   705   706
H 100.97614299 14.37469304 52.05046659     6     703    0    0    0
H 98.68767357 12.21381434 53.11349670     6     703    0    0    0
C 102.20511657 10.61431184 51.85200448     2     703   707   708   709
H 101.47930191 8.68263628 51.81113633     6    706    0    0    0
H 103.16451434 10.92422685 50.17777088     6    706    0    0    0
C 103.99198598 11.11009996 54.22493971     2    706   710   711   712
H 104.50926791 13.00219253 53.99304463     6    709    0    0    0
H 102.86823262 10.90539865 55.95334823     6    709    0    0    0
C 106.32485114 9.42632032 54.05857059     2    709   713   714   715
H 105.77998961 7.44815259 54.07642206     6    712    0    0    0
H 107.37590364 9.78107860 52.30047774     6    712    0    0    0
C 108.12993501 9.58819783 56.30888670     2    712   716   717   718
H 109.27128266 11.28072240 56.20532390     6    715    0    0    0
H 107.20450105 9.70718728 58.21836649     6    715    0    0    0
C 109.82507416 7.36510766 56.44133843     2    715   719   720   721
H 108.99334756 5.49706546 56.53566464     6    718    0    0    0
H 110.91293778 7.41139035 54.67172304     6    718    0    0    0
C 111.85513597 7.31302311 58.60344967     2    718   722   723   724
H 112.99855661 8.98677655 58.38348654     6    721    0    0    0
H 110.88453209 7.55407754 60.50766291     6    721    0    0    0
C 113.61105983 5.11236778 58.83313447     2    721   725   726   727
H 112.52465203 3.44149675 58.75272175     6    724    0    0    0
H 114.87530167 5.01272787 57.24616599     6    724    0    0    0
C 115.06009588 4.94143325 61.35915881     2    724   728   729   730
H 113.63284233 4.79032394 62.77505306     6    727    0    0    0
H 116.01186439 3.13954859 61.60406613     6    727    0    0    0
C 117.12152618 6.88639661 61.59507740     1    727   731   732   733
H 117.55823638 6.75033392 63.56461421     6    730    0    0    0
H 116.64090601 8.87262634 61.47983881     6    730    0    0    0
H 118.79482835 6.73095961 60.28504836     6    730    0    0    0
H 145.35918879 -6.92502488 37.97601492     6     735    0    0    0 
C 143.89256577 -5.47698617 37.85430088     1     734    736    737    738
H 144.81756484 -3.74340128 38.30022563     6     735    0    0    0
H 143.14898990 -5.20752762 35.93137790     6     735    0    0    0
C 141.74616402 -6.13912139 39.52094410     2     735    739    740    741
H 142.31090378 -6.34988152 41.50252387     6     738    0    0    0
H 140.26604480 -4.70103913 39.55620180     6     738    0    0    0
C 140.40040099 -8.66773467 38.67497673     2     738    742   743   744
H 139.45893213 -8.28427555 37.00648848     6     741    0    0    0
H 141.78482135 -10.14583522 38.01555505     6     741    0    0    0
C 138.20443779 -9.69497651 40.30240264     2     741   745   746   747
H 138.83726836 -9.50682067 42.24999578     6    744    0    0    0
H 136.66691382 -8.37889545 40.14766153     6    744    0    0    0
C 137.69790617 -12.42690413 39.56119075     2    744   748   749   750
H 139.40982718 -13.67691690 39.68128978     6    747    0    0    0
H 136.42909369 -13.27109057 40.87612824     6    747    0    0    0
C 136.45267388 -12.74354048 37.01570963     2    747   751   752   753
H 134.42718724 -12.32166709 37.29948295     6    750    0    0    0
H 136.96610529 -11.20021004 35.75402146     6    750    0    0    0
C 136.92189550 -15.29002146 35.63499965     2    750   754   755   756
H 136.06511049 -15.12420156 33.73882302     6    753    0    0    0
H 138.97641071 -15.53042369 35.33804680     6    753    0    0    0
C 135.72647198 -17.52175795 37.13567574     2    753   757   758   759
H 136.63741255 -17.46674693 39.07644594     6    756    0    0    0
H 133.64605614 -17.19688850 37.42593261     6    756    0    0    0
C 136.12898023 -20.14692780 35.95410817     2    756   760   761   762
H 138.09969501 -20.60000373 35.86800990     6    759    0    0    0
H 135.57143967 -21.50143956 37.27218965     6    759    0    0    0
C 134.70898484 -20.64673378 33.39029958     2    759   763   764   765
H 132.96576110 -19.59457165 33.25544248     6    762    0    0    0
H 135.78243556 -19.43734529 32.12673662     6    762    0    0    0
C 134.43758328 -23.57129705 32.68653165     2    762   766   767   768
H 136.20158981 -24.70612454 32.78944142     6    765    0    0    0
H 133.09901874 -24.47856782 34.11922716     6    765    0    0    0
C 133.23375780 -24.09520632 29.96414649     1    765   769   770   771
H 134.07735820 -22.79587660 28.54364003     6    768    0    0    0
H 131.23102829 -23.60645504 30.08200640     6    768    0    0    0
H 133.58301470 -25.90373683 29.31054617     6    768    0    0    0
H 93.75184418 -22.94933956 28.76354138     6     773    0    0    0 
C 92.95215252 -24.85317996 29.12481291     1     772    774    775    776
H 90.97119729 -25.00503290 29.20943978     6     773    0    0    0
H 93.25326737 -25.83123738 27.32356955     6     773    0    0    0
C 94.24208505 -26.09438015 31.39629680     2     773    777    778    779
H 93.21880936 -27.84535965 31.42090358     6     776    0    0    0
H 96.21451474 -26.61083805 30.94304330     6     776    0    0    0
C 93.95120972 -24.66822937 33.86320117     2     776    780   781   782
H 94.97628559 -23.01743988 33.46394203     6     779    0    0    0
H 92.05051681 -24.11803654 34.21772524     6     779    0    0    0
C 95.04164143 -26.12423166 36.13356719     2     779   783   784   785
H 94.21603373 -27.98761354 36.32776703     6    782    0    0    0
H 97.04311200 -26.37084011 35.64668298     6    782    0    0    0
C 94.92895933 -24.55659932 38.52025540     2    782   786   787   788
H 95.93527933 -22.72137899 38.39933675     6    785    0    0    0
H 92.95360682 -23.99624577 38.76136598     6    785    0    0    0
C 95.63578508 -25.88702393 40.88633837     2    785   789   790   791
H 94.16559190 -27.33422311 41.21734662     6    788    0    0    0
H 97.52849269 -26.70775087 40.65860590     6    788    0    0    0
C 95.37357307 -24.00591098 43.10664363     2    788   792   793   794
H 96.32970867 -22.16983752 42.76692956     6    791    0    0    0
H 93.36807702 -23.65992550 43.19090516     6    791    0    0    0
C 96.11532476 -25.24972686 45.44673652     2    791   795   796   797
H 95.01646793 -26.94879256 45.73252853     6    794    0    0    0
H 98.13344057 -25.63675142 45.06109981     6    794    0    0    0
C 95.73685500 -23.71286667 47.96500828     2    794   798   799   800
H 96.82726348 -21.97619898 47.74990148     6    797    0    0    0
H 93.66095885 -23.38542940 48.07256038     6    797    0    0    0
C 96.61145223 -25.43911748 50.07134347     2    797   801   802   803
H 95.35554280 -27.06353397 50.26113014     6    800    0    0    0
H 98.53706449 -25.92212292 49.76320459     6    800    0    0    0
C 96.72804368 -23.93565953 52.47834917     2    800   804   805   806
H 97.56410237 -22.16121566 52.11624583     6    803    0    0    0
H 94.82660057 -23.52785746 53.14867148     6    803    0    0    0
C 98.13553509 -25.43741710 54.58336142     1    803   807   808   809
H 97.36668935 -25.09036900 56.41336116     6    806    0    0    0
H 100.06097622 -24.80731894 54.63801103     6    806    0    0    0
H 98.02093277 -27.44325093 54.53576928     6    806    0    0    0
H 126.71393336 -9.07928974 23.86529755     6     811    0    0    0 
C 125.62562738 -8.29859391 22.37516293     1     810    812    813    814
H 125.28312741 -6.23921456 22.72039724     6     811    0    0    0
H 126.69995936 -7.98880453 20.50747955     6     811    0    0    0
C 123.15948158 -9.86306525 22.11648319     2     811    815    816    817
H 122.07271472 -9.92907462 23.91311330     6     814    0    0    0
H 122.06612066 -8.96962984 20.61478165     6     814    0    0    0
C 123.75519480 -12.52710900 21.69776264     2     814    818   819   820
H 125.24752072 -12.75949019 20.23360565     6     817    0    0    0
H 124.58641441 -13.26953957 23.42833560     6     817    0    0    0
C 121.42615245 -14.22194759 21.05172286     2     817   821   822   823
H 120.27303695 -14.26815451 22.80136736     6    820    0    0    0
H 120.29066163 -13.69891914 19.34448269     6    820    0    0    0
C 122.47573358 -16.95347462 21.02355826     2    820   824   825   826
H 123.58484163 -17.07911729 19.34116094     6    823    0    0    0
H 123.67862212 -17.41129445 22.51236628     6    823    0    0    0
C 120.47625037 -19.06622568 21.03863770     2    823   827   828   829
H 119.41712576 -18.82149340 22.89564872     6    826    0    0    0
H 119.09583914 -18.94165090 19.54042516     6    826    0    0    0
C 121.64224587 -21.64057725 21.19844202     2    826   830   831   832
H 123.25723688 -21.95753334 19.82034485     6    829    0    0    0
H 122.50482117 -21.92332592 23.05965674     6    829    0    0    0
C 119.73449273 -23.76554196 20.81140948     2    829   833   834   835
H 118.47914853 -23.73334163 22.51371623     6    832    0    0    0
H 118.25801326 -23.49037275 19.38624136     6    832    0    0    0
C 120.87383605 -26.30789894 20.78157607     2    832   836   837   838
H 122.15777736 -26.58885970 19.22558363     6    835    0    0    0
H 121.90659681 -26.51737724 22.49716724     6    835    0    0    0
C 118.86068899 -28.61832356 20.66624023     2    835   839   840   841
H 117.59808967 -28.43661062 22.24507256     6    838    0    0    0
H 117.82268931 -28.43657822 18.97754075     6    838    0    0    0
C 120.27938584 -31.08231433 20.38843206     2    838   842   843   844
H 120.99685516 -31.32369907 18.54562902     6    841    0    0    0
H 121.90639066 -30.96858862 21.51187510     6    841    0    0    0
C 118.72821703 -33.49672379 20.85274975     1    841   845   846   847
H 117.78025243 -33.39772846 22.61681139     6    844    0    0    0
H 120.02331853 -35.11886040 21.12374860     6    844    0    0    0
H 117.30870722 -33.74787264 19.39050302     6    844    0    0    0
H 109.50466376 20.47828659 14.45545980     6     849    0    0    0 
C 108.22451883 19.55676369 15.77729834     1     848    850    851    852
H 108.24185823 20.98093923 17.37352114     6     849    0    0    0
H 106.32327216 19.48819927 15.12115504     6     849    0    0    0
C 108.99746883 16.82393213 16.68180119     2     849    853    854    855
H 110.43788139 16.81062754 18.08843049     6     852    0    0    0
H 107.22340986 16.16456003 17.63752713     6     852    0    0    0
C 109.86052906 15.14885840 14.44777976     2     852    856   857   858
H 108.28699688 14.16887414 13.61994530     6     855    0    0    0
H 110.50809202 16.22369959 12.69516544     6     855    0    0    0
C 111.79352088 13.11339120 15.14223749     2     855   859   860   861
H 113.31899231 14.08862359 16.14608995     6    858    0    0    0
H 111.21054356 11.80353046 16.47301242     6    858    0    0    0
C 112.85883030 11.48679640 12.94153689     2    858   862   863   864
H 111.20004205 11.12187169 11.76825256     6    861    0    0    0
H 114.17272297 12.51922137 11.72218993     6    861    0    0    0
C 114.28179564 9.06508723 13.95525946     2    861   865   866   867
H 115.82444572 9.74458864 15.11999546     6    864    0    0    0
H 113.16338495 7.91947410 15.34467817     6    864    0    0    0
C 114.90760876 7.13162446 11.96293763     2    864   868   869   870
H 113.33442583 6.62189518 10.81789677     6    867    0    0    0
H 116.41283808 7.87726614 10.59013788     6    867    0    0    0
C 115.50609546 4.53571365 13.14091355     2    867   871   872   873
H 117.13144829 4.73894468 14.49853875     6    870    0    0    0
H 114.01955665 3.72843576 14.34922520     6    870    0    0    0
C 116.00863501 2.38694003 11.04458511     2    870   874   875   876
H 115.26157721 0.65012239 11.72871719     6    873    0    0    0
H 114.94980631 3.09814684 9.40223363     6    873    0    0    0
C 118.71120810 1.97206587 10.35228497     2    873   877   878   879
H 119.55846515 3.76570896 9.90438983     6    876    0    0    0
H 119.89715790 1.18266662 11.97302267     6    876    0    0    0
C 119.07615784 0.07774225 8.20459596     2    876   880   881   882
H 118.04062579 -1.69688468 8.51577415     6    879    0    0    0
H 118.63689032 1.02795813 6.40011727     6    879    0    0    0
C 121.86519969 -0.91264552 7.74581087     1    879   883   884   885
H 122.63990063 -1.62442241 9.51874830     6    882    0    0    0
H 123.18834873 0.60434698 7.05434306     6    882    0    0    0
H 121.84458563 -2.54353022 6.41522782     6    882    0    0    0
H 113.83084964 -21.24709558 25.42575180     6     887    0    0    0 
C 113.59083488 -19.77143960 23.88807618     1     886    888    889    890
H 115.23741093 -19.85105522 22.71991106     6     887    0    0    0
H 111.89057291 -20.37194329 22.86842451     6     887    0    0    0
C 112.91302418 -17.15652333 24.69769525     2     887    891    892    893
H 111.30523150 -16.55624915 23.48310492     6     890    0    0    0
H 112.35301939 -17.03474528 26.64631957     6     890    0    0    0
C 114.82013976 -15.08202584 23.99559922     2     890    894   895   896
H 116.48494820 -15.74893545 24.92199544     6     893    0    0    0
H 115.29704737 -15.04229154 21.97112417     6     893    0    0    0
C 114.27196366 -12.53705356 25.25036478     2     893   897   898   899
H 112.53784192 -11.53297605 24.63429228     6    896    0    0    0
H 114.01561849 -12.65524435 27.24962862     6    896    0    0    0
C 116.54603487 -10.76105147 25.13228362     2    896   900   901   902
H 117.89184592 -11.58026205 26.46102659     6    899    0    0    0
H 117.33882981 -10.84784719 23.18966936     6    899    0    0    0
C 116.09912228 -8.04085906 25.83474040     2    899   903   904   905
H 114.73388774 -7.25186604 24.56507803     6    902    0    0    0
H 115.53721419 -7.78482781 27.81878248     6    902    0    0    0
C 118.35746630 -6.24117471 25.39692829     2    902   906   907   908
H 119.96757018 -6.62751085 26.76046789     6    905    0    0    0
H 119.10587819 -6.54748487 23.51380916     6    905    0    0    0
C 117.47146931 -3.49054197 25.95053751     2    905   909   910   911
H 116.43916944 -2.84574928 24.33598171     6    908    0    0    0
H 115.99428096 -3.31567020 27.56672715     6    908    0    0    0
C 119.62334878 -1.54543768 26.51783645     2    908   912   913   914
H 120.94105985 -2.27560100 27.81375575     6    911    0    0    0
H 120.55841298 -1.14457103 24.75438267     6    911    0    0    0
C 118.62783061 1.05012815 27.27555153     2    911   915   916   917
H 117.28024561 1.73204330 26.01675266     6    914    0    0    0
H 117.83426303 0.89986083 29.13824652     6    914    0    0    0
C 120.91159327 3.08763439 27.50629350     2    914   918   919   920
H 122.54657385 2.28162113 28.49155786     6    917    0    0    0
H 121.57170403 3.67154539 25.62653021     6    917    0    0    0
C 120.27046254 5.63275044 28.83597461     1    917   921   922   923
H 120.11968760 5.55014950 30.86882875     6    920    0    0    0
H 118.58329920 6.64588103 28.16131326     6    920    0    0    0
H 121.92521230 6.83960012 28.63406345     6    920    0    0    0
H 99.75573627 -2.35961372 14.60415837     6     925    0    0    0 
C 101.68588978 -3.10461804 14.36797229     1     924    926    927    928
H 102.32781070 -4.28591767 15.93614283     6     925    0    0    0
H 101.84107074 -4.39404795 12.86336577     6     925    0    0    0
C 103.62098701 -0.91775361 14.04873110     2     925    929    930    931
H 102.70885535 0.31054756 12.52766100     6     928    0    0    0
H 103.35909576 0.22308004 15.74983426     6     928    0    0    0
C 106.33491383 -1.39131715 13.24065957     2     928    932   933   934
H 107.02148678 0.09499938 12.13947374     6     931    0    0    0
H 107.74177742 -1.28491122 14.88943645     6     931    0    0    0
C 106.72871204 -3.89467050 11.91346001     2     931   935   936   937
H 106.44210252 -5.67974044 12.96433715     6    934    0    0    0
H 105.47551723 -3.91770590 10.18199133     6    934    0    0    0
C 109.47745332 -4.09688931 10.99348705     2    934   938   939   940
H 109.96721785 -2.22833494 10.21457388     6    937    0    0    0
H 110.65372014 -4.23554505 12.60160266     6    937    0    0    0
C 109.78107144 -6.53579916 9.53010128     2    937   941   942   943
H 109.75649552 -8.05817793 10.81657540     6    940    0    0    0
H 108.18847520 -6.69106900 8.19571743     6    940    0    0    0
C 112.32779425 -6.70139266 8.10417454     2    940   944   945   946
H 113.98449250 -6.36533502 9.23596288     6    943    0    0    0
H 112.46206593 -8.64148148 7.50949715     6    943    0    0    0
C 112.54403773 -4.96076933 5.89899784     2    943   947   948   949
H 110.86384635 -5.29867452 4.73796502     6    946    0    0    0
H 112.67302157 -2.95090699 6.27823193     6    946    0    0    0
C 114.74508860 -5.54118766 4.03808870     2    946   950   951   952
H 116.28407175 -5.02168172 5.30163773     6    949    0    0    0
H 114.76292773 -7.51659624 3.70807037     6    949    0    0    0
C 114.72646769 -4.10300957 1.50524460     2    949   953   954   955
H 113.27163648 -5.04513709 0.24033026     6    952    0    0    0
H 114.27671517 -2.14045307 1.68451796     6    952    0    0    0
C 117.37851364 -4.23313513 0.14873152     2    952   956   957   958
H 117.36736786 -2.90195062 -1.35588798     6    955    0    0    0
H 118.81903993 -3.42421618 1.38814477     6    955    0    0    0
C 117.94433277 -6.97847733 -1.16550432     1    955   959   960   961
H 119.30864164 -6.86042195 -2.75760597     6    958    0    0    0
H 116.21033938 -7.80210500 -1.95668033     6    958    0    0    0
H 118.67596897 -8.11760939 0.48824617     6    958    0    0    0
H 122.54732265 -15.70725063 42.09804141     6     963    0    0    0 
C 121.26436245 -14.64064200 40.95599140     1     962    964    965    966
H 122.35228195 -13.01325794 40.50225829     6     963    0    0    0
H 120.66914027 -15.60203751 39.23446725     6     963    0    0    0
C 118.65898103 -14.17560596 42.34974917     2     963    967    968    969
H 117.63565263 -13.13272598 40.92546940     6     966    0    0    0
H 117.72899000 -16.06838178 42.81401771     6     966    0    0    0
C 118.92737157 -12.23880877 44.59894016     2     966    970   971   972
H 120.57983520 -12.62790785 45.68614792     6     969    0    0    0
H 119.16633527 -10.40359984 43.67647017     6     969    0    0    0
C 116.51272479 -12.28632099 46.21856615     2     969   973   974   975
H 114.90843473 -12.19479782 44.96972618     6    972    0    0    0
H 116.42509616 -14.26404167 46.86587919     6    972    0    0    0
C 116.38727896 -10.63378276 48.56603299     2    972   976   977   978
H 118.27212970 -10.96123145 49.53788531     6    975    0    0    0
H 116.35427858 -8.68126386 47.95564590     6    975    0    0    0
C 114.27948721 -11.27971716 50.44303346     2    975   979   980   981
H 112.53522609 -11.08675243 49.20371863     6    978    0    0    0
H 114.37165389 -13.25661622 50.97079838     6    978    0    0    0
C 114.35721309 -9.56311341 52.70334451     2    978   982   983   984
H 116.04312505 -9.87623349 53.78818260     6    981    0    0    0
H 114.55098180 -7.71103595 51.93644791     6    981    0    0    0
C 112.03605418 -9.52623278 54.25006194     2    981   985   986   987
H 110.31771491 -8.90860725 53.19066855     6    984    0    0    0
H 111.50531749 -11.41415450 54.57309799     6    984    0    0    0
C 112.28527752 -8.02394939 56.55547113     2    984   988   989   990
H 111.61913216 -9.06940750 58.23416487     6    987    0    0    0
H 114.27608074 -7.60369397 56.94930262     6    987    0    0    0
C 110.75039525 -5.42107031 56.50238661     2    987   991   992   993
H 108.77689869 -5.66045153 55.83515070     6    990    0    0    0
H 110.38960338 -4.76711386 58.40420172     6    990    0    0    0
C 112.06678669 -3.32862811 55.03568388     2    990   994   995   996
H 113.35497375 -2.53135923 56.36671966     6    993    0    0    0
H 113.23570520 -3.97045794 53.37941720     6    993    0    0    0
C 110.29718532 -1.48970126 53.73941613     1    993   997   998   999
H 109.09006583 -2.32320172 52.26066247     6    996    0    0    0
H 111.50755289 -0.23460118 52.66708134     6    996    0    0    0
H 108.96266463 -0.45866593 54.96838687     6    996    0    0    0
H 129.07274409 -27.93143865 44.25600543     6     1001    0    0    0 
C 129.12036077 -26.46632248 42.79169581     1     1000    1002    1003    1004
H 131.05914053 -26.25971403 42.24717216     6     1001    0    0    0
H 128.18237155 -27.01762620 41.06077321     6     1001    0    0    0
C 128.25238036 -23.80506705 43.87544554     2     1001    1005    1006    1007
H 128.26676298 -22.54801794 42.25455115     6     1004    0    0    0
H 126.30644198 -24.22662540 44.39661219     6     1004    0    0    0
C 129.90142891 -22.90110328 45.94381559     2     1004    1008   1009   1010
H 129.85150549 -24.13109880 47.52341627     6     1007    0    0    0
H 131.80206834 -22.89628005 45.30537883     6     1007    0    0    0
C 129.12635855 -20.28724112 46.92151971     2     1007   1011   1012   1013
H 128.71808782 -19.00888763 45.30517560     6    1010    0    0    0
H 127.34605054 -20.45853688 48.00774984     6    1010    0    0    0
C 131.17690096 -19.17675410 48.80572277     2    1010   1014   1015   1016
H 131.85529670 -20.74290424 50.15290732     6    1013    0    0    0
H 132.80789664 -18.62302832 47.65919947     6    1013    0    0    0
C 130.51917388 -17.04127269 50.60981866     2    1013   1017   1018   1019
H 129.54682686 -15.63071630 49.49487035     6    1016    0    0    0
H 129.23653788 -17.66596618 52.07022656     6    1016    0    0    0
C 132.80952548 -15.87813572 51.93026234     2    1016   1020   1021   1022
H 133.87405173 -17.33359614 52.77207879     6    1019    0    0    0
H 134.16701991 -14.81015200 50.75148563     6    1019    0    0    0
C 132.03494120 -14.29537360 54.22082117     2    1019   1023   1024   1025
H 130.98431071 -15.31469394 55.75403293     6    1022    0    0    0
H 133.72055608 -13.60161106 55.07814650     6    1022    0    0    0
C 130.67153867 -11.87551824 53.49481710     2    1022   1026   1027   1028
H 131.87903340 -10.94258824 52.09473067     6    1025    0    0    0
H 128.81485933 -12.05293220 52.53663953     6    1025    0    0    0
C 130.22948520 -10.05474476 55.69161860     2    1025   1029   1030   1031
H 129.24277251 -11.04516945 57.34686637     6    1028    0    0    0
H 132.17940893 -9.38470378 56.36171827     6    1028    0    0    0
C 128.76637734 -7.58337272 54.84797477     2    1028   1032   1033   1034
H 129.98981859 -6.65871007 53.42782286     6    1031    0    0    0
H 126.85033624 -7.87385446 54.06205779     6    1031    0    0    0
C 128.85952092 -5.48507682 56.66253237     1    1031   1035   1036   1037
H 127.67453953 -3.86747156 56.17307518     6    1034    0    0    0
H 130.75296237 -4.71951970 56.72526778     6    1034    0    0    0
H 127.98822448 -6.31009613 58.39959493     6    1034    0    0    0
H 102.82982063 -23.03872928 32.07764654     6     1039    0    0    0 
C 101.36948235 -22.73524631 30.67273965     1     1038    1040    1041    1042
H 99.97681294 -24.11552825 31.40486848     6     1039    0    0    0
H 100.45133928 -20.85652957 30.71484784     6     1039    0    0    0
C 102.34048039 -23.85285088 28.11307615     2     1039    1043    1044    1045
H 103.87731232 -22.61629766 27.44470435     6     1042    0    0    0
H 103.29815962 -25.67360160 28.55729291     6     1042    0    0    0
C 100.19113144 -24.09641102 26.20693068     2     1042    1046   1047   1048
H 98.85668394 -25.13830129 27.37127270     6     1045    0    0    0
H 99.52303493 -22.27387235 25.49511909     6     1045    0    0    0
C 100.74500837 -25.77397971 23.89526980     2     1045   1049   1050   1051
H 102.19550592 -25.09987378 22.53905833     6    1048    0    0    0
H 101.14318355 -27.67308885 24.52820704     6    1048    0    0    0
C 98.43544664 -25.82994564 22.15831965     2    1048   1052   1053   1054
H 96.52328382 -26.22973359 23.01911270     6    1051    0    0    0
H 98.30181963 -23.84941234 21.35268819     6    1051    0    0    0
C 98.97073979 -27.54783456 19.85153371     2    1051   1055   1056   1057
H 100.89072265 -27.35468115 19.23460851     6    1054    0    0    0
H 98.98167635 -29.54284263 20.37225180     6    1054    0    0    0
C 97.17925925 -27.43147483 17.71318930     2    1054   1058   1059   1060
H 95.33958098 -27.28408388 18.49633992     6    1057    0    0    0
H 97.54663017 -25.64385119 16.83713493     6    1057    0    0    0
C 97.22523483 -29.49895922 15.68355387     2    1057   1061   1062   1063
H 98.90664784 -29.00593719 14.56614519     6    1060    0    0    0
H 97.39806883 -31.27336731 16.53155576     6    1060    0    0    0
C 95.26204052 -29.31721338 13.54653527     2    1060   1064   1065   1066
H 93.45392681 -29.64705480 14.30266319     6    1063    0    0    0
H 95.22962358 -27.50357895 12.68238258     6    1063    0    0    0
C 95.88232843 -31.32024189 11.58721337     2    1063   1067   1068   1069
H 97.77638285 -31.13602443 10.99041989     6    1066    0    0    0
H 95.53394116 -33.12881158 12.69262393     6    1066    0    0    0
C 94.18332101 -31.50924080 9.22697941     2    1066   1070   1071   1072
H 92.36369427 -30.40619632 9.69353052     6    1069    0    0    0
H 95.26924371 -30.52828002 7.63397993     6    1069    0    0    0
C 93.40909136 -34.19956231 8.50998589     1    1069   1073   1074   1075
H 92.75730183 -33.98679245 6.45761637     6    1072    0    0    0
H 91.99566850 -34.81566757 9.84845683     6    1072    0    0    0
H 94.85365812 -35.70265186 8.47592525     6    1072    0    0    0
H 93.47784494 -7.62073077 11.01179713     6     1077    0    0    0 
C 92.65274068 -9.45834184 11.91187491     1     1076    1078    1079    1080
H 92.18485502 -9.19271333 13.78641657     6     1077    0    0    0
H 90.91291312 -9.98298596 10.92078195     6     1077    0    0    0
C 94.60546193 -11.57616334 11.57251246     2     1077    1081    1082    1083
H 94.31326279 -13.21706017 12.83043588     6     1080    0    0    0
H 94.46836898 -12.16021577 9.53273616     6     1080    0    0    0
C 97.34065537 -10.54168671 12.28074983     2     1080    1084   1085   1086
[...]
 1803      H      92.4622887600   -14.8007998300    18.4464194900
 1804      H      90.4234142000   -11.9719136000    17.6286287000
 1805      C      92.9443994800   -11.3425146600    20.7559192700
 1806      H      91.6664927400    -9.6947023700    21.0672795800
 1807      H      93.1281907800   -11.9440489200    22.7120779000
 1808      C      95.5444236900   -10.7495393200    19.4773423100
 1809      H      96.6023416600   -12.4737645100    18.7885450700
 1810      H      95.3031999600    -9.6818722400    17.7614352800
 1811      C      97.6070155500    -9.4165679300    21.0811814400
 1812      H      97.0703982600    -7.4431406500    21.5294709300
 1813      H      97.7770238700   -10.4843277800    22.7412289000
 1814      C     100.1300110600    -9.1868880400    19.6780854900
 1815      H     100.3928951200   -10.9872287500    18.7482442800
 1816      H     100.1473802700    -7.7747693600    18.1151081700
 1817      C     102.3207516600    -8.7391328700    21.3035772100
 1818      H     102.1592191100    -7.0475133700    22.4495623200
 1819      H     102.6933995700   -10.2173505200    22.5059107200
 1820      C     104.5341380900    -8.0622227800    19.5068915200
 1821      H     104.2318890100    -9.2391194900    17.6953437100
 1822      H     104.3857872000    -6.2077763200    18.7997202300
 1823      C     107.1581469600    -8.9896155000    20.1782409200
 1824      H     107.5319077400    -8.3235114300    22.1627486100
 1825      H     107.1320695900   -11.0293309900    20.2598598900
 1826      C     109.2907032100    -8.0587638200    18.3193615200
 1827      H     109.1050571800    -8.6477017900    16.3892164400
 1828      H     109.2507052800    -5.9236115500    18.5263547000
 1829      C     111.8745655700    -8.9820921400    19.2421615800
 1830      H     112.0785683700    -8.5733887300    21.2310112800
 1831      H     112.0887583400   -11.0469614200    19.2458136400
 1832      C     114.2794416300    -7.9435120500    17.9400625000
 1833      H     114.5520386300    -5.9465787400    18.2119545200
 1834      H     114.4580116100    -8.4918138600    15.9480769700
 1835      H     115.9837246500    -8.6289947600    18.8235040400
 1836      H     109.1746277000    -6.8815991000    30.5380705300
 1837      C     108.3855716200    -6.7122462100    28.7319314500
 1838      H     108.7677082100    -8.2611942600    27.6370511300
 1839      H     106.4214576700    -6.8423874200    28.9233478000
 1840      C     109.7393973600    -4.3125699400    27.6292351100
 1841      H     108.7787745100    -2.8327028000    28.8459511200
 1842      H     111.6315418000    -3.9673902600    28.0157942400
 1843      C     109.1170847300    -3.8834938000    24.8069383200
 1844      H     110.2048157300    -5.0548408600    23.5599077600
 1845      H     107.0956705700    -4.1144346800    24.4004159100
 1846      C     109.9996422200    -1.1917272800    23.9452501800
 1847      H     109.2013127900     0.2113094300    25.2381633500
 1848      H     112.0610574800    -1.1030583100    24.1156026200
 1849      C     109.4594570700    -0.7663978500    21.0652177800
 1850      H     110.6198263400    -2.3341282600    20.2482763000
 1851      H     107.4673143300    -1.1737481000    20.4109047300
 1852      C     110.4075008600     1.8519154600    20.0666661400
 1853      H     112.2804537500     2.1980560600    20.6048176500
 1854      H     110.2905501800     1.6977468200    18.0205240900
 1855      C     108.4967213500     3.8356862900    20.8973282500
 1856      H     106.5359956200     3.1427730000    21.4033440500
 1857      H     109.2590631500     4.4746505400    22.7105544900
 1858      C     108.0809079000     5.9641466200    19.0155072400
 1859      H     107.8039638400     7.7057620600    19.8632447600
 1860      H     110.0448590000     6.3802820900    18.2020127500
 1861      C     106.2202298100     5.5737632600    16.9536590700
 1862      H     106.4108656700     3.8299474500    15.9813836900
 1863      H     104.3503193900     5.6926365200    17.6897313400
 1864      C     106.7198994500     7.7303946600    15.0713542100
 1865      H     106.2291950900     9.5511757700    16.0371376800
 1866      H     108.7636330600     7.8629890400    14.6524347400
 1867      C     105.0806756700     7.3727962600    12.6970398900
 1868      H     105.4998119300     5.7275189000    11.5111146800
 1869      H     103.0950623200     7.3699867900    13.2848359100
 1870      C     105.3698580500     9.5816455300    10.7355376400
 1871      H     104.0278105400     9.2690152700     9.2016304900
 1872      H     107.1572173700     9.3111326900     9.8406546100
 1873      H     104.9556832600    11.4322590900    11.4914087200
 1874      H      98.7324589500     3.5596607400    53.3944293900
 1875      C      98.8232332600     3.1158461500    51.4374406400
 1876      H      97.1748300900     1.8809998100    51.1509623800
 1877      H      98.3308627300     4.8555797200    50.4580019600
 1878      C     101.2680604500     1.5358909800    50.9797891300
 1879      H     102.7026123400     2.8029629600    50.4095191500
 1880      H     101.7243690300     0.8227012100    52.8028294400
 1881      C     100.9107015200    -0.3944676300    48.7995153200
 1882      H      98.9452291800    -1.1079259500    49.1433496100
 1883      H     101.0241607400     0.3586007700    46.8670504600
 1884      C     102.8044373600    -2.5484215500    49.2459661000
 1885      H     104.6133902600    -1.7541018300    49.1041994000
 1886      H     102.9112067600    -2.9369514300    51.2180963600
 1887      C     102.4400247300    -4.9458612100    47.5329023600
 1888      H     100.9068427100    -6.1251320400    48.3092737400
 1889      H     102.0385154700    -4.6586192400    45.4965140500
 1890      C     104.9765192000    -6.3750059600    47.3979778500
 1891      H     106.5526471300    -5.5499008800    46.4442024600
 1892      H     105.7240920400    -6.3917504200    49.2513565500
 1893      C     104.6502370300    -9.0241299100    46.4358256600
 1894      H     102.8867551200    -9.7781487500    47.4013323500
 1895      H     104.1199652700    -9.2367907600    44.5407654100
 1896      C     106.8868985600   -10.9189924100    46.9272256700
 1897      H     108.7773553700   -10.2140409300    46.3526880200
 1898      H     107.1875777000   -11.3515015200    48.8582548700
 1899      C     106.5185321200   -13.5894600700    45.7589679100
 1900      H     104.7978303300   -14.4896315600    46.4329458000
 1901      H     106.4644670800   -13.3490512100    43.7678087400
 1902      C     108.7174709700   -15.5076310500    46.2462857700
 1903      H     110.3922746500   -14.3933688400    46.1145827500
 1904      H     108.9179023600   -16.2169892300    48.1317499400
 1905      C     108.6881326200   -17.6250720300    44.2912884100
 1906      H     106.9906181200   -18.6440072800    44.2339740000
 1907      H     108.8595758700   -16.8945793700    42.3366095600
 1908      C     110.6874881600   -19.4846605300    44.8236507900
 1909      H     109.9014038700   -20.8233623400    46.1596964600
 1910      H     112.2631741500   -18.4680879700    45.7192743700
 1911      H     111.5618417000   -20.4262435300    43.2765714500
 ----------------------------------------------------------------
 Nuclear Repulsion Energy =           0.00000000 hartrees
 There are     2498 alpha and     2498 beta electrons

 Total QAlloc Memory Limit   2000 MB
 Mega-Array Size       204 MB
 MEM_STATIC part       192 MB
   **** Step 1: MM calculation on the entire system **** 
 OPLSAA force field loaded.
Reading user-defined FF parameters...
 Reading user defined atom types.
 Found 3 user defined AtomTypes
finished.
Determining angles, torsions, etc. from user defined input
Determining VDW/Coulomb pairs... (useList = 0)

 Time req'd to get MM system information: 0.2 s (CPU) 0.3 s (wall)

 ------ MM Energies ------
   Ebond:           553.446655647704
   Eangle:          831.339803065031
   EUreyBrad:         0.000000000000
   Eimptors:          0.000000000000
   Etorsion:        229.569096156971
   Evdw:        1019274.669137108955
   Ecoulomb:        184.656526884372
   Etot:        1021073.681218863116 Kcal/mol (   1627.184494270148 hartree)
 -------------------------
 Time req'd to calc MM energy: 0.1 s (CPU) 0.1 s (wall)
 OPLSAA force field loaded.
Reading user-defined FF parameters...
 Reading user defined atom types.
 Found 3 user defined AtomTypes
finished.
 Time req'd to get MM system information: 0.0 s (CPU) 0.0 s (wall)
 Time req'd to calc MM gradient: 0.2 s (CPU) 0.2 s (wall)
   **** Step 2: MM calculation on the model system **** 
 Reading user defined atom types.
 Found 3 user defined AtomTypes
 ----------------------------------------------------------------
             Standard Nuclear Orientation (Bohr)
    I     Atom           X                Y                Z
 ----------------------------------------------------------------
    1      Fe    109.6373622200    -5.8012031700    38.5619152200
    2      C     110.5729160500    -8.0779781000    40.9086761400
    3      C     107.0482060800    -6.6229743400    36.6224030600
    4      C     111.7285491400    -2.9532326300    38.4941088500
    5      C     111.6208719200    -7.0544516300    36.1186610100
    6      C     107.3641216700    -4.2515580600    40.6579490600
    7      O     111.0751158100    -9.4942374500    42.5780541200
    8      O     105.3368171700    -7.3446777800    35.2940531000
    9      O     112.8457941400    -1.0712327700    38.4772175600
   10      O     112.9317751100    -7.9313682100    34.5700486600
   11      O     105.7528090800    -3.3362885800    41.8063418800
 ----------------------------------------------------------------
 Nuclear Repulsion Energy =         796.33834483 hartrees
 There are       48 alpha and       48 beta electrons
 OPLSAA force field loaded.
Reading user-defined FF parameters...
 Reading user defined atom types.
 Found 3 user defined AtomTypes
finished.
Determining VDW/Coulomb pairs... (useList = 0)

 No MM bonds in system. Return all possible pairs.
 Time req'd to get MM system information: 0.0 s (CPU) 0.0 s (wall)

 ------ MM Energies ------
   Ebond:             0.000000000000
   Eangle:            0.000000000000
   EUreyBrad:         0.000000000000
   Eimptors:          0.000000000000
   Etorsion:          0.000000000000
   Evdw:        1019699.103702185443
   Ecoulomb:         -6.415237839162
   Etot:        1019692.688464346225 Kcal/mol (   1624.983742220436 hartree)
 -------------------------
 Eold: 1627.1844943 mm_energy: 1624.9837422 Enew:    2.2007520
 Time req'd to calc MM energy: 0.0 s (CPU) 0.0 s (wall)
 OPLSAA force field loaded.
Reading user-defined FF parameters...
 Reading user defined atom types.
 Found 3 user defined AtomTypes
finished.
Determining VDW/Coulomb pairs... (useList = 0)

 No MM bonds in system. Return all possible pairs.
 Time req'd to get MM system information: 0.0 s (CPU) 0.0 s (wall)
 Number of fixed atoms: 0
 Time req'd to calc MM gradient: 0.0 s (CPU) 0.0 s (wall)
   **** Step 3: QM calculation on the model system **** 
 Requested basis set is def2-mSVP
 There are 80 shells and 174 basis functions

                       Distance Matrix (Bohrs)
             Fe(  1)   C (  2)   C (  3)   C (  4)   C (  5)   C (  6)
   C (  2)  3.400919
   C (  3)  3.337775  5.736964
   C (  4)  3.533921  5.781751  6.235054
   C (  5)  3.387393  5.008998  4.620520  4.740711
   C (  6)  3.458667  5.000072  4.691380  5.041436  6.825047
   O (  7)  5.642252  2.246067  7.741443  7.738884  6.926338  6.704026
   O (  8)  5.617466  7.712227  2.283467  8.389242  6.344569  6.515269
   O (  9)  5.716103  7.757090  8.238580  2.188709  6.546918  6.702148
   O ( 10)  5.596942  6.764903  6.367137  6.451964  2.210351  9.033399
   O ( 11)  5.629553  6.820766  6.273243  6.843032  8.978230  2.180104
             O (  7)   O (  8)   O (  9)   O ( 10)
   O (  8)  9.518684
   O (  9)  9.534106 10.289479
   O ( 10)  8.367670  7.651913  7.895240
   O ( 11)  8.175746  7.658338  8.156224 11.181067

 A cutoff of  1.0D-11 yielded   2489 shell pairs
 There are     12771 function pairs (     14611 Cartesian)
 Smallest overlap matrix eigenvalue = 2.48E-03
 Guess MOs from SCF MO coefficient file
 Reading MOs from coefficient file
 Reading MOs from coefficient file
 A restricted Kohn-Sham SCF calculation will be
 performed using Pulay DIIS extrapolation
 Exchange:  B88      Correlation:  P86
 Using SG-1 standard quadrature grid
 SCF converges when DIIS error is below 1.0E-08
 Using Q-Chem read-in guess as SCF_GUESS READ specified.

 using 2 threads for integral computing
 -------------------------------------------------------
 OpenMP Integral computing Module                
 Release: version 1.0, May 2013, Q-Chem Inc. Pittsburgh 
 -------------------------------------------------------
 ---------------------------------------
  Cycle       Energy         DIIS Error
 ---------------------------------------
    1   -1830.5221530798      6.72E-10
    2   -1830.5221530786      6.00E-09 Convergence criterion met
 ---------------------------------------
 SCF time:  CPU 2.71 s  wall 1.49 s
 E(QM + QM/MM):    -1830.5221530786 E(MM):    2.2007520 E(Tot): -1828.321401028933 
 SCF   energy in the final basis set = -1828.32140103
 Total energy in the final basis set = -1828.32140103

 --------------------------------------------------------------

                    Orbital Energies (a.u.)
 --------------------------------------------------------------

 Alpha MOs
 -- Occupied --
******** -29.6393 -25.5987 -25.5875 -25.5820 -18.8924 -18.8886 -18.8885
-18.8720 -18.8667 -10.0598 -10.0583 -10.0527 -10.0439 -10.0422  -3.3235
 -2.1583  -2.1373  -2.1248  -1.0699  -1.0626  -1.0582  -1.0310  -1.0168
 -0.5763  -0.5298  -0.5239  -0.5163  -0.5146  -0.4579  -0.4462  -0.4409
 -0.4373  -0.4333  -0.4312  -0.4264  -0.4208  -0.4119  -0.4064  -0.4023
 -0.3988  -0.3942  -0.3907  -0.3758  -0.2818  -0.2728  -0.2372  -0.2247
 -- Virtual --
 -0.1019  -0.0943  -0.0877  -0.0802  -0.0766  -0.0722  -0.0712  -0.0623
 -0.0607  -0.0432  -0.0283   0.0099   0.1882   0.2087   0.2211   0.2544
  0.2958   0.3213   0.3455   0.3976   0.4058   0.4228   0.4267   0.4346
  0.4432   0.4778   0.4846   0.5037   0.5242   0.5528   0.5574   0.5866
  0.6000   0.6086   0.6276   0.6428   0.7371   0.7480   0.7615   0.7687
  0.7917   0.8276   0.8348   0.8640   0.8770   0.8947   0.9471   0.9547
  0.9731   0.9773   0.9842   0.9980   1.0189   1.0203   1.0295   1.0595
  1.2188   1.2392   1.2570   1.3234   1.3992   1.4034   1.4055   1.4082
  1.4162   1.4234   1.4326   1.4376   1.4495   1.4553   1.4736   1.4906
  1.5079   1.5332   1.5440   1.5562   1.5925   1.6225   1.6452   1.6664
  1.6832   1.8179   1.8257   1.8315   1.8344   1.8422   1.8450   1.8495
  1.8565   1.8603   1.8639   1.8776   1.8840   1.8899   1.9054   1.9442
  2.3654   2.3752   2.3994   2.4355   2.4483   2.4596   2.4694   2.4824
  2.4993   2.5023   2.6146   2.6421   2.6494   2.6580   2.6708   2.8081
  2.8201   2.8672   2.9030   2.9701  13.2568  13.2840  13.3200  13.3334
 13.4404  24.9064  24.9331  24.9452  24.9595  25.0119
 --------------------------------------------------------------

          Ground-State Mulliken Net Atomic Charges

     Atom                 Charge (a.u.)
  ----------------------------------------
      1 Fe                   -0.485980
      2 C                     0.246416
      3 C                     0.208271
      4 C                     0.221983
      5 C                     0.200811
      6 C                     0.214354
      7 O                    -0.138957
      8 O                    -0.160798
      9 O                    -0.098092
     10 O                    -0.113442
     11 O                    -0.094565
  ----------------------------------------
  Sum of atomic charges =     0.000000

 -----------------------------------------------------------------
                    Cartesian Multipole Moments
 -----------------------------------------------------------------
    Charge (ESU x 10^10)
                -0.0000
    Dipole Moment (Debye)
         X       0.4652531239      Y       0.6220599180      Z       0.1808213267
       Tot       0.7975684065
    Quadrupole Moments (Debye-Ang)
        XX     -16.0033     XY      34.3184     YY     -73.4119
        XZ      18.5908     YZ      12.6278     ZZ     -62.6931
    Octopole Moments (Debye-Ang^2)
       XXX   -7475.9456    XXY    2103.8681    XYY   -4256.3265
       YYY     658.2339    XXZ     125.5069    XYZ     704.2161
       YYZ   -1502.1404    XZZ   -3498.9274    YZZ     479.3467
       ZZZ   -4062.5580
    Hexadecapole Moments (Debye-Ang^3)
      XXXX ************   XXXY  141087.0299   XXYY -247683.2873
      XYYY   38190.4072   YYYY   -4659.3115   XXXZ -130387.2150
      XXYZ   43566.1428   XYYZ  -87115.5827   YYYZ   13439.2501
      XXZZ -224164.0068   XYZZ   27394.2933   YYZZ  -31679.8092
      XZZZ -233359.9290   YZZZ   18817.9382   ZZZZ -169530.4756
 -----------------------------------------------------------------
 Calculating MO derivatives via CPSCF
 Full subspace dimension requested for CIS/TDDFT
 MAX_CIS_SUBSPACE fits in available memory
    1     0    36    0.0404305  
    2     0    36    0.0066043  
    3     0    36    0.0008028  
    4     0    36    0.0000685  
    5    34     2    0.0000017  
    6    36     0    0.0000001  Converged
 Time for AOints: 6.5 s (CPU) 3.3 s (wall)
 ------------------------------------------------------------------------------
                     AOints        : Timing summary (seconds)
 ------------------------------------------------------------------------------
     job step          cpu (% of tot)      sys (% of tot)     wall (% of tot)
 ------------------------------------------------------------------------------
  AOints            0.6543E+01 ( 3.7)   0.1400E-04 (12.5)   0.3334E+01 ( 3.7)
 ------------------------------------------------------------------------------
   Grand Totals     0.1783E+03          0.1120E-03          0.8984E+02
 ------------------------------------------------------------------------------
 Polarizability Matrix (a.u.)
            1           2           3
    1 -96.2697024  -0.7199188   4.3953058
    2  -0.7199188 -88.2722788  -5.6122833
    3   4.3953058  -5.6122833 -92.6448411
 Derivative of Dipole Moment Matrix (a.u.)
            1           2           3
    1  -1.8736298  -0.0435539  -0.0480663
    2   0.0322880  -1.8678831  -0.0284120
    3   0.0447677  -0.0554464  -1.9141742
    4   0.5513480  -0.2767291   0.3182852
    5  -0.3146071   1.2834992  -0.8855437
    6   0.3546800  -0.9381006   1.4055711
    7   1.4947116   0.3691138   0.8702472
    8   0.4863122   0.5438410   0.3388994
    9   0.8723831   0.2505124   1.0314975
   10   0.9822471   0.9033882   0.0212681
   11   0.9206999   1.7875967  -0.0395930
   12   0.0072796  -0.0277798   0.3916742
   13   1.0163070  -0.4030029  -0.7405685
   14  -0.4386569   0.7068535   0.4841211
   15  -0.7611160   0.4841125   1.3741474
   16   1.2886857  -0.5946110  -0.7851904
   17  -0.5297213   0.7818143   0.4442959
   18  -0.6705971   0.4516383   1.0412307
   19  -0.2752120   0.2085783  -0.2409722
   20   0.2485289  -0.8338534   0.6883697
   21  -0.3040696   0.7535887  -0.9831854
   22  -1.0318052  -0.2938782  -0.6621044
   23  -0.3863484  -0.3137518  -0.2740739
   24  -0.6807088  -0.2090396  -0.6847591
   25  -0.6195200  -0.6895606  -0.0015822
   26  -0.7836749  -1.2902833   0.0344631
   27  -0.0043272   0.0204146  -0.1517843
   28  -0.6535752   0.3224411   0.6094919
   29   0.3413322  -0.3673301  -0.3962033
   30   0.6140636  -0.3814830  -0.8947973
   31  -0.8795572   0.4978142   0.6591917
   32   0.4238474  -0.4305032  -0.3663234
   33   0.5276446  -0.3484170  -0.6154207
 -----------------------------------------
 Net:  -0.00000  -0.00000  -0.00000
 -----------------------------------------

 Calculating analytic Hessian of the SCF energy
