                  Welcome to Q-Chem
     A Quantum Leap Into The Future Of Chemistry


 Q-Chem 5.4 (devel), Q-Chem, Inc., Pleasanton, CA (2021)

 E. Epifanovsky,  A. T. B. Gilbert,  Xintian Feng,  Joonho Lee,  Yuezhi Mao,  
 N. Mardirossian,  P. Pokhilko,  A. White,  M. Wormit,  M. P. Coons,  
 A. L. Dempwolff,  Zhengting Gan,  D. Hait,  P. R. Horn,  L. D. Jacobson,  
 I. Kaliman,  J. Kussmann,  A. W. Lange,  Ka Un Lao,  D. S. Levine,  Jie Liu,  
 S. C. McKenzie,  A. F. Morrison,  K. Nanda,  F. Plasser,  D. R. Rehn,  
 M. L. Vidal,  Zhi-Qiang You,  Ying Zhu,  B. Alam,  B. Albrecht,  
 A. Aldossary,  E. Alguire,  J. H. Andersen,  D. Barton,  K. Begam,  A. Behn,  
 Y. A. Bernard,  E. J. Berquist,  H. Burton,  A. Carreras,  K. Carter-Fenk,  
 R. Chakraborty,  A. D. Chien,  K. D. Closser,  V. Cofer-Shabica,  
 S. Dasgupta,  Jia Deng,  M. de Wergifosse,  M. Diedenhofen,  Hainam Do,  
 S. Ehlert,  Po-Tung Fang,  S. Fatehi,  Qingguo Feng,  T. Friedhoff,  
 J. Gayvert,  Qinghui Ge,  G. Gidofalvi,  M. Goldey,  J. Gomes,  
 C. Gonzalez-Espinoza,  S. Gulania,  A. Gunina,  M. W. D. Hanson-Heine,  
 P. H. P. Harbach,  A. W. Hauser,  M. F. Herbst,  M. Hernandez Vera,  
 M. Hodecker,  Z. C. Holden,  S. Houck,  Xunkun Huang,  Kerwin Hui,  
 B. C. Huynh,  M. Ivanov,  Hyunjun Ji,  Hanjie Jiang,  B. Kaduk,  S. Kaehler,  
 K. Khistyaev,  Jaehoon Kim,  P. Klunzinger,  Z. Koczor-Benda,  
 Joong Hoon Koh,  D. Kosenkov,  L. Koulias,  T. Kowalczyk,  C. M. Krauter,  
 K. Kue,  A. Kunitsa,  T. Kus,  A. Landau,  K. V. Lawler,  D. Lefrancois,  
 S. Lehtola,  Rain Li,  Yi-Pei Li,  Jiashu Liang,  M. Liebenthal,  
 Hung-Hsuan Lin,  You-Sheng Lin,  Fenglai Liu,  Kuan-Yu Liu,  
 M. Loipersberger,  A. Luenser,  A. Manjanath,  P. Manohar,  E. Mansoor,  
 S. F. Manzer,  Shan-Ping Mao,  A. V. Marenich,  T. Markovich,  S. Mason,  
 S. A. Maurer,  P. F. McLaughlin,  M. F. S. J. Menger,  J.-M. Mewes,  
 S. A. Mewes,  P. Morgante,  J. W. Mullinax,  K. J. Oosterbaan,  G. Paran,  
 Alexander C. Paul,  Suranjan K. Paul,  F. Pavosevic,  Zheng Pei,  S. Prager,  
 E. I. Proynov,  E. Ramos,  B. Rana,  A. E. Rask,  A. Rettig,  R. M. Richard,  
 F. Rob,  E. Rossomme,  T. Scheele,  M. Scheurer,  M. Schneider,  
 N. Sergueev,  S. M. Sharada,  W. Skomorowski,  D. W. Small,  C. J. Stein,  
 Yu-Chuan Su,  E. J. Sundstrom,  Zhen Tao,  J. Thirman,  T. Tsuchimochi,  
 N. M. Tubman,  S. P. Veccham,  O. Vydrov,  J. Wenzel,  J. Witte,  A. Yamada,  
 Kun Yao,  S. Yeganeh,  S. R. Yost,  A. Zech,  Igor Ying Zhang,  Xing Zhang,  
 Yu Zhang,  D. Zuev,  A. Aspuru-Guzik,  A. T. Bell,  N. A. Besley,  
 K. B. Bravaya,  B. R. Brooks,  D. Casanova,  Jeng-Da Chai,  S. Coriani,  
 C. J. Cramer,  A. E. DePrince, III,  R. A. DiStasio Jr.,  A. Dreuw,  
 B. D. Dunietz,  T. R. Furlani,  W. A. Goddard III,  S. Grimme,  
 S. Hammes-Schiffer,  T. Head-Gordon,  W. J. Hehre,  Chao-Ping Hsu,  
 T.-C. Jagau,  Yousung Jung,  A. Klamt,  Jing Kong,  D. S. Lambrecht,  
 WanZhen Liang,  N. J. Mayhall,  C. W. McCurdy,  J. B. Neaton,  
 C. Ochsenfeld,  J. A. Parkhill,  R. Peverati,  V. A. Rassolov,  Yihan Shao,  
 L. V. Slipchenko,  T. Stauch,  R. P. Steele,  J. E. Subotnik,  
 A. J. W. Thom,  A. Tkatchenko,  D. G. Truhlar,  T. Van Voorhis,  
 T. A. Wesolowski,  K. B. Whaley,  H. L. Woodcock III,  P. M. Zimmerman,  
 S. Faraji,  P. M. W. Gill,  M. Head-Gordon,  J. M. Herbert,  A. I. Krylov

 Additional authors for Version 5.4.1: 
 S. Kotaru,  Shaozhi Li,  Xiangyuan Li,  F. Matz,  A. Molle,  Haisheng Ren,  
 Yingli Su,  Hung-Yi Tsai,  C. Utku,  Fang Wang

 Contributors to earlier versions of Q-Chem not listed above: 
 R. D. Adamson,  B. Austin,  R. Baer,  J. Baker,  G. J. O. Beran,  
 K. Brandhorst,  S. T. Brown,  E. F. C. Byrd,  A. K. Chakraborty,  
 G. K. L. Chan,  Chun-Min Chang,  Yunqing Chen,  C.-L. Cheng,  
 Siu Hung Chien,  D. M. Chipman,  D. L. Crittenden,  H. Dachsel,  
 R. J. Doerksen,  A. D. Dutoi,  R. G. Edgar,  J. Fosso-Tande,  
 L. Fusti-Molnar,  D. Ghosh,  A. Ghysels,  A. Golubeva-Zadorozhnaya,  
 J. Gonthier,  M. S. Gordon,  S. R. Gwaltney,  G. Hawkins,  J. E. Herr,  
 A. Heyden,  S. Hirata,  E. G. Hohenstein,  G. Kedziora,  F. J. Keil,  
 C. Kelley,  Jihan Kim,  R. A. King,  R. Z. Khaliullin,  P. P. Korambath,  
 W. Kurlancheek,  A. Laurent,  A. M. Lee,  M. S. Lee,  S. V. Levchenko,  
 Ching Yeh Lin,  D. Liotard,  E. Livshits,  R. C. Lochan,  I. Lotan,  
 L. A. Martinez-Martinez,  P. E. Maslen,  N. Nair,  D. P. O'Neill,  
 D. Neuhauser,  E. Neuscamman,  C. M. Oana,  R. Olivares-Amaya,  R. Olson,  
 T. M. Perrine,  B. Peters,  P. A. Pieniazek,  A. Prociuk,  Y. M. Rhee,  
 J. Ritchie,  M. A. Rohrdanz,  E. Rosta,  N. J. Russ,  H. F. Schaefer III,  
 M. W. Schmidt,  N. E. Schultz,  S. Sharma,  N. Shenvi,  C. D. Sherrill,  
 A. C. Simmonett,  A. Sodt,  T. Stein,  D. Stuck,  K. S. Thanthiriwatte,  
 V. Vanovschi,  L. Vogt,  Tao Wang,  A. Warshel,  M. A. Watson,  
 C. F. Williams,  Q. Wu,  X. Xu,  Jun Yang,  W. Zhang,  Yan Zhao

 Please cite Q-Chem as follows:
 Y. Shao et al., Mol. Phys. 113, 184-215 (2015)
 DOI: 10.1080/00268976.2014.952696

 Q-Chem 5.4.1 for Intel X86 EM64T Linux

 Parts of Q-Chem use Armadillo 9.900.5 (Nocturnal Misbehaviour).
 http://arma.sourceforge.net/

 Q-Chem begins on Wed Jun 22 08:05:25 2022  

 Host: p09r16n04.grace.hpc.yale.internal
0

     Scratch files written to /home/tl686/scratch60/qchem_dev/scratch/qchem69625//
 Processing $rem in /home/tl686/qchem_dev/qchem/config/preferences:
 Processing $rem in /home/tl686/.qchemrc:
Applying user defined connections for MM calculations

 Checking the input file for inconsistencies... 	...done.

--------------------------------------------------------------
User input:
--------------------------------------------------------------
$molecule
0   1
 Fe -1428.32621556 15.94209589 37.95651993    -1  0   0   0   0
C -1426.99294518 18.32950784 36.01908552    -2  0   0   0   0 
C -1429.00720420 13.16593986 39.63604422    -2  0   0   0   0
C -1431.25165431 17.52392233 38.90957528    -2  0   0   0   0
C -1428.36163741 13.75932025 35.32981669    -2  0   0   0   0
C -1425.61124137 16.23729085 39.73713962    -2  0   0   0   0
O -1426.19479129 19.90947552 34.72951512    -3  0   0   0   0
O -1429.63443161 11.44387317 40.83759510    -3  0   0   0   0 
O -1433.37985613 18.23074397 39.34657946    -3  0   0   0   0
O -1428.37005886 12.09667872 33.84858493    -3  0   0   0   0 
O -1423.26618199 16.82241015 41.07636908    -3  0   0   0   0
H -1448.50116690 35.15817600 27.47269086      6     13    0    0    0 
C -1447.38517398 36.61309346 26.49376570     1     12    14    15    16
H -1448.36298367 38.43246365 26.43852854     6     13    0    0    0
H -1445.59629092 37.08752582 27.49075061     6     13    0    0    0
C -1447.20655298 35.57862982 23.83250933     2     13    17    18    19
H -1449.00369769 34.69006529 23.38989127     6     16    0    0    0
H -1446.78873856 37.17054465 22.50833905     6     16    0    0    0
C -1445.14984507 33.57268820 23.66712879     2     16    20   21   22
H -1443.11530415 34.22108821 23.55850860     6     19    0    0    0
H -1445.23783151 32.43851018 25.36149037     6     19    0    0    0
C -1445.35567397 31.78753968 21.14026661     2     19   23   24   25
H -1447.24029148 31.05936257 21.07935356     6    22    0    0    0
H -1444.98389416 32.96458639 19.52465301     6    22    0    0    0
C -1443.74923041 29.38533396 20.96965000     2    22   26   27   28
H -1441.76044002 29.93967614 21.06172195     6    25    0    0    0
H -1444.39812290 28.39467850 22.64869422     6    25    0    0    0
C -1444.33314294 27.67652486 18.66391924     2    25   29   30   31
H -1446.25199967 27.13868961 18.52987823     6    28    0    0    0
H -1444.22241414 28.91029153 17.00065528     6    28    0    0    0
C -1442.54175285 25.41229437 18.55862066     2    28   32   33   34
H -1440.54804069 25.94254612 18.72405537     6    31    0    0    0
H -1442.90326535 24.17765902 20.03887733     6    31    0    0    0
C -1442.91064367 23.57757839 16.27087123     2    31   35   36   37
H -1444.73478852 22.50010148 16.23782585     6    34    0    0    0
H -1442.79398112 24.75639125 14.44920138     6    34    0    0    0
C -1440.72426674 21.72662736 16.34207211     2    34   38   39   40
H -1439.17942134 22.94081648 15.84995206     6    37    0    0    0
H -1440.41304333 20.92797889 18.15182337     6    37    0    0    0
C -1440.87170855 19.63532983 14.20715179     2    37   41   42   43
H -1442.92978647 19.09279267 13.80916070     6    40    0    0    0
H -1440.21603491 20.37738760 12.43412596     6    40    0    0    0
C -1439.56311843 17.16309096 15.11053223     2    40   44   45   46
H -1437.81256493 17.66752274 15.93472298     6    43    0    0    0
H -1440.72635582 16.32691754 16.58563829     6    43    0    0    0
C -1439.12183657 15.25758505 13.04349190     1    43   47   48   49
H -1440.86935349 14.86687517 11.94027152     6    46    0    0    0
H -1438.24846023 13.68421331 14.00847357     6    46    0    0    0
H -1437.69030340 16.22041302 11.79911568     6    46    0    0    0
H -1425.33924302 14.21559037 27.93364866     6     51    0    0    0 
C -1425.26752620 15.71595929 29.44516291     1     50    52    53    54
H -1425.81024096 14.99073533 31.25878303     6     51    0    0    0
H -1423.26730904 16.41109440 29.51301180     6     51    0    0    0
C -1426.95529472 17.81639083 28.57209769     2     51    55    56    57
H -1427.25136454 19.02790654 30.16815808     6     54    0    0    0
H -1425.84417401 18.81411288 27.11771752     6     54    0    0    0
C -1429.63808176 17.10474165 27.57539646     2     54    58   59   60
H -1430.38206891 15.70552644 29.03920845     6     57    0    0    0
H -1430.94191251 18.73140240 27.78578721     6     57    0    0    0
C -1429.79056247 16.03418981 24.91094409     2     57   61   62   63
H -1429.48820335 17.43844431 23.43989584     6    60    0    0    0
H -1428.14590906 14.80033017 24.43232185     6    60    0    0    0
C -1432.23611464 14.80174676 24.19775155     2    60   64   65   66
H -1432.58543808 12.91966839 25.12573005     6    63    0    0    0
H -1433.83036025 15.90285990 24.83398717     6    63    0    0    0
C -1432.58361759 14.37702055 21.29329767     2    63   67   68   69
H -1434.44443719 13.72591996 20.81519786     6    66    0    0    0
H -1432.62582991 16.31173892 20.53430596     6    66    0    0    0
C -1430.64549523 12.67621515 19.90899545     2    66   70   71   72
H -1428.77902377 13.25878448 20.35435688     6    69    0    0    0
H -1430.94333471 10.72202520 20.75373196     6    69    0    0    0
C -1431.08581515 12.40281724 17.07198691     2    69   73   74   75
H -1433.07176121 11.62932148 16.82006656     6    72    0    0    0
H -1430.96471327 14.21389470 16.12489775     6    72    0    0    0
C -1429.10499438 10.65727223 15.84921001     2    72   76   77   78
H -1427.08757701 11.40527672 16.30677554     6    75    0    0    0
H -1429.32103113 8.79222732 16.49628956     6    75    0    0    0
C -1429.74397721 10.63048198 12.91513402     2    75   79   80   81
H -1431.80111952 10.14120941 12.82844003     6    78    0    0    0
H -1429.56439785 12.60367365 12.19713779     6    78    0    0    0
C -1428.09163757 8.83419128 11.41707183     2    78   82   83   84
H -1426.26101732 9.57820825 11.62006021     6    81    0    0    0
H -1427.87904336 7.01440748 12.41865340     6    81    0    0    0
C -1429.36301354 8.63214779 8.78376468     1    81   85   86   87
H -1427.96767948 7.49579397 7.38650946     6    84    0    0    0
H -1429.73144486 10.51270475 8.00242179     6    84    0    0    0
H -1431.17569731 7.58906593 8.78546692     6    84    0    0    0
H -1453.85094353 29.76511300 31.10559844     6     89    0    0    0 
C -1453.89102366 27.79498827 30.55607117     1     88    90    91    92
H -1452.14080596 26.82487627 30.97174637     6     89    0    0    0
H -1455.32313264 26.93809300 31.58048598     6     89    0    0    0
C -1454.33578203 27.56325616 27.68545606     2     89    93    94    95
H -1456.06280652 28.55755446 26.99354259     6     92    0    0    0
H -1452.67087551 28.61543582 26.96452938     6     92    0    0    0
C -1454.42949750 24.91944063 26.39784385     2     92    96   97   98
H -1452.65169164 23.92079436 27.08269893     6     95    0    0    0
H -1456.09676323 23.98002894 27.05325549     6     95    0    0    0
C -1454.42357227 25.37037605 23.53337528     2     95   99   100   101
H -1455.61437839 26.96323426 22.83783532     6    98    0    0    0
H -1452.43937977 25.97415245 23.33257281     6    98    0    0    0
C -1454.88896282 22.93689733 21.93885870     2    98   102   103   104
H -1454.03265236 21.31239292 22.83656473     6    101    0    0    0
H -1456.92572049 22.33125778 21.98914533     6    101    0    0    0
C -1454.02083777 23.16482062 19.19259321     2    101   105   106   107
H -1454.70358995 24.89334859 18.36753580     6    104    0    0    0
H -1451.94965134 23.37316357 18.98465845     6    104    0    0    0
C -1454.64627770 20.97694007 17.29672019     2    104   108   109   110
H -1453.44672244 19.38278377 17.89473796     6    107    0    0    0
H -1456.54000557 20.14347186 17.94870683     6    107    0    0    0
C -1454.64635758 21.59799033 14.38427171     2    107   111   112   113
H -1455.29781197 23.55972801 13.98550072     6    110    0    0    0
H -1452.82981802 21.32943710 13.66752808     6    110    0    0    0
C -1456.32356284 19.73183056 12.91558429     2    110   114   115   116
H -1455.37445163 17.90695488 12.88592835     6    113    0    0    0
H -1458.18023885 19.36443680 13.76364450     6    113    0    0    0
C -1456.60898229 20.53710671 10.09044895     2    113   117   118   119
H -1457.22794447 22.50651855 9.95665451     6    116    0    0    0
H -1454.74525829 20.58174554 9.16872190     6    116    0    0    0
C -1458.21114611 18.71828667 8.50648410     2    116   120   121   122
H -1458.03842887 19.36518079 6.57175133     6    119    0    0    0
H -1457.59271814 16.80553335 8.53454526     6    119    0    0    0
C -1460.91718452 18.69847639 9.25156572     1    119   123   124   125
H -1461.30070626 17.55868697 10.98162348     6    122    0    0    0
H -1462.08870446 17.60225964 7.85034952     6    122    0    0    0
H -1461.50109242 20.58024440 9.59797862     6    122    0    0    0
H -1462.20481178 12.58207607 55.00023909     6     127    0    0    0 
C -1460.28603899 11.74376935 54.61897529     1     126    128    129    130
H -1459.29316322 11.13397561 56.35060588     6     127    0    0    0
H -1460.69137379 9.96558209 53.49302069     6     127    0    0    0
C -1458.45972902 13.40746588 53.17337425     2     127    131    132    133
H -1459.39194692 14.32079492 51.60415299     6     130    0    0    0
H -1457.90272408 14.81401201 54.59267306     6     130    0    0    0
C -1456.19999254 11.92821678 52.27858039     2     130    134   135   136
H -1455.30036137 10.72750944 53.75757259     6     133    0    0    0
H -1456.92708248 10.64617809 50.73279109     6     133    0    0    0
C -1454.12238347 13.72740883 51.16597148     2     133   137   138   139
H -1454.98466541 14.79482916 49.64286769     6    136    0    0    0
H -1453.44253810 14.98041479 52.62161751     6    136    0    0    0
C -1451.72489176 12.36457199 50.23705783     2    136   140   141   142
H -1450.82013154 11.03386841 51.46839091     6    139    0    0    0
H -1452.41892441 11.10189138 48.59198383     6    139    0    0    0
C -1449.91561428 14.22827653 49.11976491     2    139   143   144   145
H -1450.67416972 15.26046375 47.54824107     6    142    0    0    0
H -1449.62646658 15.70540338 50.41797049     6    142    0    0    0
C -1447.31948535 12.96756400 48.36355149     2    142   146   147   148
H -1446.58647126 12.00366287 49.95748729     6    145    0    0    0
H -1447.80803413 11.53042443 46.97190781     6    145    0    0    0
C -1445.64849425 14.79036859 47.14006677     2    145   149   150   151
H -1446.74172067 15.60678740 45.59515638     6    148    0    0    0
H -1445.57514322 16.63816484 48.09393669     6    148    0    0    0
C -1442.79347575 13.89371350 46.64162030     2    148   152   153   154
H -1441.79918472 13.37517317 48.45431099     6    151    0    0    0
H -1442.85425438 12.15109213 45.56859777     6    151    0    0    0
C -1441.44813756 15.94433491 45.05592287     2    151   155   156   157
H -1439.89871263 15.11545445 44.08083507     6    154    0    0    0
H -1442.42691618 16.57284322 43.36326227     6    154    0    0    0
C -1440.45030177 18.16376548 46.65551256     2    154   158   159   160
H -1441.85359679 19.55452053 47.32143951     6    157    0    0    0
H -1439.46475335 17.53853894 48.29091160     6    157    0    0    0
C -1438.76674122 19.85100150 45.19247121     1    157   161   162   163
H -1438.02293393 21.45383033 46.13521387     6    160    0    0    0
H -1439.94100827 20.43021293 43.66565537     6    160    0    0    0
H -1437.06920057 18.97957425 44.40348938     6    160    0    0    0
H -1463.83011217 -5.05739602 31.19083909     6     165    0    0    0 
C -1464.26497149 -4.88795288 33.18146275     1     164    166    167    168
H -1464.34117780 -2.90625711 33.54508509     6     165    0    0    0
H -1466.14466309 -5.64426027 33.37181052     6     165    0    0    0
C -1462.40685936 -6.12973438 34.81544498     2     165    169    170    171
H -1461.77269771 -7.97529670 34.27627125     6     168    0    0    0
H -1460.72139819 -5.09902595 34.54890211     6     168    0    0    0
C -1463.00755219 -6.03919830 37.66767366     2     168    172   173   174
H -1464.00229959 -4.20256723 38.00741724     6     171    0    0    0
H -1464.25054542 -7.52896818 38.20653730     6     171    0    0    0
C -1460.61162892 -6.15843342 39.16496161     2     171   175   176   177
H -1459.50152988 -7.90551462 38.71578972     6    174    0    0    0
H -1459.30938817 -4.62344762 38.62051068     6    174    0    0    0
C -1460.98879094 -5.96706177 42.07437993     2    174   178   179   180
H -1462.04684849 -4.32938669 42.52672857     6    177    0    0    0
H -1462.08519851 -7.60887223 42.74992866     6    177    0    0    0
C -1458.37519110 -6.11547238 43.63024796     2    177   181   182   183
H -1457.37250851 -7.88218820 43.17710791     6    180    0    0    0
H -1457.17874879 -4.64629998 43.19808775     6    180    0    0    0
C -1458.56395267 -6.50978065 46.45379462     2    180   184   185   186
H -1459.72631490 -4.91830032 47.26402469     6    183    0    0    0
H -1459.68329418 -8.12837746 47.10211169     6    183    0    0    0
C -1456.02433193 -6.61293225 47.75525151     2    183   187   188   189
H -1454.77717932 -7.63642129 46.42397883     6    186    0    0    0
H -1455.27030587 -4.56512252 47.87973039     6    186    0    0    0
C -1456.10520306 -8.08906050 50.19744930     2    186   190   191   192
H -1456.79857303 -6.95106818 51.62664164     6    189    0    0    0
H -1457.09472165 -9.93034718 50.04083821     6    189    0    0    0
C -1453.69766238 -8.86924015 51.57240229     2    189   193   194   195
H -1452.14677112 -9.32884506 50.24140272     6    192    0    0    0
H -1453.02904632 -7.15555454 52.60439866     6    192    0    0    0
C -1454.14155986 -10.98199485 53.59405676     2    192   196   197   198
H -1455.66029402 -10.50793441 54.91286285     6    195    0    0    0
H -1454.78562136 -12.68606298 52.52395583     6    195    0    0    0
C -1451.62495564 -11.53121229 54.98035291     1    195   199   200   201
H -1452.08004619 -12.92782275 56.44922581     6    198    0    0    0
H -1450.88877053 -9.91009013 56.13538850     6    198    0    0    0
H -1450.27230310 -12.21571765 53.63003658     6    198    0    0    0
H -1446.43488633 -1.46287867 28.25835471     6     203    0    0    0 
C -1448.03150778 -2.54833465 27.75471228     1     202    204    205    206
H -1447.86572838 -4.52817192 28.26838466     6     203    0    0    0
H -1449.40737597 -1.89197509 29.20811800     6     203    0    0    0
C -1448.89358114 -2.37423202 24.91181868     2     203    207    208    209
H -1450.69240622 -3.42852660 24.63141787     6     206    0    0    0
H -1449.21066556 -0.34961556 24.43610563     6     206    0    0    0
C -1446.78927277 -3.56225491 23.17905607     2     206    210   211   212
H -1447.33017465 -3.22262331 21.17673143     6     209    0    0    0
H -1444.94484351 -2.85157305 23.55079807     6     209    0    0    0
C -1446.56638566 -6.44896606 23.73713342     2     209   213   214   215
H -1445.30205691 -6.66598393 25.54028856     6    212    0    0    0
H -1448.27991122 -7.53529778 23.88102129     6    212    0    0    0
C -1445.29206575 -7.84373578 21.65175366     2    212   216   217   218
H -1446.56943141 -7.87016957 19.93103425     6    215    0    0    0
H -1443.81529818 -6.87948160 20.83147074     6    215    0    0    0
C -1444.31064572 -10.57418233 22.55037142     2    215   219   220   221
H -1442.58194427 -10.22958527 23.66173340     6    218    0    0    0
H -1445.66797580 -11.51219673 23.75205790     6    218    0    0    0
C -1443.31437257 -12.35212590 20.37410632     2    218   222   223   224
H -1445.06422995 -12.74753659 19.33664001     6    221    0    0    0
H -1442.12051409 -11.28311462 19.03251787     6    221    0    0    0
C -1441.88603129 -14.75683969 21.19322591     2    221   225   226   227
H -1440.40294756 -13.95926919 22.54687430     6    224    0    0    0
H -1443.02328323 -16.03663450 22.09928633     6    224    0    0    0
C -1440.44824006 -16.03996573 19.06574281     2    224   228   229   230
H -1441.95242377 -16.85904529 17.92591662     6    227    0    0    0
H -1439.47079028 -14.73009933 17.76861975     6    227    0    0    0
C -1438.53893234 -18.04615552 20.02877319     2    227   231   232   233
H -1437.08048164 -16.95790713 20.95384122     6    230    0    0    0
H -1439.45687450 -19.54385123 21.23756393     6    230    0    0    0
C -1437.32304008 -19.58108433 17.79272841     2    230   234   235   236
H -1438.64882969 -21.04843948 17.07381211     6    233    0    0    0
H -1437.05361672 -18.54974706 15.94459003     6    233    0    0    0
C -1434.69577663 -20.72979737 18.53982128     1    233   237   238   239
H -1433.73726073 -21.69263100 17.00402069     6    236    0    0    0
H -1434.90865342 -22.03639935 20.03660368     6    236    0    0    0
H -1433.45581246 -19.36891415 19.24587358     6    236    0    0    0
H -1436.40661778 8.11441104 3.61691658     6     241    0    0    0 
C -1438.35700801 7.92633968 4.49894194     1     240    242    243    244
H -1439.59857680 6.94506336 3.20619989     6     241    0    0    0
H -1438.25370118 6.71660914 6.11241334     6     241    0    0    0
C -1439.36991753 10.59442085 5.45753659     2     241    245    246    247
H -1439.40448485 11.61241773 3.65864208     6     244    0    0    0
H -1441.47856057 10.48458371 5.82953898     6     244    0    0    0
C -1438.16025391 11.90468773 7.79041711     2     244    248   249   250
H -1439.26561186 13.59212502 8.28684335     6     247    0    0    0
H -1438.12921935 10.55435618 9.44409560     6     247    0    0    0
C -1435.36777193 12.81880068 7.32184036     2     247   251   252   253
H -1434.71286431 13.65519329 9.10934472     6    250    0    0    0
H -1434.13386192 11.22042860 6.85341953     6    250    0    0    0
C -1435.07034190 14.85787804 5.20520774     2    250   254   255   256
H -1436.01077302 14.21175728 3.45082088     6    253    0    0    0
H -1436.12382434 16.45724873 5.92200829     6    253    0    0    0
C -1432.30607211 15.30529640 4.40618353     2    253   257   258   259
H -1432.01943563 17.21327262 3.50221296     6    256    0    0    0
H -1431.24312982 15.67451604 6.07007918     6    256    0    0    0
C -1431.06607300 13.34430487 2.72219027     2    256   260   261   262
H -1430.98631018 11.68328822 3.63395953     6    259    0    0    0
H -1432.34746291 12.99718728 1.14452487     6    259    0    0    0
C -1428.30858531 14.00971315 1.81176339     2    259   263   264   265
H -1428.65566744 15.56302161 0.55775285     6    262    0    0    0
H -1427.01765373 14.64092046 3.26445549     6    262    0    0    0
C -1426.84813617 11.96440505 0.23808750     2    262   266   267   268
H -1426.00396946 10.73515886 1.76271150     6    265    0    0    0
H -1427.97806888 10.63446143 -0.91227834     6    265    0    0    0
C -1424.69820524 12.83098939 -1.40585344     2    265   269   270   271
H -1425.30635510 14.02700865 -2.92673602     6    268    0    0    0
H -1423.53994101 14.07468410 -0.29314979     6    268    0    0    0
C -1423.10484205 10.79388664 -2.65880492     2    268   272   273   274
H -1422.14978064 9.58052197 -1.34109423     6    271    0    0    0
H -1424.33840712 9.50469822 -3.72259363     6    271    0    0    0
C -1421.36261687 11.94534089 -4.62492057     1    271   275   276   277
H -1422.53551744 13.06386112 -5.99092921     6    274    0    0    0
H -1420.09535527 10.82398476 -5.71017860     6    274    0    0    0
H -1420.18988432 13.29541223 -3.56539948     6    274    0    0    0
H -1456.44797776 -0.10129264 18.86518512     6     279    0    0    0 
C -1455.11830861 1.03630340 17.68859014     1     278    280    281    282
H -1455.60981655 1.13275085 15.66914987     6     279    0    0    0
H -1455.18733336 2.90756379 18.46053187     6     279    0    0    0
C -1452.51491896 -0.06372540 17.81441743     2     279    283    284    285
H -1451.83450947 0.10202504 19.67425488     6     282    0    0    0
H -1452.31554454 -2.16596568 17.31451757     6     282    0    0    0
C -1450.69262446 1.13055692 15.86508008     2     282    286   287   288
H -1451.17722194 0.31338898 14.03589910     6     285    0    0    0
H -1450.70156767 3.21371794 15.94198613     6     285    0    0    0
C -1448.04865343 0.20644085 16.37528228     2     285   289   290   291
H -1447.48449606 0.96295767 18.17040105     6    288    0    0    0
H -1447.89185971 -1.76676895 16.92483237     6    288    0    0    0
C -1446.22040809 0.57028913 14.01320202     2    288   292   293   294
H -1447.23478489 0.14922025 12.31900157     6    291    0    0    0
H -1445.59407162 2.51833161 13.83022257     6    291    0    0    0
C -1443.73527074 -0.91421518 14.24125889     2    291   295   296   297
H -1443.12388012 -0.43128342 16.13141248     6    294    0    0    0
H -1444.06695831 -2.87663870 14.28350714     6    294    0    0    0
C -1441.67599455 -0.48993894 12.13996982     2    294   298   299   300
H -1442.29472873 -0.70575203 10.21839837     6    297    0    0    0
H -1441.22636490 1.57103104 12.44433385     6    297    0    0    0
C -1439.23827250 -2.06419049 12.79602559     2    297   301   302   303
H -1438.79668772 -2.00173177 14.89135468     6    300    0    0    0
H -1439.74934357 -3.96821733 12.33720638     6    300    0    0    0
C -1436.90909649 -1.22958818 11.26081817     2    300   304   305   306
H -1437.43207589 -0.78431844 9.21348237     6    303    0    0    0
H -1436.53456613 0.74539713 11.42846886     6    303    0    0    0
C -1434.31826149 -2.66968280 11.72503557     2    303   307   308   309
H -1433.49904475 -2.19524481 13.52857321     6    306    0    0    0
H -1434.74860476 -4.67556058 12.08181794     6    306    0    0    0
C -1432.50385804 -2.01650297 9.49814327     2    306   310   311   312
H -1433.52315268 -2.47535470 7.80100714     6    309    0    0    0
H -1432.20164755 -0.08218827 9.56237534     6    309    0    0    0
C -1429.91053664 -3.32993658 9.85136110     1    309   313   314   315
H -1428.78204209 -2.84345376 11.47046307     6    312    0    0    0
H -1428.67199214 -2.99369850 8.26961535     6    312    0    0    0
H -1430.27152220 -5.31869463 9.75777347     6    312    0    0    0
H -1447.73972371 13.10524121 26.82284853     6     317    0    0    0 
C -1447.28355247 11.79004202 28.30118160     1     316    318    319    320
H -1448.92340383 11.17930934 29.41234073     6     317    0    0    0
H -1446.44689627 10.41381686 27.22670140     6     317    0    0    0
C -1445.26352761 13.26454106 29.68584636     2     317    321    322    323
H -1444.73009759 11.99643376 31.13371274     6     320    0    0    0
H -1443.59952620 13.26707008 28.58482582     6     320    0    0    0
C -1446.28785218 15.96272450 30.62757821     2     320    324   325   326
H -1447.53666072 16.98294911 29.25237659     6     323    0    0    0
H -1447.79919502 15.70852101 32.08191158     6     323    0    0    0
C -1444.08396143 17.47824740 31.90879207     2     323   327   328   329
H -1443.36199904 16.35168246 33.55301143     6    326    0    0    0
H -1442.48343188 17.50991641 30.56268895     6    326    0    0    0
C -1444.92037418 20.17487559 32.92125546     2    326   330   331   332
H -1445.31644199 21.34695796 31.37371303     6    329    0    0    0
H -1446.44032912 20.09580881 34.13766132     6    329    0    0    0
C -1442.94411895 21.67129173 34.39574706     2    329   333   334   335
H -1441.50556399 22.16404110 33.01615473     6    332    0    0    0
H -1443.73745954 23.48941231 34.96063678     6    332    0    0    0
C -1441.68395055 20.21555050 36.54709200     2    332   336   337   338
H -1443.14771211 19.61343504 37.89077176     6    335    0    0    0
H -1440.95383175 18.49456247 35.94733350     6    335    0    0    0
C -1439.71679189 21.51840833 38.31093949     2    335   339   340   341
H -1438.88667122 20.31699471 39.71050994     6    338    0    0    0
H -1437.93353027 21.95614941 37.50784576     6    338    0    0    0
C -1440.73793744 23.94938298 39.42457563     2    338   342   343   344
H -1441.51308564 24.88411421 37.77806225     6    341    0    0    0
H -1442.12146837 23.60509820 40.92763718     6    341    0    0    0
C -1438.71776085 25.63713984 40.79292952     2    341   345   346   347
H -1439.67362462 27.01888613 41.93515681     6    344    0    0    0
H -1437.68564028 24.57019303 42.16863210     6    344    0    0    0
C -1436.94072194 26.80467854 38.80783143     2    344   348   349   350
H -1435.66824222 25.50305378 37.90223682     6    347    0    0    0
H -1438.04133598 27.62125214 37.27557835     6    347    0    0    0
C -1435.09097478 28.93926412 40.01160861     1    347   351   352   353
H -1433.70504541 29.88743013 38.69058834     6    350    0    0    0
H -1434.04319850 28.05095687 41.52939361     6    350    0    0    0
H -1436.11387149 30.37682474 41.04115759     6    350    0    0    0
H -1443.92969958 8.48536200 17.02307006     6     355    0    0    0 
C -1443.92592121 7.85065898 18.96648357     1     354    356    357    358
H -1442.76123163 6.16422436 18.89672545     6     355    0    0    0
H -1443.22622025 9.03201887 20.44428641     6     355    0    0    0
C -1446.68507822 7.29137445 19.29609950     2     355    359    360    361
H -1448.04599015 8.72411561 18.63801090     6     358    0    0    0
H -1447.12005758 5.65522623 18.20014245     6     358    0    0    0
C -1447.39775403 6.65409331 22.00106023     2     358    362   363   364
H -1446.16198961 5.27805133 22.75916764     6     361    0    0    0
H -1447.12683599 8.47059816 22.87251423     6     361    0    0    0
C -1450.02049478 5.64483474 22.31574101     2     361   365   366   367
H -1451.46472345 6.36206080 21.06124931     6    364    0    0    0
H -1449.93263194 3.54715812 21.90369763     6    364    0    0    0
C -1451.09917144 6.00236162 25.00939466     2    364   368   369   370
H -1449.46573905 5.46636261 26.30262095     6    367    0    0    0
H -1451.36399969 8.04381770 25.46417609     6    367    0    0    0
C -1453.62742327 4.68205013 25.53686612     2    367   371   372   373
H -1454.86230311 5.52255978 24.17614664     6    370    0    0    0
H -1453.65634476 2.63535890 25.24181801     6    370    0    0    0
C -1454.64910093 5.30802638 28.23649953     2    370   374   375   376
H -1453.29422397 4.39045420 29.59567565     6    373    0    0    0
H -1454.65144564 7.41705037 28.34364327     6    373    0    0    0
C -1457.39776480 4.42794057 28.50164022     2    373   377   378   379
H -1458.76885634 5.38020702 27.17848085     6    376    0    0    0
H -1457.24213055 2.49261117 27.77427712     6    376    0    0    0
C -1458.75928627 4.74440461 31.08939590     2    376   380   381   382
H -1458.47341560 6.67796207 31.64294836     6    379    0    0    0
H -1460.77826516 4.27912664 30.87250179     6    379    0    0    0
C -1457.59552828 2.89055695 33.02430939     2    379   383   384   385
H -1457.79548373 0.90993585 32.19174491     6    382    0    0    0
H -1455.51037551 3.27782565 33.26850759     6    382    0    0    0
C -1458.56611990 2.91874151 35.81146121     2    382   386   387   388
H -1457.56242013 1.44563988 36.90984676     6    385    0    0    0
H -1458.06827500 4.66678316 36.69930065     6    385    0    0    0
C -1461.25414180 2.18017555 36.12394634     1    385   389   390   391
H -1461.67926129 2.07223803 38.13187622     6    388    0    0    0
H -1461.51508764 0.37887529 35.36137855     6    388    0    0    0
H -1462.34598648 3.51040263 35.26237800     6    388    0    0    0
H -1418.91796747 30.68358714 51.30597448     6     393    0    0    0 
C -1417.21723285 29.96635217 50.30778847     1     392    394    395    396
H -1415.34903593 30.73393437 50.83923544     6     393    0    0    0
H -1417.06951950 27.94432420 50.14498457     6     393    0    0    0
C -1418.03503399 30.89171574 47.74857256     2     393    397    398    399
H -1419.88847920 30.62455315 47.10381991     6     396    0    0    0
H -1417.70240363 32.92777029 47.61130089     6     396    0    0    0
C -1416.22938293 29.95405595 45.74049246     2     396    400   401   402
H -1414.42840471 30.66080575 46.27084946     6     399    0    0    0
H -1415.98333846 28.00914050 45.84729439     6     399    0    0    0
C -1417.25591184 30.93465630 43.23865998     2     399   403   404   405
H -1419.07714777 30.05043170 42.77692935     6    402    0    0    0
H -1417.45187335 32.93844520 43.10687262     6    402    0    0    0
C -1415.36261095 30.19193417 41.17681396     2    402   406   407   408
H -1413.58107959 31.16486710 41.49621106     6    405    0    0    0
H -1414.64096751 28.25108236 41.46768877     6    405    0    0    0
C -1416.41243240 30.31335400 38.59803770     2    405   409   410   411
H -1418.24077736 29.33826196 38.46816936     6    408    0    0    0
H -1416.80132428 32.29230101 38.31077797     6    408    0    0    0
C -1414.28484904 29.45723865 36.58417249     2    408   412   413   414
H -1412.78882792 30.79569154 37.03697794     6    411    0    0    0
H -1413.95170312 27.47560734 37.08345915     6    411    0    0    0
C -1415.14115790 29.91610202 33.78734964     2    411   415   416   417
H -1417.02889800 28.91051253 33.64908519     6    414    0    0    0
H -1415.67902988 31.88976459 33.59432044     6    414    0    0    0
C -1413.21289892 28.99172030 31.67010978     2    414   418   419   420
H -1411.35216084 29.89507516 31.80457983     6    417    0    0    0
H -1412.83955412 27.02948588 31.91194250     6    417    0    0    0
C -1414.14095063 29.37760638 28.88750401     2    417   421   422   423
H -1415.82123140 28.23372864 28.56211915     6    420    0    0    0
H -1414.64383659 31.36022731 28.69588374     6    420    0    0    0
C -1412.06709337 28.68435230 27.04879777     2    420   424   425   426
H -1412.91297658 28.28878666 25.14746296     6    423    0    0    0
H -1410.86432362 30.37643116 26.73565561     6    423    0    0    0
C -1410.23816770 26.33529299 27.76811192     1    423   427   428   429
H -1409.20948601 27.02966331 29.39713611     6    426    0    0    0
H -1409.00824651 25.98817031 26.29283316     6    426    0    0    0
H -1411.25391798 24.50848105 28.32559245     6    426    0    0    0
H -1427.92442849 23.36295289 16.17363163     6     431    0    0    0 
C -1428.28528027 25.17691712 15.53015119     1     430    432    433    434
H -1426.76323223 25.44225050 14.19076346     6     431    0    0    0
H -1429.95816148 25.20890417 14.44450444     6     431    0    0    0
C -1428.03533979 27.35428420 17.61564974     2     431    435    436    437
H -1429.62527658 26.87392638 18.76936085     6     434    0    0    0
H -1426.34057177 26.93653382 18.63509001     6     434    0    0    0
C -1428.31020223 30.10528811 16.39574754     2     434    438   439   440
H -1427.27733942 30.53096838 14.72747663     6     437    0    0    0
H -1430.20892738 30.03335671 15.77187445     6     437    0    0    0
C -1428.01818173 32.23102375 18.29792522     2     437   441   442   443
H -1428.38445430 34.02870123 17.45662080     6    440    0    0    0
H -1429.66600613 32.05418254 19.50244586     6    440    0    0    0
C -1425.55146440 32.33364759 19.79026813     2    440   444   445   446
H -1425.41197140 30.63780223 21.01278172     6    443    0    0    0
H -1423.95471790 32.19538922 18.43808898     6    443    0    0    0
C -1425.12413488 34.68204648 21.39667335     2    443   447   448   449
H -1425.49010589 36.44877334 20.28915913     6    446    0    0    0
H -1426.67762277 34.58071569 22.83128165     6    446    0    0    0
C -1422.57251355 34.89111059 22.77989665     2    446   450   451   452
H -1422.66801676 33.38187793 24.03155179     6    449    0    0    0
H -1420.95539302 34.52834631 21.49439113     6    449    0    0    0
C -1422.34220035 37.39240079 24.20603108     2    449   453   454   455
H -1422.11848397 38.90221780 22.76751468     6    452    0    0    0
H -1423.92478604 37.96346372 25.37997505     6    452    0    0    0
C -1419.93365010 37.48070643 25.86985832     2    452   456   457   458
H -1420.09995694 36.12604210 27.28638371     6    455    0    0    0
H -1418.19224265 37.18242834 24.75345458     6    455    0    0    0
C -1419.59109517 39.98944572 27.23950576     2    455   459   460   461
H -1417.59481041 40.17078075 27.77402163     6    458    0    0    0
H -1419.86041764 41.58932604 25.89562562     6    458    0    0    0
C -1421.03408627 40.34813321 29.65309891     2    458   462   463   464
H -1423.10432211 40.40582472 29.36258240     6    461    0    0    0
H -1420.57077778 38.68110703 30.90598149     6    461    0    0    0
C -1420.05911466 42.71452469 31.00457735     1    461   465   466   467
H -1420.79150724 44.39142678 29.88782830     6    464    0    0    0
H -1418.05176597 42.99441855 31.36614317     6    464    0    0    0
H -1420.86541131 42.92913424 32.93673403     6    464    0    0    0
H -1451.29369537 17.46100571 33.88982933     6     469    0    0    0 
C -1453.16049204 18.04994791 33.37966935     1     468    470    471    472
H -1454.46832870 16.69021952 34.13896753     6     469    0    0    0
H -1453.16886488 19.94987213 34.25913546     6     469    0    0    0
C -1453.12593030 18.44891017 30.48341627     2     469    473    474    475
H -1454.78541084 19.58983873 30.22333183     6     472    0    0    0
H -1451.55463475 19.43191182 29.78283436     6     472    0    0    0
C -1453.47520189 15.94687307 29.10346388     2     472    476   477   478
H -1451.72638006 14.93331562 29.34272042     6     475    0    0    0
H -1454.97648765 14.73056549 29.83611849     6     475    0    0    0
C -1454.13215958 16.05695193 26.26497070     2     475   479   480   481
H -1455.98199798 17.01472490 26.17072053     6    478    0    0    0
H -1452.78435919 17.06384985 25.29549721     6    478    0    0    0
C -1454.33891437 13.38355019 24.99736012     2    478   482   483   484
H -1452.52348540 12.61411538 25.30407403     6    481    0    0    0
H -1455.52505914 12.00288401 25.97251211     6    481    0    0    0
C -1455.12485057 13.51560920 22.21021803     2    481   485   486   487
H -1457.20267524 13.52078940 22.25648739     6    484    0    0    0
H -1454.57309644 15.30816519 21.46008567     6    484    0    0    0
C -1454.06840236 11.51561322 20.35788975     2    484   488   489   490
H -1452.03466302 11.24973325 20.82323653     6    487    0    0    0
H -1454.53847593 9.74983782 21.09869065     6    487    0    0    0
C -1454.56460679 11.93576907 17.51864930     2    487   491   492   493
H -1456.48945974 11.59742328 16.86981963     6    490    0    0    0
H -1454.13153229 13.93317884 16.97727719     6    490    0    0    0
C -1452.60128241 10.34297809 16.13249145     2    490   494   495   496
H -1450.74351170 11.24887035 16.35279323     6    493    0    0    0
H -1452.59998066 8.45594736 17.05210449     6    493    0    0    0
C -1453.02895522 9.99965160 13.32854134     2    493   497   498   499
H -1454.78148778 8.96553891 13.02635589     6    496    0    0    0
H -1453.38154278 11.90206163 12.54824769     6    496    0    0    0
C -1450.81659898 8.34069576 12.20017318     2    496   500   501   502
H -1449.15746237 9.31297335 12.55436489     6    499    0    0    0
H -1450.58642783 6.47765637 13.20283488     6    499    0    0    0
C -1451.31497443 7.84498928 9.42952632     1    499   503   504   505
H -1451.76622505 9.55044186 8.46031513     6    502    0    0    0
H -1452.90686904 6.53567342 9.10463711     6    502    0    0    0
H -1449.71324701 7.02101386 8.62086143     6    502    0    0    0
H -1414.47508992 12.49920911 1.67426559     6     507    0    0    0 
C -1416.15312301 12.85226113 0.64775600     1     506    508    509    510
H -1415.59550408 14.09397650 -0.92203300     6     507    0    0    0
H -1416.80972016 11.09669631 -0.23386703     6     507    0    0    0
C -1418.15380631 14.32722933 2.10634895     2     507    511    512    513
H -1419.78857433 14.63406017 0.93275402     6     510    0    0    0
H -1419.00604676 13.30993303 3.60908478     6     510    0    0    0
C -1417.19172965 16.86730566 3.18465848     2     510    514   515   516
H -1415.44436812 16.29119808 4.37849615     6     513    0    0    0
H -1416.40282512 18.14796924 1.78546152     6     513    0    0    0
C -1419.03371194 18.07816569 5.11953796     2     513   517   518   519
H -1420.73806025 18.65229443 4.24153309     6    516    0    0    0
H -1419.66317000 16.69140683 6.50641102     6    516    0    0    0
C -1417.75741384 20.12464292 6.71994602     2    516   520   521   522
H -1416.10143630 19.38835702 7.59371953     6    519    0    0    0
H -1417.00597208 21.70629459 5.64979371     6    519    0    0    0
C -1419.40458132 21.04414146 8.92904096     2    519   523   524   525
H -1421.20262131 21.76677538 8.04361766     6    522    0    0    0
H -1420.30370472 19.49645870 9.97698045     6    522    0    0    0
C -1418.20348589 22.94982156 10.62042823     2    522   526   527   528
H -1416.46163887 22.18328581 11.31752519     6    525    0    0    0
H -1417.99536249 24.84651977 9.61555470     6    525    0    0    0
C -1419.71501476 23.44159975 13.00488672     2    525   529   530   531
H -1421.66846100 23.80768246 12.38542072     6    528    0    0    0
H -1419.79408285 21.70055020 14.19809289     6    528    0    0    0
C -1418.87793282 25.85168091 14.68293068     2    528   532   533   534
H -1416.82983595 26.13017955 14.66307335     6    531    0    0    0
H -1419.74042969 27.59301936 14.16822795     6    531    0    0    0
C -1419.61741577 25.41090621 17.45879267     2    531   535   536   537
H -1421.44773229 24.53519396 17.46993978     6    534    0    0    0
H -1418.08471073 24.13797534 18.00481016     6    534    0    0    0
C -1419.48206194 27.74285381 19.40005337     2    534   538   539   540
H -1418.07020840 29.11843559 18.97350153     6    537    0    0    0
H -1421.00056680 28.90161071 19.15998749     6    537    0    0    0
C -1419.30194228 26.92607740 22.25724632     1    537   541   542   543
H -1419.33262359 28.31327154 23.67899013     6    540    0    0    0
H -1417.49809210 26.03391369 22.65296693     6    540    0    0    0
H -1420.91656937 25.73457936 22.82740290     6    540    0    0    0
H -1426.77581136 29.67567359 37.70864598     6     545    0    0    0 
C -1426.30705802 28.08482477 38.92484901     1     544    546    547    548
H -1425.59482744 26.43190757 37.61645259     6     545    0    0    0
H -1424.81247493 28.67759535 40.26239240     6     545    0    0    0
C -1428.68731704 27.00328651 40.28204329     2     545    549    550    551
H -1429.74597125 28.32106712 41.41887836     6     548    0    0    0
H -1430.03063253 26.48992182 38.69593106     6     548    0    0    0
C -1427.83396221 24.56815979 41.81922890     2     548    552   553   554
H -1427.43441026 22.92157071 40.56830921     6     551    0    0    0
H -1426.21358431 25.02379157 43.10309243     6     551    0    0    0
C -1430.05155012 23.79701899 43.42821954     2     551   555   556   557
H -1430.67622149 25.25754519 44.69607011     6    554    0    0    0
H -1431.67824169 23.39940386 42.22274125     6    554    0    0    0
C -1429.23350566 21.42299278 44.89273251     2    554   558   559   560
H -1428.85209762 19.96748288 43.44517183     6    557    0    0    0
H -1427.41012300 21.68227389 45.72211636     6    557    0    0    0
C -1431.35396229 20.65928101 46.74262327     2    557   561   562   563
H -1431.85261944 22.32788602 47.75651681     6    560    0    0    0
H -1433.01955341 20.24464059 45.59312890     6    560    0    0    0
C -1430.61566663 18.34846952 48.48600843     2    560   564   565   566
H -1430.12217788 16.65690840 47.29263331     6    563    0    0    0
H -1428.84532368 18.80925155 49.49500308     6    563    0    0    0
C -1432.67574853 17.49389792 50.30049423     2    563   567   568   569
H -1433.08331581 18.96655327 51.57653957     6    566    0    0    0
H -1434.38280987 17.21075373 49.16096892     6    566    0    0    0
C -1431.99059837 14.92126296 51.64686681     2    566   570   571   572
H -1431.61128508 13.47594119 50.25176543     6    569    0    0    0
H -1430.05380617 15.03017466 52.42853076     6    569    0    0    0
C -1434.14283841 13.90376290 53.46541711     2    569   573   574   575
H -1436.08991367 13.99011676 52.61901118     6    572    0    0    0
H -1433.75458404 11.86130663 53.81280460     6    572    0    0    0
C -1434.35677182 15.14538271 56.04319090     2    572   576   577   578
H -1434.40289807 17.09482754 55.85114967     6    575    0    0    0
H -1436.28053720 14.84462757 56.81842027     6    575    0    0    0
C -1432.11377168 14.63657831 57.73961233     1    575   579   580   581
H -1432.26510573 12.66523769 58.39725029     6    578    0    0    0
H -1432.11415532 15.76456664 59.42922315     6    578    0    0    0
H -1430.23563580 14.84556959 56.74231961     6    578    0    0    0
H -1455.69357444 -5.17126949 27.47191359     6     583    0    0    0 
C -1454.55974124 -5.46785215 29.02067984     1     582    584    585    586
H -1455.13323509 -7.40226848 29.56066895     6     583    0    0    0
H -1452.48824780 -5.52781608 28.78659177     6     583    0    0    0
C -1455.19331357 -3.54354311 31.09745750     2     583    587    588    589
H -1454.32531241 -1.86562929 30.36240118     6     586    0    0    0
H -1457.24697610 -3.15844826 31.34873766     6     586    0    0    0
C -1453.90384227 -4.58993681 33.65167083     2     586    590   591   592
H -1455.15714224 -6.11011190 34.33485262     6     589    0    0    0
H -1451.96231626 -5.17858777 33.21256025     6     589    0    0    0
C -1453.70038007 -2.53329713 35.71106220     2     589   593   594   595
H -1452.22473401 -1.06951203 35.38034417     6    592    0    0    0
H -1455.47316095 -1.54858911 36.09616177     6    592    0    0    0
C -1452.57871769 -3.67850144 38.08491474     2    592   596   597   598
H -1453.34574032 -5.50687644 38.71505891     6    595    0    0    0
H -1450.57238128 -4.01348964 37.89675343     6    595    0    0    0
C -1452.60353774 -1.46667681 39.94089535     2    595   599   600   601
H -1451.14079610 0.04861125 39.27220910     6    598    0    0    0
H -1454.33496109 -0.24532379 39.84527213     6    598    0    0    0
C -1451.56734303 -2.12394114 42.62874041     2    598   602   603   604
H -1452.61948131 -3.64616931 43.59013756     6    601    0    0    0
H -1449.59546141 -2.61470515 42.58928448     6    601    0    0    0
C -1452.15969602 0.03814007 44.52198016     2    601   605   606   607
H -1451.38892395 1.69483146 43.61473255     6    604    0    0    0
H -1454.22283533 0.48471270 44.51054862     6    604    0    0    0
C -1451.02887928 -0.28834401 47.18261112     2    604   608   609   610
H -1451.47842354 -2.09332819 47.92063581     6    607    0    0    0
H -1448.96062982 -0.40841561 46.82713839     6    607    0    0    0
C -1451.69543699 2.05792404 48.90689338     2    607   611   612   613
H -1451.20013818 3.83639255 47.83235315     6    610    0    0    0
H -1453.86738778 2.13354709 49.30659820     6    610    0    0    0
C -1450.15008370 1.87561260 51.32901412     2    610   614   615   616
H -1450.77244818 0.18136978 52.28449635     6    613    0    0    0
H -1448.06964054 1.66550626 50.92787690     6    613    0    0    0
C -1450.74313665 3.82443792 53.39010119     1    613   617   618   619
H -1450.12457649 2.98292586 55.19712198     6    616    0    0    0
H -1452.92600857 4.00829337 53.72126838     6    616    0    0    0
H -1449.78162282 5.68909863 53.26352036     6    616    0    0    0
H -1413.29804634 4.91523039 28.73717040     6     621    0    0    0 
C -1413.06884347 4.82053159 30.79182546     1     620    622    623    624
H -1410.97692051 4.82399712 31.12943669     6     621    0    0    0
H -1413.60528822 6.70766695 31.55179857     6     621    0    0    0
C -1414.41135546 2.46948472 32.01882365     2     621    625    626    627
H -1414.27661428 2.60812456 34.05140028     6     624    0    0    0
H -1416.34991851 2.73125065 31.43310578     6     624    0    0    0
C -1413.58692547 -0.15885062 31.05860303     2     624    628   629   630
H -1413.12235148 0.09819379 29.02122992     6     627    0    0    0
H -1411.93715395 -0.88496434 32.07316818     6     627    0    0    0
C -1415.73279020 -2.01516927 31.26799043     2     627   631   632   633
H -1415.90435890 -2.55409809 33.20194908     6    630    0    0    0
H -1417.64866109 -1.28883360 30.58611548     6    630    0    0    0
C -1415.05905972 -4.59199303 30.05415837     2    630   634   635   636
H -1414.26314169 -4.31009079 28.15435973     6    633    0    0    0
H -1413.65411271 -5.47732410 31.35877450     6    633    0    0    0
C -1417.35959398 -6.49876176 29.88867550     2    633   637   638   639
H -1418.64176406 -6.23381365 31.52357692     6    636    0    0    0
H -1418.39971095 -5.85446149 28.21802383     6    636    0    0    0
C -1416.83717778 -9.26774835 29.62385070     2    636   640   641   642
H -1415.82098483 -9.55031804 27.81926025     6    639    0    0    0
H -1415.66576870 -9.90866112 31.24332856     6    639    0    0    0
C -1419.30757381 -10.80528763 30.03851919     2    639   643   644   645
H -1420.30516491 -10.23525709 31.80776544     6    642    0    0    0
H -1420.59877534 -9.94884760 28.67088678     6    642    0    0    0
C -1418.83134145 -13.65243820 29.68500679     2    642   646   647   648
H -1420.66703705 -14.45849946 29.39507015     6    645    0    0    0
H -1417.71162679 -14.07159085 27.96300792     6    645    0    0    0
C -1417.39331716 -14.76089405 31.82993585     2    645   649   650   651
H -1415.46663074 -14.15968624 31.91749826     6    648    0    0    0
H -1417.96138206 -14.38636644 33.64612459     6    648    0    0    0
C -1417.15638062 -17.76958678 31.53087954     2    648   652   653   654
H -1419.16437509 -18.47652692 31.45525821     6    651    0    0    0
H -1416.25991679 -18.22789556 29.79643858     6    651    0    0    0
C -1415.65522988 -18.98922251 33.79584046     1    651   655   656   657
H -1413.81654919 -18.17910813 33.95394889     6    654    0    0    0
H -1415.70081167 -21.06685096 33.75843030     6    654    0    0    0
H -1416.67998083 -18.79684190 35.56125490     6    654    0    0    0
H -1444.81883538 -3.79896993 32.90190768     6     659    0    0    0 
C -1446.14175990 -4.18000318 34.39236714     1     658    660    661    662
H -1447.87450887 -2.96804021 34.19706005     6     659    0    0    0
H -1446.84215411 -6.13164901 33.90598252     6     659    0    0    0
C -1444.82188840 -4.04385756 37.05839868     2     659    663    664    665
H -1445.92614459 -4.84216418 38.61490856     6     662    0    0    0
H -1443.22891596 -5.29418756 37.00380219     6     662    0    0    0
C -1443.61767478 -1.60427500 37.58961980     2     662    666   667   668
H -1441.80007778 -1.93965259 38.59636754     6     665    0    0    0
H -1443.21539702 -0.60685915 35.86042203     6     665    0    0    0
C -1445.30784132 -0.04981242 39.29662900     2     665   669   670   671
H -1447.08689382 -0.14505716 38.51266672     6    668    0    0    0
H -1445.33844062 -0.83416122 41.10952267     6    668    0    0    0
C -1444.47993247 2.75783786 39.43806506     2    668   672   673   674
H -1442.45743923 2.93672234 39.55640172     6    671    0    0    0
H -1444.81938520 3.64548689 37.62337201     6    671    0    0    0
C -1445.57789425 4.42011722 41.52767460     2    671   675   676   677
H -1444.84810327 6.28468392 41.23710862     6    674    0    0    0
H -1447.61721028 4.40724950 41.25082597     6    674    0    0    0
C -1445.07472449 3.72010929 44.37125623     2    674   678   679   680
H -1446.57484992 4.59540564 45.54577126     6    677    0    0    0
H -1445.09683768 1.63562742 44.47670587     6    677    0    0    0
C -1442.59303024 4.90722325 45.23665999     2    677   681   682   683
H -1441.09044394 4.84509936 43.65544213     6    680    0    0    0
H -1442.82954698 7.02591128 45.65966791     6    680    0    0    0
C -1441.63477851 3.45527393 47.58421557     2    680   684   685   686
H -1441.89391773 1.45835237 47.60081593     6    683    0    0    0
H -1439.60422986 3.62987967 47.90167172     6    683    0    0    0
C -1442.90266945 4.40416938 50.11935214     2    683   687   688   689
H -1442.43551136 6.31535012 50.59692387     6    686    0    0    0
H -1444.98401944 4.34850666 49.91133830     6    686    0    0    0
C -1442.11245622 3.02587045 52.62943826     2    686   690   691   692
H -1442.53631344 1.03117665 52.33308415     6    689    0    0    0
H -1439.93635329 3.08709352 52.89467993     6    689    0    0    0
C -1443.09586616 4.13364570 55.19250911     1    689   693   694   695
H -1442.18302569 3.22685920 56.80905830     6    692    0    0    0
H -1445.08655692 3.61577061 55.25755042     6    692    0    0    0
H -1442.68967031 6.09870946 55.43430276     6    692    0    0    0
H -1432.83671620 22.80260500 54.61997917     6     697    0    0    0 
C -1431.33884491 23.72057349 53.49975753     1     696    698    699    700
H -1429.62324215 23.79005455 54.22058423     6     697    0    0    0
H -1431.19189043 22.35360323 51.93512876     6     697    0    0    0
C -1432.20373072 26.18781591 52.23322903     2     697    701    702    703
H -1433.78128543 25.65171916 51.12430148     6     700    0    0    0
H -1433.01173171 27.44480574 53.73781319     6     700    0    0    0
C -1430.22172295 27.44791270 50.67092309     2     700    704   705   706
H -1428.35286920 27.74811833 51.60404544     6     703    0    0    0
H -1429.72895814 26.03821808 49.10685395     6     703    0    0    0
C -1431.06636685 30.06122909 49.64824052     2     703   707   708   709
H -1433.06432678 29.74550075 49.15108937     6    706    0    0    0
H -1430.78968939 31.23872818 51.20951516     6    706    0    0    0
C -1429.36360635 30.68515464 47.35362353     2    706   710   711   712
H -1427.58229647 29.67999013 47.52638947     6    709    0    0    0
H -1430.37165689 29.87515354 45.72359902     6    709    0    0    0
C -1429.10213883 33.57307815 47.07070332     2    709   713   714   715
H -1431.01444804 34.18818791 47.04653609     6    712    0    0    0
H -1428.34820538 34.47525508 48.85854169     6    712    0    0    0
C -1427.55279431 34.46871398 44.71974279     2    712   716   717   718
H -1425.54174642 33.76147929 44.84315536     6    715    0    0    0
H -1428.61144539 33.40722533 43.29970096     6    715    0    0    0
C -1427.45826270 37.27240504 44.51004073     2    715   719   720   721
H -1429.33769861 38.06169516 44.18016154     6    718    0    0    0
H -1426.79102997 38.20754377 46.09182680     6    718    0    0    0
C -1425.71015087 38.31107318 42.36746640     2    718   722   723   724
H -1423.65475408 37.63606442 42.67425840     6    721    0    0    0
H -1426.17295806 37.41131049 40.51439243     6    721    0    0    0
C -1425.61099732 41.10949794 42.13444272     2    721   725   726   727
H -1427.54391479 41.96381866 42.38011331     6    724    0    0    0
H -1424.57994554 41.80954878 43.69797863     6    724    0    0    0
C -1424.21315244 41.91643663 39.64439768     2    724   728   729   730
H -1425.16431849 40.91776492 38.19670616     6    727    0    0    0
H -1424.35098733 43.92919690 39.46311633     6    727    0    0    0
C -1421.43197865 41.38241440 39.68748123     1    727   731   732   733
H -1420.96405107 39.40353124 39.56310660     6    730    0    0    0
H -1420.59111518 41.98449694 41.48512733     6    730    0    0    0
H -1420.60063660 42.30487707 38.02701486     6    730    0    0    0
H -1444.82042491 23.86107450 24.45981995     6     735    0    0    0 
C -1446.81351972 23.45417863 24.96229331     1     734    736    737    738
H -1447.25324887 24.14214450 26.87296584     6     735    0    0    0
H -1447.98254501 24.77161920 23.82012920     6     735    0    0    0
C -1447.83083414 20.83856815 24.42488042     2     735    739    740    741
H -1447.27919399 19.71520236 26.10826484     6     738    0    0    0
H -1449.82918604 20.83129221 24.72942773     6     738    0    0    0
C -1446.73093329 19.40744160 22.06129980     2     738    742   743   744
H -1446.81954274 20.65227160 20.36999718     6     741    0    0    0
H -1444.72434417 19.04558692 22.42771897     6     741    0    0    0
C -1448.29305725 16.93673516 21.75665230     2     741   745   746   747
H -1448.47711343 15.99417180 23.53439196     6    744    0    0    0
H -1450.18549502 17.54366803 21.24410572     6    744    0    0    0
C -1447.29292525 15.20327001 19.63642021     2    744   748   749   750
H -1445.26526566 15.24819044 19.54523156     6    747    0    0    0
H -1447.67271636 13.25150392 19.95697047     6    747    0    0    0
C -1448.22731077 15.94951414 17.09244972     2    747   751   752   753
H -1450.04072567 15.44201427 16.70862042     6    750    0    0    0
H -1447.95009477 18.01333873 17.03247185     6    750    0    0    0
C -1446.74235261 14.71745628 14.92990583     2    750   754   755   756
H -1444.75527305 14.99188991 15.16278593     6    753    0    0    0
H -1446.91474703 12.68601780 15.04541681     6    753    0    0    0
C -1447.84889523 15.45052758 12.35630242     2    753   757   758   759
H -1449.94367297 15.36022039 12.38545039     6    756    0    0    0
H -1447.79045929 17.60697019 11.95070137     6    756    0    0    0
C -1446.62727940 14.42817242 9.95834163     2    756   760   761   762
H -1444.59052307 14.95401989 9.90844762     6    759    0    0    0
H -1446.84614467 12.39143505 9.89828946     6    759    0    0    0
C -1447.51253639 15.76142789 7.53112223     2    759   763   764   765
H -1449.65359680 15.87665022 7.63757476     6    762    0    0    0
H -1447.06134597 17.68196748 7.54013919     6    762    0    0    0
C -1446.43203648 14.30241143 5.29636906     2    762   766   767   768
H -1444.37758152 14.46056248 5.37086506     6    765    0    0    0
H -1446.70617964 12.34987746 5.28610419     6    765    0    0    0
C -1447.30020297 15.35858169 2.81620309     1    765   769   770   771
H -1449.29277615 14.88322463 2.48466804     6    768    0    0    0
H -1446.15272371 14.52427740 1.25637848     6    768    0    0    0
H -1446.86485929 17.29675788 2.40451907     6    768    0    0    0
H -1409.89429241 -7.41418923 24.31276855     6     773    0    0    0 
C -1408.21357719 -7.52024166 23.10374730     1     772    774    775    776
H -1406.64796806 -7.36625957 24.31465221     6     773    0    0    0
H -1408.09108251 -9.50215059 22.58215349     6     773    0    0    0
C -1408.15166009 -5.54103983 21.07667765     2     773    777    778    779
H -1406.35671078 -5.35154798 19.97578643     6     776    0    0    0
H -1409.49828076 -6.09334323 19.71144794     6     776    0    0    0
C -1409.02048621 -3.00467318 22.10893962     2     776    780   781   782
H -1410.99770093 -2.99490440 22.37275241     6     779    0    0    0
H -1408.09671865 -2.65088931 23.87899464     6     779    0    0    0
C -1408.14670447 -0.91610905 20.31137221     2     779   783   784   785
H -1406.20493761 -0.80378028 20.23254870     6    782    0    0    0
H -1408.66806998 -1.10774677 18.30241304     6    782    0    0    0
C -1408.82942737 1.69899697 21.30838733     2    782   786   787   788
H -1408.59824872 3.04683068 19.78377138     6    785    0    0    0
H -1410.82591885 1.59401881 21.78755652     6    785    0    0    0
C -1407.28279498 2.69781593 23.61312501     2    785   789   790   791
H -1408.12362067 1.84915720 25.25190629     6    788    0    0    0
H -1405.37893339 2.11584803 23.56267891     6    788    0    0    0
C -1407.70904221 5.53081303 23.64927406     2    788   792   793   794
H -1406.70460063 6.48760630 22.12380791     6    791    0    0    0
H -1409.79935971 5.91202054 23.52998026     6    791    0    0    0
C -1406.85493428 6.80898328 26.26725940     2    791   795   796   797
H -1407.92423665 5.87659233 27.76062132     6    794    0    0    0
H -1404.79210085 6.49514517 26.57685917     6    794    0    0    0
C -1407.46896784 9.57966358 26.65224377     2    794   798   799   800
H -1406.62976965 10.62854426 25.07855558     6    797    0    0    0
H -1409.48683218 9.77664192 26.15697361     6    797    0    0    0
C -1406.87396742 10.68611845 29.31934978     2    797   801   802   803
H -1408.67642539 10.79797928 30.36515249     6    800    0    0    0
H -1405.56137084 9.42032192 30.29568711     6    800    0    0    0
C -1405.60517145 13.25660883 28.92932353     2    800   804   805   806
H -1404.33190686 13.12404667 27.48102982     6    803    0    0    0
H -1407.10012977 14.58935944 28.57534902     6    803    0    0    0
C -1404.22961115 14.38525518 31.25942256     1    803   807   808   809
H -1402.63352519 13.04667463 31.72383825     6    806    0    0    0
H -1405.56353245 14.59674096 32.84963526     6    806    0    0    0
H -1403.51004014 16.27684242 30.90588115     6    806    0    0    0
H -1448.54884453 5.71703579 35.05514278     6     811    0    0    0 
C -1449.81431223 4.63796589 33.98675316     1     810    812    813    814
H -1450.95514166 3.29329370 34.85231196     6     811    0    0    0
H -1451.26869704 5.76723021 33.10166682     6     811    0    0    0
C -1448.16109201 3.29683533 32.10682327     2     811    815    816    817
H -1447.32579231 1.63244786 32.78798123     6     814    0    0    0
H -1449.53628422 2.60210084 30.89511441     6     814    0    0    0
C -1446.13136853 4.91696578 30.98669361     2     814    818   819   820
H -1447.12566436 6.55903483 29.96984446     6     817    0    0    0
H -1444.96867408 5.68816435 32.57569704     6     817    0    0    0
C -1444.25711657 3.58410204 29.11775684     2     817   821   822   823
H -1443.06926628 2.25449742 30.15522434     6    820    0    0    0
H -1445.04667837 2.42663597 27.57636274     6    820    0    0    0
C -1442.54428768 5.43558856 27.77025260     2    820   824   825   826
H -1443.83691957 6.74041485 26.72349062     6    823    0    0    0
H -1441.52929699 6.40327352 29.28097689     6    823    0    0    0
C -1440.59393207 4.47536555 25.81160958     2    823   827   828   829
H -1439.37515491 3.06660611 26.81596281     6    826    0    0    0
H -1441.34762987 3.37598926 24.35023861     6    826    0    0    0
C -1438.89048798 6.71520724 24.86878610     2    826   830   831   832
H -1439.78536373 8.23242265 23.68041671     6    829    0    0    0
H -1438.42453939 7.72377392 26.51822552     6    829    0    0    0
C -1436.52426896 5.96453637 23.57130764     2    829   833   834   835
H -1435.10954800 7.43655672 23.90178730     6    832    0    0    0
H -1435.77405321 4.32755829 24.44310344     6    832    0    0    0
C -1436.95394052 5.69880756 20.71361744     2    832   836   837   838
H -1438.16056295 4.22267102 20.48402722     6    835    0    0    0
H -1437.76593425 7.39283248 20.05752539     6    835    0    0    0
C -1434.64756958 4.96862949 19.12231807     2    835   839   840   841
H -1433.06630810 6.18696833 19.14170789     6    838    0    0    0
H -1433.82386684 3.40840746 20.13053151     6    838    0    0    0
C -1435.20835154 4.51852778 16.20394481     2    838   842   843   844
H -1436.62978454 2.92574454 16.26927089     6    841    0    0    0
H -1435.94604409 6.12456502 15.48899854     6    841    0    0    0
C -1432.83373255 3.98302214 14.57397650     1    841   845   846   847
H -1431.34755773 5.40553409 14.64436055     6    844    0    0    0
H -1433.39705489 3.80210897 12.63751563     6    844    0    0    0
H -1431.84617737 2.28717371 15.20025636     6    844    0    0    0
H -1457.30862457 2.31544551 56.34621571     6     849    0    0    0 
C -1457.20837215 2.75796737 58.41549991     1     848    850    851    852
H -1457.56397329 4.83127599 58.66614410     6     849    0    0    0
H -1458.66523544 1.57093434 59.12212545     6     849    0    0    0
C -1454.75452267 1.89250047 59.55160736     2     849    853    854    855
H -1453.20228663 3.27038123 59.27328982     6     852    0    0    0
H -1455.01725801 2.08375014 61.53930394     6     852    0    0    0
C -1453.98703907 -0.62025551 58.54621064     2     852    856   857   858
H -1455.37731697 -1.88806580 59.16719105     6     855    0    0    0
H -1454.23933986 -0.24267041 56.53316571     6     855    0    0    0
C -1451.21490948 -1.44122712 59.02281293     2     855   859   860   861
H -1449.97780444 0.20099855 58.79356712     6    858    0    0    0
H -1450.86820253 -1.65576468 61.01059501     6    858    0    0    0
C -1450.32278521 -3.52035509 57.30864609     2    858   862   863   864
H -1451.09996952 -5.36909168 57.79026949     6    861    0    0    0
H -1450.71155144 -3.19764056 55.25339759     6    861    0    0    0
C -1447.35071659 -3.81932259 57.33643863     2    861   865   866   867
H -1446.34799605 -1.94789391 57.46269460     6    864    0    0    0
H -1446.98114647 -4.73353641 59.24858348     6    864    0    0    0
C -1446.22013466 -5.74198790 55.44937554     2    864   868   869   870
H -1444.33405468 -6.38515474 55.95621633     6    867    0    0    0
H -1447.18693620 -7.52918793 55.40938057     6    867    0    0    0
C -1445.97313990 -4.63837951 52.72461968     2    867   871   872   873
H -1447.66902861 -3.87375463 52.07931345     6    870    0    0    0
H -1444.79609291 -3.00494979 52.94531996     6    870    0    0    0
C -1444.90480633 -6.54535173 50.76034044     2    870   874   875   876
H -1442.98181782 -7.21620040 51.20011191     6    873    0    0    0
H -1446.14450028 -8.24099121 50.69213200     6    873    0    0    0
C -1444.66023756 -5.56501626 48.02836285     2    873   877   878   879
H -1446.61695180 -5.14587784 47.55889720     6    876    0    0    0
H -1443.59705090 -3.83529628 48.00067383     6    876    0    0    0
C -1443.72266128 -7.68114740 46.28091033     2    876   880   881   882
H -1441.68729976 -7.84655607 46.76909039     6    879    0    0    0
H -1444.84569691 -9.44728143 46.43529540     6    879    0    0    0
C -1443.83708982 -7.00890859 43.38570356     1    879   883   884   885
H -1443.63485833 -4.96366768 42.90054782     6    882    0    0    0
H -1445.62659766 -7.80815526 42.49352867     6    882    0    0    0
H -1442.58707298 -8.36377769 42.29876022     6    882    0    0    0
H -1429.43658631 9.55688780 26.38867071     6     887    0    0    0 
C -1429.57864898 7.58172107 25.85683880     1     886    888    889    890
H -1431.00445281 7.72372775 24.48402560     6     887    0    0    0
H -1427.90645187 7.07817941 25.07194379     6     887    0    0    0
C -1430.37532708 6.02033191 28.05487927     2     887    891    892    893
H -1430.76192430 4.14375906 27.51826608     6     890    0    0    0
H -1428.78115528 5.81875123 29.30023025     6     890    0    0    0
C -1432.73878526 6.84222637 29.44072944     2     890    894   895   896
H -1432.36697765 8.67659945 30.12414859     6     893    0    0    0
H -1434.39190424 7.06681807 28.11749008     6     893    0    0    0
C -1433.29093985 5.04458303 31.62004332     2     893   897   898   899
H -1433.17594845 3.10301966 30.84084619     6    896    0    0    0
H -1431.96501337 5.27701888 33.08749482     6    896    0    0    0
C -1435.97571182 5.46204103 32.90035895     2    896   900   901   902
H -1437.25120031 5.52931166 31.34209945     6    899    0    0    0
H -1436.56728201 3.76092984 33.92586803     6    899    0    0    0
C -1436.40664820 7.86022570 34.40901458     2    899   903   904   905
H -1435.19398665 7.48743949 36.12559341     6    902    0    0    0
H -1435.26800308 9.50214154 33.77476178     6    902    0    0    0
C -1439.11737592 8.51084022 34.51469490     2    902   906   907   908
H -1439.75448076 9.10287098 32.66780377     6    905    0    0    0
H -1440.33258090 6.87141960 34.74622626     6    905    0    0    0
C -1439.77008712 10.36206308 36.61380693     2    905   909   910   911
H -1439.43132465 9.31530922 38.41681967     6    908    0    0    0
H -1438.48458749 11.96937739 36.74233171     6    908    0    0    0
C -1442.59433750 11.24857725 36.72487775     2    908   912   913   914
H -1442.81920793 12.14065997 34.85717790     6    911    0    0    0
H -1443.79614319 9.60612096 36.46588015     6    911    0    0    0
C -1443.18634874 12.94158398 38.97189309     2    911   915   916   917
H -1442.52394338 11.94336223 40.71006146     6    914    0    0    0
H -1441.82513538 14.45571658 38.92419476     6    914    0    0    0
C -1445.94152135 13.92535291 39.11628842     2    914   918   919   920
H -1446.03369389 15.86713646 39.83105284     6    917    0    0    0
H -1446.62043075 14.41674376 37.19762428     6    917    0    0    0
C -1447.93887869 12.16441242 40.04793990     1    917   921   922   923
H -1447.86930101 12.20877633 42.16632807     6    920    0    0    0
H -1447.75888881 10.41296833 39.10264515     6    920    0    0    0
H -1449.75887072 12.89168523 39.52368782     6    920    0    0    0
H -1431.56382651 -17.56120970 52.06473660     6     925    0    0    0 
C -1432.41693607 -17.24603559 50.22845584     1     924    926    927    928
H -1431.14979641 -17.52122648 48.65655636     6     925    0    0    0
H -1434.30723444 -18.11926930 50.05324180     6     925    0    0    0
C -1432.61934114 -14.35760627 49.97693626     2     925    929    930    931
H -1433.88462965 -13.39302374 51.42028204     6     928    0    0    0
H -1430.72876894 -13.46584635 50.24754630     6     928    0    0    0
C -1433.49783827 -13.52006326 47.34387988     2     928    932   933   934
H -1435.02907876 -14.57255087 46.41085556     6     931    0    0    0
H -1434.56834503 -11.87170812 47.68815017     6     931    0    0    0
C -1431.46638325 -12.63554162 45.24280312     2     931   935   936   937
H -1429.95616927 -11.51932158 46.26359372     6    934    0    0    0
H -1430.29626653 -14.11295434 44.59210542     6    934    0    0    0
C -1432.79399322 -11.25252503 43.00759345     2    934   938   939   940
H -1434.04110852 -9.71821179 43.69799324     6    937    0    0    0
H -1431.44502387 -10.12236771 41.86585742     6    937    0    0    0
C -1434.29478249 -12.99841895 41.19700404     2    937   941   942   943
H -1433.02293243 -14.22206333 39.94717032     6    940    0    0    0
H -1435.45863631 -14.20917233 42.40108117     6    940    0    0    0
C -1436.24056761 -11.61789224 39.51390078     2    940   944   945   946
H -1437.64408195 -10.51552265 40.55276998     6    943    0    0    0
H -1435.20976180 -10.27473844 38.43992092     6    943    0    0    0
C -1437.32259323 -13.12566810 37.41928881     2    943   947   948   949
H -1435.85390044 -13.75909358 36.21324213     6    946    0    0    0
H -1438.09827288 -14.91388491 38.05010254     6    946    0    0    0
C -1439.16687260 -11.57306824 35.91906868     2    946   950   951   952
H -1440.71305619 -10.99618519 37.13366952     6    949    0    0    0
H -1438.32946101 -9.81082300 35.04139043     6    949    0    0    0
C -1440.28340748 -13.24650347 33.82426697     2    949   953   954   955
H -1438.71509871 -13.84462764 32.59442070     6    952    0    0    0
H -1441.32665768 -14.94210910 34.43882639     6    952    0    0    0
C -1442.45767770 -11.88952671 32.41887346     2    952   956   957   958
H -1443.15157250 -13.29870648 31.06210541     6    955    0    0    0
H -1444.03699033 -11.57931637 33.70965752     6    955    0    0    0
C -1441.68804999 -9.35500727 31.30446824     1    955   959   960   961
H -1443.13610030 -8.41737802 29.96491189     6    958    0    0    0
H -1439.93903833 -9.48379040 30.11574449     6    958    0    0    0
H -1441.48753459 -7.94724065 32.86122688     6    958    0    0    0
H -1436.65343255 22.99003216 19.75584473     6     963    0    0    0 
C -1435.00200994 21.93108541 18.98762477     1     962    964    965    966
H -1435.64876772 20.12043027 18.27880162     6     963    0    0    0
H -1434.26355094 23.11716990 17.47975644     6     963    0    0    0
C -1433.01224084 21.66256352 21.04990811     2     963    967    968    969
H -1433.77807447 20.13582286 22.47462532     6     966    0    0    0
H -1431.24556048 20.92812187 20.23612865     6     966    0    0    0
C -1432.44405748 24.02819081 22.51034795     2     966    970   971   972
H -1432.38850385 25.73462003 21.44081243     6     969    0    0    0
H -1433.88697226 24.41428618 23.93908758     6     969    0    0    0
C -1430.05208510 23.72292845 23.98570940     2     969   973   974   975
H -1430.34511495 22.22487650 25.28359446     6    972    0    0    0
H -1428.48797504 23.06942067 22.79561118     6    972    0    0    0
C -1429.23083953 26.32261688 25.18570516     2    972   976   977   978
H -1429.25183950 27.86028834 23.72036987     6    975    0    0    0
H -1430.40770235 26.97730818 26.78170975     6    975    0    0    0
C -1426.47860922 26.29648568 25.97210203     2    975   979   980   981
H -1426.06573831 24.39850427 26.59282115     6    978    0    0    0
H -1425.30319871 26.43252604 24.26519438     6    978    0    0    0
C -1425.90090820 28.35713088 28.15636270     2    978   982   983   984
H -1426.65472902 30.16903204 27.65694579     6    981    0    0    0
H -1427.07817596 27.95277901 29.82484565     6    981    0    0    0
C -1423.17126957 28.48377207 29.24002041     2    981   985   986   987
H -1423.06386951 26.91393044 30.64552651     6    984    0    0    0
H -1421.79075984 27.87710209 27.87562022     6    984    0    0    0
C -1422.27885717 30.81677327 30.51796823     2    984   988   989   990
H -1420.35875480 30.51095624 30.83358757     6    987    0    0    0
H -1422.51264610 32.64803950 29.40105903     6    987    0    0    0
C -1423.49685539 31.23523187 33.15273288     2    987   991   992   993
H -1425.38272676 30.71014295 32.98966704     6    990    0    0    0
H -1422.91551945 29.82887994 34.64211252     6    990    0    0    0
C -1423.00438446 33.85974135 34.18600650     2    990   994   995   996
H -1420.98039344 34.03297060 34.04673224     6    993    0    0    0
H -1423.60492622 35.12351251 32.74900971     6    993    0    0    0
C -1424.01224387 34.39708915 36.75837329     1    993   997   998   999
H -1426.16318337 34.49354165 36.93263016     6    996    0    0    0
H -1423.21727771 36.13951344 37.32254733     6    996    0    0    0
H -1423.50086508 32.83557317 38.15503544     6    996    0    0    0
H -1436.27856772 22.52223614 5.25777938     6     1001    0    0    0 
C -1435.93246700 21.50772893 7.00109736     1     1000    1002    1003    1004
H -1437.46878010 20.15149058 7.33312940     6     1001    0    0    0
H -1434.33242556 20.37300399 6.94528555     6     1001    0    0    0
C -1435.47153028 23.37000269 9.13839073     2     1001    1005    1006    1007
H -1434.93992174 22.30785695 10.73174533     6     1004    0    0    0
H -1433.87165141 24.39294743 8.56053568     6     1004    0    0    0
C -1437.65587580 25.35410948 9.39541589     2     1004    1008   1009   1010
H -1437.98116215 26.34592879 7.64696980     6     1007    0    0    0
H -1439.33629741 24.20687007 9.72731669     6     1007    0    0    0
C -1437.12897036 27.24122383 11.58456753     2     1007   1011   1012   1013
H -1437.06177933 26.15675178 13.34837795     6    1010    0    0    0
H -1435.40398848 28.19610867 11.38140516     6    1010    0    0    0
C -1439.28009564 29.02809485 12.09924332     2    1010   1014   1015   1016
H -1439.81699121 29.86014652 10.30990557     6    1013    0    0    0
H -1441.00701218 28.11416217 12.96038561     6    1013    0    0    0
C -1438.58725280 31.17744381 13.97599838     2    1013   1017   1018   1019
H -1438.34266966 30.31125367 15.85056179     6    1016    0    0    0
H -1436.73983264 32.01808835 13.45317667     6    1016    0    0    0
C -1440.47120723 33.32505485 14.32166042     2    1016   1020   1021   1022
H -1440.63298333 34.17146243 12.50853503     6    1019    0    0    0
H -1442.30760924 32.68245907 15.15032759     6    1019    0    0    0
C -1439.56160276 35.58949077 15.99805837     2    1019   1023   1024   1025
H -1437.96573665 36.45826879 14.96517345     6    1022    0    0    0
H -1440.92810861 37.06971950 15.98473540     6    1022    0    0    0
C -1438.97183462 34.75057333 18.63330009     2    1022   1026   1027   1028
H -1440.62165629 33.60350834 19.57610670     6    1025    0    0    0
H -1437.70457177 33.17159713 18.45704861     6    1025    0    0    0
C -1437.79048082 36.85828400 20.24048981     2    1025   1029   1030   1031
H -1436.05600303 37.36395030 19.49425376     6    1028    0    0    0
H -1439.03949014 38.56854361 20.15485159     6    1028    0    0    0
C -1437.47560229 36.14264174 23.07355109     2    1028   1032   1033   1034
H -1437.14695565 37.85708928 24.07557526     6    1031    0    0    0
H -1439.11997592 35.14288506 23.91930206     6    1031    0    0    0
C -1435.39077661 34.19548933 23.48243804     1    1031   1035   1036   1037
H -1434.99907344 34.19359056 25.36239583     6    1034    0    0    0
H -1433.59317462 34.51000918 22.50558520     6    1034    0    0    0
H -1436.15702393 32.36381057 22.93703808     6    1034    0    0    0
H -1416.90076223 5.03528313 24.26038454     6     1039    0    0    0 
C -1415.96741865 3.26274552 23.94274345     1     1038    1040    1041    1042
H -1414.96765620 3.85899621 22.24700441     6     1039    0    0    0
H -1414.64638323 2.90536049 25.53609596     6     1039    0    0    0
C -1418.04633033 1.11845169 23.72407700     2     1039    1043    1044    1045
H -1418.58891969 0.54377016 25.63205929     6     1042    0    0    0
H -1419.65934603 1.95047351 22.77841901     6     1042    0    0    0
C -1417.18874642 -1.28533066 22.42303217     2     1042    1046   1047   1048
H -1416.23440444 -1.08432229 20.67172746     6     1045    0    0    0
H -1415.89284714 -2.28131644 23.64814834     6     1045    0    0    0
C -1419.42936223 -2.99291895 21.96905165     2     1045   1049   1050   1051
H -1420.05126797 -3.62141619 23.76894297     6    1048    0    0    0
H -1420.76247158 -1.72544804 21.17392323     6    1048    0    0    0
C -1418.72705595 -5.17973917 20.22400821     2    1048   1052   1053   1054
H -1417.91515615 -4.48008119 18.40959294     6    1051    0    0    0
H -1417.20104875 -6.24834736 21.04577831     6    1051    0    0    0
C -1420.96978587 -6.99826821 19.83456563     2    1051   1055   1056   1057
H -1421.97615469 -7.58498702 21.51624316     6    1054    0    0    0
H -1422.55232791 -6.10251711 18.71893924     6    1054    0    0    0
C -1420.27012800 -9.28522101 18.28116815     2    1054   1058   1059   1060
H -1419.11180243 -8.88129205 16.57985558     6    1057    0    0    0
H -1419.01386007 -10.56372295 19.20419756     6    1057    0    0    0
[...]
 1619      H   -1401.6436404800     2.3228141900    29.1183543200
 1620      H   -1402.4301197900     0.8540432000    32.1978835300
 1621      C   -1399.0630513300     3.2934219900    32.4328591100
 1622      H   -1398.1428420200     2.2892725000    34.0326443300
 1623      H   -1397.5954524800     4.0307881500    31.1924526300
 1624      C   -1400.5498501300     5.5476996400    33.5091837000
 1625      H   -1401.0354411400     6.7116786800    31.7275885000
 1626      H   -1402.2977883700     4.7425994800    34.1490122600
 1627      C   -1399.1623765900     7.3744051200    35.1513167500
 1628      H   -1398.3532347000     6.2809613900    36.8001731900
 1629      H   -1397.6090106100     8.1093279100    34.0427605100
 1630      C   -1400.9786202600     9.5229027600    36.0930497800
 1631      H   -1402.1038206400    10.0721683200    34.4757497800
 1632      H   -1402.3682824100     8.8637690600    37.6462650600
 1633      C   -1399.6843396900    11.8990365300    36.9730581900
 1634      H   -1398.4959223100    11.6075130800    38.7777947400
 1635      H   -1398.5771208500    12.6951173200    35.4786380600
 1636      C   -1401.7090406700    13.8654952000    37.6581262500
 1637      H   -1402.9933531800    14.0578168100    36.1322283600
 1638      H   -1402.7062746600    13.4176390500    39.4205095300
 1639      C   -1400.5593382300    16.4794201600    37.9332580300
 1640      H   -1398.9923075700    16.5585107000    39.3671432600
 1641      H   -1399.4652166000    17.0444747400    36.3131584300
 1642      C   -1402.6535982600    18.4468231600    38.2639787800
 1643      H   -1403.7175988500    18.3488448700    36.5850594000
 1644      H   -1402.2055959500    20.3177058100    38.8229873600
 1645      H   -1404.0700499800    17.5587670900    39.4644542100
 1646      H   -1408.1825131700    11.7494011000     7.6357080600
 1647      C   -1409.6298980500    12.0508139300     9.0960842400
 1648      H   -1411.5370869500    12.0394492400     8.1194105900
 1649      H   -1409.5451457500    10.3907047000    10.3494186600
 1650      C   -1409.2386445600    14.5744880200    10.3309574900
 1651      H   -1410.4633370000    14.8398005000    11.9367840500
 1652      H   -1407.4067614500    14.6209136400    11.2049824400
 1653      C   -1409.5800551600    16.8168859000     8.4536559500
 1654      H   -1408.3403216500    16.5086171000     6.7840905000
 1655      H   -1411.5260712200    17.0016351400     7.6524347700
 1656      C   -1408.5479598500    19.3573180500     9.5144750100
 1657      H   -1407.2653113300    18.9566299100    11.0618156900
 1658      H   -1407.8832634800    20.6503137000     8.0667084400
 1659      C   -1410.5806614400    20.8644337400    10.8302831400
 1660      H   -1412.0182309200    21.4999722100     9.5981085700
 1661      H   -1411.4187283900    19.5962715500    12.3284282800
 1662      C   -1409.7027905100    23.3006469500    12.1034712900
 1663      H   -1408.0761656300    22.7555294400    13.4221281400
 1664      H   -1409.0398597300    24.7420497100    10.9003771300
 1665      C   -1411.7433491000    24.5504679100    13.5563064400
 1666      H   -1413.1347524900    25.1928658900    12.1439915800
 1667      H   -1412.6908304600    23.2491774100    14.8562828900
 1668      C   -1410.6488990600    26.9832393000    14.9676695200
 1669      H   -1409.1579563300    26.0708434600    15.9692474000
 1670      H   -1409.5463659500    28.3424828800    13.9028254200
 1671      C   -1412.4058869100    28.3502630100    16.8687516200
 1672      H   -1414.0533811000    29.0427616800    15.8753597500
 1673      H   -1413.0760907800    26.7471438900    17.9114090100
 1674      C   -1411.2440080700    30.4954998700    18.2100129400
 1675      H   -1409.6952504200    29.7654236400    19.2999990800
 1676      H   -1410.4975545600    31.7651790700    16.7240257300
 1677      C   -1413.2446968500    31.7119183200    20.0942667500
 1678      H   -1415.0964192500    31.9809624200    19.2965141400
 1679      H   -1413.4427928500    30.2838242200    21.7256286300
 1680      C   -1412.2249263800    34.0028016900    21.5056418600
 1681      H   -1413.1943243500    34.7006863000    23.1904030900
 1682      H   -1412.1862153800    35.6433448100    20.2067946800
 1683      H   -1410.1990000400    33.9307812600    22.0850661700
 1684      H   -1430.0950841800    18.6111648600     9.7749336600
 1685      C   -1427.9995116100    18.8992000100     9.7446345800
 1686      H   -1426.9879792300    17.5129789400     8.6493314500
 1687      H   -1427.2511135100    20.6250568900     9.1584817400
 1688      C   -1427.2740547200    18.3732779400    12.4979643600
 1689      H   -1428.3085113900    19.6451246000    13.7125353300
 1690      H   -1428.3484606100    16.7139804900    12.8352774700
 1691      C   -1424.5046798300    18.1301190100    13.0129269500
 1692      H   -1424.0266373500    16.7711713200    11.4271328900
 1693      H   -1423.7737207400    19.9275046600    12.7526932500
 1694      C   -1423.8576542000    16.7304305500    15.5303025400
 1695      H   -1424.9974568900    14.9725247500    15.4644593700
 1696      H   -1421.8232188400    16.1594460400    15.5611242400
 1697      C   -1424.5723023900    18.5263975500    17.6807810600
 1698      H   -1423.6841809800    20.2868319400    17.9210701900
 1699      H   -1426.4358365700    19.0262240300    17.3264738600
 1700      C   -1424.3271229800    17.1429828400    20.1738860800
 1701      H   -1425.2782429600    18.1557068100    21.6708987100
 1702      H   -1425.1250080500    15.3634714000    19.9476443200
 1703      C   -1421.4530354900    16.6628707300    20.9243745500
 1704      H   -1420.4929481800    15.5750618400    19.4008850500
 1705      H   -1420.3986968100    18.5656115400    21.1975691200
 1706      C   -1421.4069624900    14.8923529500    23.3005562600
 1707      H   -1422.3819576600    15.7957507800    24.8454433700
 1708      H   -1422.5543210900    13.2743782700    22.7307761000
 1709      C   -1418.8342555600    13.7774378600    23.9590922900
 1710      H   -1417.9690068400    12.7367090500    22.4198468400
 1711      H   -1417.6365821500    15.3710608900    24.3962292100
 1712      C   -1418.9317964400    12.0852701600    26.2950025800
 1713      H   -1419.4143975000    13.5041734200    27.8278854200
 1714      H   -1420.6291913500    10.8055900300    26.0924915200
 1715      C   -1416.6070356500    10.8620972800    27.1196235700
 1716      H   -1417.0710439200     9.3466725800    28.5698322700
 1717      H   -1415.6867792900    10.0614512500    25.3447330500
 1718      C   -1414.7037879700    12.6398918100    28.4061120200
 1719      H   -1414.2274586400    14.2880912900    27.2321549600
 1720      H   -1412.9024531300    11.7106234200    28.9697551400
 1721      H   -1415.7892829000    13.4219201600    30.0524877700
 1722      H   -1433.6455326000    41.0892990500    37.3631118300
 1723      C   -1431.8592195600    41.5357835000    36.3579587200
 1724      H   -1432.3202655700    42.7254140700    34.7851759300
 1725      H   -1430.7318634900    42.6614183000    37.6616897000
 1726      C   -1430.2491128300    39.1574872200    35.5993007600
 1727      H   -1428.5455831300    39.9808313200    34.6993220400
 1728      H   -1429.5670905400    37.8531588200    37.1275120900
 1729      C   -1431.7574957600    37.5486639400    33.8175655800
 1730      H   -1433.6821702700    37.6176165900    34.4561202800
 1731      H   -1431.9055743700    38.2010746500    31.8640073000
 1732      C   -1430.7913459400    34.8753684000    33.7093174800
 1733      H   -1429.0778300700    34.9407404800    32.4711997600
 1734      H   -1430.2022614300    34.1004644800    35.4530239100
 1735      C   -1432.6840962400    32.9969709400    32.6270163200
 1736      H   -1434.5130913700    32.7405045000    33.8598019600
 1737      H   -1433.6623850200    33.7152283900    30.9291996500
 1738      C   -1431.3460128400    30.4134294300    32.4069408800
 1739      H   -1430.1230213200    30.3113802200    30.8888275200
 1740      H   -1430.0786247900    30.2537714700    34.0173556000
 1741      C   -1433.2666043200    28.4166947000    31.7741269600
 1742      H   -1434.9077267200    28.6718755900    32.9467933500
 1743      H   -1433.8444228400    28.6905833500    29.8506834800
 1744      C   -1432.3755437200    25.7063978100    32.4124091500
 1745      H   -1430.6088566400    25.2599551100    31.5504808800
 1746      H   -1432.0935682700    25.5990525000    34.4585259600
 1747      C   -1434.3766952400    23.7111084500    31.6113706200
 1748      H   -1436.2690827100    24.2170120200    32.2441724500
 1749      H   -1434.6975754700    23.7370619500    29.5398220200
 1750      C   -1433.6511045600    20.9971212600    32.5725118100
 1751      H   -1431.7321279000    20.6869507100    32.0025885900
 1752      H   -1433.4480075400    20.8678799700    34.6652973000
 1753      C   -1435.3529078000    18.7514935000    31.6866788900
 1754      H   -1437.3503601800    19.1135616800    32.1214893500
 1755      H   -1435.2869629700    18.5856503700    29.6501881100
 1756      C   -1434.6550450400    16.1624406600    32.7324267700
 1757      H   -1435.7945169200    15.8815770300    34.4551600100
 1758      H   -1432.6637035100    16.1145653700    33.2322254300
 1759      H   -1434.9179842900    14.8585834600    31.3307261200
 1760      H   -1443.8706968400    29.2187632200    35.1722229500
 1761      C   -1445.2817648100    29.2901537100    36.7411106600
 1762      H   -1446.7968833400    30.7530613200    36.1802872900
 1763      H   -1446.2462608400    27.4349389700    36.5947516300
 1764      C   -1444.2785707600    30.2406026600    39.3559063000
 1765      H   -1442.7360212400    28.9704397400    39.7267948100
 1766      H   -1443.9178716700    32.2154401100    39.1386193200
 1767      C   -1446.1536388900    29.8731789600    41.5477035600
 1768      H   -1447.6799082100    31.0728263300    40.9313782200
 1769      H   -1446.6883254900    27.9213130400    41.6099345400
 1770      C   -1445.0907291000    30.8227491300    44.1411457400
 1771      H   -1443.3585755700    29.5945270700    44.3089727300
 1772      H   -1444.4356461700    32.7899210000    44.0673661200
 1773      C   -1446.9707679900    30.2356828200    46.3836736900
 1774      H   -1448.7172441000    31.4256807900    46.2451447400
 1775      H   -1447.8390323100    28.2575745300    46.5325200400
 1776      C   -1445.9064703300    31.0212579900    48.9215197900
 1777      H   -1444.5124467800    29.6164374900    49.4871813700
 1778      H   -1445.1077408000    32.8682422600    48.5429071000
 1779      C   -1447.9311921600    31.0937893600    50.9358996300
 1780      H   -1449.6976068300    31.7149804700    50.0178839700
 1781      H   -1448.1879399900    29.3164595000    51.8020910800
 1782      C   -1447.6199151900    33.1648643000    52.9044517800
 1783      H   -1447.2232234800    34.9417279500    51.8890022000
 1784      H   -1449.4356110100    33.4743116600    53.8278697900
 1785      C   -1445.4813484200    32.4289381600    54.8955753600
 1786      H   -1446.1173629800    30.8527884400    55.9852012200
 1787      H   -1443.7015012000    31.8365619600    54.1632755100
 1788      C   -1444.9709619900    34.5961208400    56.7240610900
 1789      H   -1444.5724790400    36.3595194700    55.9401818200
 1790      H   -1446.8273253400    35.0244936000    57.8392016100
 1791      C   -1443.0719518800    34.2012424500    58.8510204600
 1792      H   -1443.5172618400    32.6377835000    59.8678625900
 1793      H   -1441.0496806600    34.0906985900    57.9893805200
 1794      C   -1443.0382739800    36.5920600500    60.4844515500
 1795      H   -1444.9899951900    37.1668041500    60.8035770900
 1796      H   -1442.1558572500    38.2813732100    59.6759639500
 1797      H   -1442.1424708500    36.2001647800    62.3370389500
 1798      H   -1413.8404883100    -5.1837866100    40.9512313600
 1799      C   -1415.2490399000    -5.8541385100    39.4749323700
 1800      H   -1414.5750721000    -5.2476203000    37.6599869900
 1801      H   -1415.1679244000    -7.9501602000    39.5545858100
 1802      C   -1417.9280881700    -4.7708941000    39.9361950600
 1803      H   -1418.9259282000    -5.7598226800    41.4882272700
 1804      H   -1417.7827731300    -2.9002628200    40.8312740500
 1805      C   -1419.4687785400    -4.8071750100    37.5248592200
 1806      H   -1418.6949638200    -3.8282520000    35.8953138300
 1807      H   -1419.5544818400    -6.8542133800    36.8890976400
 1808      C   -1422.2533049700    -3.9910505400    37.9807158900
 1809      H   -1423.0264158900    -4.8236441900    39.7225647900
 1810      H   -1422.5713275800    -1.9521199700    38.1299656000
 1811      C   -1424.0964450000    -4.8257963200    35.9877591600
 1812      H   -1423.8669469100    -4.0707520500    34.1205639000
 1813      H   -1423.8410324500    -6.8406890900    35.6423081100
 1814      C   -1426.8851853300    -4.2493241300    36.9128516200
 1815      H   -1427.2223084100    -5.2212596300    38.6615970200
 1816      H   -1427.0186950200    -2.2366274700    37.1491473100
 1817      C   -1428.8709087500    -5.3468803700    35.1291581900
 1818      H   -1428.2212165200    -4.5611427100    33.4646929600
 1819      H   -1428.8377030100    -7.3597988000    35.0559785100
 1820      C   -1431.4262036800    -4.0081802500    35.6058641100
 1821      H   -1432.4288683700    -4.8013435100    37.1837972100
 1822      H   -1431.2686390800    -2.0897519300    36.0355534100
 1823      C   -1433.1913652800    -4.2568328500    33.1886583200
 1824      H   -1431.9852943700    -3.7214373300    31.4510399800
 1825      H   -1433.6421401800    -6.2021686200    32.7896286900
 1826      C   -1435.7045104100    -2.7584648800    33.4417507400
 1827      H   -1437.0111348700    -3.3234124600    35.1268620700
 1828      H   -1435.4121755900    -0.5805427700    33.5608128100
 1829      C   -1437.5513938600    -3.3800489000    31.3644044100
 1830      H   -1436.4739713400    -3.5744184400    29.6250923100
 1831      H   -1438.2698989400    -5.2612513200    31.5827997900
 1832      C   -1439.7546765700    -1.3836363000    31.0509123300
 1833      H   -1441.4298324000    -1.9214716300    29.9805413300
 1834      H   -1439.0289122000     0.5161655200    30.4102802500
 1835      H   -1440.3803189600    -1.1375668600    32.9146295000
 1836      H   -1435.8230095000     3.4792802200    38.3825853400
 1837      C   -1436.6414093300     1.6615689900    38.8117649500
 1838      H   -1438.5795988700     1.5288307300    37.9812055900
 1839      H   -1435.6400466700     0.1286478700    37.9814994700
 1840      C   -1436.8143476900     1.3353031100    41.6934460900
 1841      H   -1435.1114585400     1.8808356300    42.5493073600
 1842      H   -1438.2672606200     2.7057418700    42.4383558500
 1843      C   -1437.8144464100    -1.1749665500    42.9092116300
 1844      H   -1439.7870598200    -1.1149570500    43.0853190900
 1845      H   -1437.3352262700    -2.8279795800    41.5781372100
 1846      C   -1436.6070261400    -1.5871908700    45.5000712900
 1847      H   -1434.5450459900    -1.3548557700    45.4138803800
 1848      H   -1437.2500533200    -0.1588381800    46.8894423700
 1849      C   -1437.5377791000    -3.9968751000    46.8260715300
 1850      H   -1439.5662734900    -4.2114407000    46.3223000700
 1851      H   -1436.6145555000    -5.7950833300    46.0614725700
 1852      C   -1437.3952186200    -3.9167373400    49.7588981900
 1853      H   -1439.1646092300    -2.9460455600    50.4260778900
 1854      H   -1437.6676584300    -5.8739453900    50.5106297600
 1855      C   -1434.9683316600    -2.9282981300    51.1012703900
 1856      H   -1433.5415418300    -3.4933891700    49.8430906700
 1857      H   -1434.7966806600    -0.8386140900    51.0601567700
 1858      C   -1434.6955798000    -3.8034730800    53.8532028200
 1859      H   -1435.3079920800    -5.7280481900    53.9590438200
 1860      H   -1432.6431662700    -3.7883809100    54.4128857000
 1861      C   -1436.0647866500    -2.4059685200    55.8439439600
 1862      H   -1435.5778678700    -0.4945962100    56.0652356400
 1863      H   -1438.1460075500    -2.2561368200    55.4058472600
 1864      C   -1435.5020230600    -3.7775442300    58.2720649600
 1865      H   -1436.2997907500    -5.7005052800    57.8727939700
 1866      H   -1433.4661837900    -3.8852452100    58.7437197400
 1867      C   -1436.8598201400    -2.8288806000    60.6695547300
 1868      H   -1436.0829840800    -0.9395502700    61.0525129100
 1869      H   -1438.9540676600    -2.6668915500    60.2675512400
 1870      C   -1436.4136266300    -4.5644414100    63.0558233100
 1871      H   -1437.8085430500    -6.2270152700    62.9954014600
 1872      H   -1436.7726501500    -3.5713190900    64.7931669700
 1873      H   -1434.5471899700    -5.4500104200    62.9501243600
 1874      H   -1423.2242218900    22.2198145700    54.5834343700
 1875      C   -1421.7218756300    22.7587052900    53.3049300100
 1876      H   -1420.7069426500    24.3021495000    54.1993510600
 1877      H   -1420.4179901700    21.2897151100    53.3726099800
 1878      C   -1422.4339552400    23.5051096100    50.6763510400
 1879      H   -1424.0466754800    22.3758241000    50.1925656500
 1880      H   -1422.8444557600    25.5069709100    50.6977619900
 1881      C   -1420.4165659900    22.9263402600    48.6379820400
 1882      H   -1418.7290843000    24.0343376000    49.3321366800
 1883      H   -1419.9787921500    21.0199075700    48.6884821000
 1884      C   -1421.3737275500    23.7683123300    45.9763114700
 1885      H   -1423.3055736100    23.3585245500    45.4967261900
 1886      H   -1421.2934999000    25.8317404100    45.6904622800
 1887      C   -1419.6876354900    22.6886683000    43.8596877900
 1888      H   -1417.5985811600    23.0147671800    44.0204387200
 1889      H   -1419.8364726700    20.6086514400    43.9887670700
 1890      C   -1420.6426928600    23.6205157100    41.3246894200
 1891      H   -1422.5457234600    22.9657380800    41.1133007500
 1892      H   -1420.5615720900    25.8353816900    41.3062547600
 1893      C   -1419.4354723100    22.1902869300    39.1484406000
 1894      H   -1417.3621271300    22.3280097700    39.1689243300
 1895      H   -1419.6541082300    20.2489035300    39.3454416700
 1896      C   -1420.4520345600    22.9587492100    36.4735993600
 1897      H   -1422.5002881600    22.6233937300    36.2439885300
 1898      H   -1420.2684653500    24.9833930400    36.2320469200
 1899      C   -1419.2228506200    21.5171774800    34.4016682400
 1900      H   -1417.1104557500    21.6691787700    34.8828270200
 1901      H   -1419.8740709300    19.5308611900    34.6113284600
 1902      C   -1419.9181501200    22.4985922300    31.7202416200
 1903      H   -1421.9258154200    22.4204448700    31.2988667600
 1904      H   -1419.4786092200    24.5051069500    31.6070448000
 1905      C   -1418.3388196500    21.1514928500    29.6269184300
 1906      H   -1416.3569030000    21.3868647900    29.8936711800
 1907      H   -1418.5158087500    19.0606708600    29.8599325600
 1908      C   -1419.0549506300    22.4067170900    27.1781208700
 1909      H   -1418.6974567200    24.4669970600    27.0831140700
 1910      H   -1421.1879844200    22.2567698100    26.9053217500
 1911      H   -1418.3551825500    21.5716149000    25.5145062200
 ----------------------------------------------------------------
 Nuclear Repulsion Energy =           0.00000000 hartrees
 There are       48 alpha and       48 beta electrons
 Total job time:  120.83s(wall), 238.31s(cpu) 
 Wed Jun 22 08:07:43 2022

        *************************************************************
        *                                                           *
        *  Thank you very much for using Q-Chem.  Have a nice day.  *
        *                                                           *
        *************************************************************


