                  Welcome to Q-Chem
     A Quantum Leap Into The Future Of Chemistry


 Q-Chem 5.4 (devel), Q-Chem, Inc., Pleasanton, CA (2021)

 E. Epifanovsky,  A. T. B. Gilbert,  Xintian Feng,  Joonho Lee,  Yuezhi Mao,  
 N. Mardirossian,  P. Pokhilko,  A. White,  M. Wormit,  M. P. Coons,  
 A. L. Dempwolff,  Zhengting Gan,  D. Hait,  P. R. Horn,  L. D. Jacobson,  
 I. Kaliman,  J. Kussmann,  A. W. Lange,  Ka Un Lao,  D. S. Levine,  Jie Liu,  
 S. C. McKenzie,  A. F. Morrison,  K. Nanda,  F. Plasser,  D. R. Rehn,  
 M. L. Vidal,  Zhi-Qiang You,  Ying Zhu,  B. Alam,  B. Albrecht,  
 A. Aldossary,  E. Alguire,  J. H. Andersen,  D. Barton,  K. Begam,  A. Behn,  
 Y. A. Bernard,  E. J. Berquist,  H. Burton,  A. Carreras,  K. Carter-Fenk,  
 R. Chakraborty,  A. D. Chien,  K. D. Closser,  V. Cofer-Shabica,  
 S. Dasgupta,  Jia Deng,  M. de Wergifosse,  M. Diedenhofen,  Hainam Do,  
 S. Ehlert,  Po-Tung Fang,  S. Fatehi,  Qingguo Feng,  T. Friedhoff,  
 J. Gayvert,  Qinghui Ge,  G. Gidofalvi,  M. Goldey,  J. Gomes,  
 C. Gonzalez-Espinoza,  S. Gulania,  A. Gunina,  M. W. D. Hanson-Heine,  
 P. H. P. Harbach,  A. W. Hauser,  M. F. Herbst,  M. Hernandez Vera,  
 M. Hodecker,  Z. C. Holden,  S. Houck,  Xunkun Huang,  Kerwin Hui,  
 B. C. Huynh,  M. Ivanov,  Hyunjun Ji,  Hanjie Jiang,  B. Kaduk,  S. Kaehler,  
 K. Khistyaev,  Jaehoon Kim,  P. Klunzinger,  Z. Koczor-Benda,  
 Joong Hoon Koh,  D. Kosenkov,  L. Koulias,  T. Kowalczyk,  C. M. Krauter,  
 K. Kue,  A. Kunitsa,  T. Kus,  A. Landau,  K. V. Lawler,  D. Lefrancois,  
 S. Lehtola,  Rain Li,  Yi-Pei Li,  Jiashu Liang,  M. Liebenthal,  
 Hung-Hsuan Lin,  You-Sheng Lin,  Fenglai Liu,  Kuan-Yu Liu,  
 M. Loipersberger,  A. Luenser,  A. Manjanath,  P. Manohar,  E. Mansoor,  
 S. F. Manzer,  Shan-Ping Mao,  A. V. Marenich,  T. Markovich,  S. Mason,  
 S. A. Maurer,  P. F. McLaughlin,  M. F. S. J. Menger,  J.-M. Mewes,  
 S. A. Mewes,  P. Morgante,  J. W. Mullinax,  K. J. Oosterbaan,  G. Paran,  
 Alexander C. Paul,  Suranjan K. Paul,  F. Pavosevic,  Zheng Pei,  S. Prager,  
 E. I. Proynov,  E. Ramos,  B. Rana,  A. E. Rask,  A. Rettig,  R. M. Richard,  
 F. Rob,  E. Rossomme,  T. Scheele,  M. Scheurer,  M. Schneider,  
 N. Sergueev,  S. M. Sharada,  W. Skomorowski,  D. W. Small,  C. J. Stein,  
 Yu-Chuan Su,  E. J. Sundstrom,  Zhen Tao,  J. Thirman,  T. Tsuchimochi,  
 N. M. Tubman,  S. P. Veccham,  O. Vydrov,  J. Wenzel,  J. Witte,  A. Yamada,  
 Kun Yao,  S. Yeganeh,  S. R. Yost,  A. Zech,  Igor Ying Zhang,  Xing Zhang,  
 Yu Zhang,  D. Zuev,  A. Aspuru-Guzik,  A. T. Bell,  N. A. Besley,  
 K. B. Bravaya,  B. R. Brooks,  D. Casanova,  Jeng-Da Chai,  S. Coriani,  
 C. J. Cramer,  A. E. DePrince, III,  R. A. DiStasio Jr.,  A. Dreuw,  
 B. D. Dunietz,  T. R. Furlani,  W. A. Goddard III,  S. Grimme,  
 S. Hammes-Schiffer,  T. Head-Gordon,  W. J. Hehre,  Chao-Ping Hsu,  
 T.-C. Jagau,  Yousung Jung,  A. Klamt,  Jing Kong,  D. S. Lambrecht,  
 WanZhen Liang,  N. J. Mayhall,  C. W. McCurdy,  J. B. Neaton,  
 C. Ochsenfeld,  J. A. Parkhill,  R. Peverati,  V. A. Rassolov,  Yihan Shao,  
 L. V. Slipchenko,  T. Stauch,  R. P. Steele,  J. E. Subotnik,  
 A. J. W. Thom,  A. Tkatchenko,  D. G. Truhlar,  T. Van Voorhis,  
 T. A. Wesolowski,  K. B. Whaley,  H. L. Woodcock III,  P. M. Zimmerman,  
 S. Faraji,  P. M. W. Gill,  M. Head-Gordon,  J. M. Herbert,  A. I. Krylov

 Additional authors for Version 5.4.1: 
 S. Kotaru,  Shaozhi Li,  Xiangyuan Li,  F. Matz,  A. Molle,  Haisheng Ren,  
 Yingli Su,  Hung-Yi Tsai,  C. Utku,  Fang Wang

 Contributors to earlier versions of Q-Chem not listed above: 
 R. D. Adamson,  B. Austin,  R. Baer,  J. Baker,  G. J. O. Beran,  
 K. Brandhorst,  S. T. Brown,  E. F. C. Byrd,  A. K. Chakraborty,  
 G. K. L. Chan,  Chun-Min Chang,  Yunqing Chen,  C.-L. Cheng,  
 Siu Hung Chien,  D. M. Chipman,  D. L. Crittenden,  H. Dachsel,  
 R. J. Doerksen,  A. D. Dutoi,  R. G. Edgar,  J. Fosso-Tande,  
 L. Fusti-Molnar,  D. Ghosh,  A. Ghysels,  A. Golubeva-Zadorozhnaya,  
 J. Gonthier,  M. S. Gordon,  S. R. Gwaltney,  G. Hawkins,  J. E. Herr,  
 A. Heyden,  S. Hirata,  E. G. Hohenstein,  G. Kedziora,  F. J. Keil,  
 C. Kelley,  Jihan Kim,  R. A. King,  R. Z. Khaliullin,  P. P. Korambath,  
 W. Kurlancheek,  A. Laurent,  A. M. Lee,  M. S. Lee,  S. V. Levchenko,  
 Ching Yeh Lin,  D. Liotard,  E. Livshits,  R. C. Lochan,  I. Lotan,  
 L. A. Martinez-Martinez,  P. E. Maslen,  N. Nair,  D. P. O'Neill,  
 D. Neuhauser,  E. Neuscamman,  C. M. Oana,  R. Olivares-Amaya,  R. Olson,  
 T. M. Perrine,  B. Peters,  P. A. Pieniazek,  A. Prociuk,  Y. M. Rhee,  
 J. Ritchie,  M. A. Rohrdanz,  E. Rosta,  N. J. Russ,  H. F. Schaefer III,  
 M. W. Schmidt,  N. E. Schultz,  S. Sharma,  N. Shenvi,  C. D. Sherrill,  
 A. C. Simmonett,  A. Sodt,  T. Stein,  D. Stuck,  K. S. Thanthiriwatte,  
 V. Vanovschi,  L. Vogt,  Tao Wang,  A. Warshel,  M. A. Watson,  
 C. F. Williams,  Q. Wu,  X. Xu,  Jun Yang,  W. Zhang,  Yan Zhao

 Please cite Q-Chem as follows:
 Y. Shao et al., Mol. Phys. 113, 184-215 (2015)
 DOI: 10.1080/00268976.2014.952696

 Q-Chem 5.4.1 for Intel X86 EM64T Linux

 Parts of Q-Chem use Armadillo 9.900.5 (Nocturnal Misbehaviour).
 http://arma.sourceforge.net/

 Q-Chem begins on Wed Jun 22 08:05:25 2022  

 Host: p09r16n04.grace.hpc.yale.internal
0

     Scratch files written to /home/tl686/scratch60/qchem_dev/scratch/qchem69310//
 Processing $rem in /home/tl686/qchem_dev/qchem/config/preferences:
 Processing $rem in /home/tl686/.qchemrc:
Applying user defined connections for MM calculations

 Checking the input file for inconsistencies... 	...done.

--------------------------------------------------------------
User input:
--------------------------------------------------------------
$molecule
0   1
 Fe -635.18608904 -47.37627197 -27.93206410    -1  0   0   0   0
C -634.70920994 -50.72540725 -28.00743847    -2  0   0   0   0 
C -635.39664982 -43.97159485 -27.68832215    -2  0   0   0   0
C -635.40569457 -47.25912091 -31.21310823    -2  0   0   0   0
C -638.03341334 -47.86781810 -26.39502025    -2  0   0   0   0
C -631.77680905 -46.94331775 -26.78347514    -2  0   0   0   0
O -634.22776798 -52.91665049 -28.09409037    -3  0   0   0   0
O -635.45601307 -41.82835415 -27.54472459    -3  0   0   0   0 
O -635.29998625 -47.17857126 -33.46382140    -3  0   0   0   0
O -639.94442967 -48.52819380 -25.14094044    -3  0   0   0   0 
O -629.80013926 -46.42365858 -26.40583681    -3  0   0   0   0
H -639.66736164 -64.70648631 -49.33714130      6     13    0    0    0 
C -639.46166850 -66.77317254 -48.88711262     1     12    14    15    16
H -639.03355429 -67.80362753 -50.58754174     6     13    0    0    0
H -637.81905990 -66.77403973 -47.66049380     6     13    0    0    0
C -641.95040204 -67.75018880 -47.81878172     2     13    17    18    19
H -643.36386574 -67.49347193 -49.45724107     6     16    0    0    0
H -641.80971859 -69.77273349 -47.35943987     6     16    0    0    0
C -642.99485066 -66.54121336 -45.57073078     2     16    20   21   22
H -641.37692418 -65.97141596 -44.32711307     6     19    0    0    0
H -643.47577262 -64.63233061 -46.15058900     6     19    0    0    0
C -645.08308455 -68.01757281 -44.25082910     2     19   23   24   25
H -646.64318800 -68.45443060 -45.65420086     6    22    0    0    0
H -644.03186821 -69.68024635 -43.51235643     6    22    0    0    0
C -646.13236075 -66.36220362 -42.11299804     2    22   26   27   28
H -644.52755984 -65.75981610 -41.01193254     6    25    0    0    0
H -647.21356836 -64.78141551 -42.77738553     6    25    0    0    0
C -647.73262516 -67.80042920 -40.15413049     2    25   29   30   31
H -649.68067922 -67.77880779 -40.94767350     6    28    0    0    0
H -647.00419876 -69.73882156 -39.91331858     6    28    0    0    0
C -647.88083223 -66.35975288 -37.69014284     2    28   32   33   34
H -645.93555316 -66.10313476 -37.02366876     6    31    0    0    0
H -648.80604829 -64.59583533 -37.91501992     6    31    0    0    0
C -649.46030482 -67.60376183 -35.67642452     2    31   35   36   37
H -651.25416549 -67.96281772 -36.69056815     6    34    0    0    0
H -648.75455677 -69.38384060 -34.99367273     6    34    0    0    0
C -650.24629693 -65.85392643 -33.47326208     2    34   38   39   40
H -648.58905554 -64.80738809 -32.70016317     6    37    0    0    0
H -651.18348272 -64.36366176 -34.44192149     6    37    0    0    0
C -651.76344287 -67.28739511 -31.25831650     2    37   41   42   43
H -653.55768257 -68.02143418 -32.03157045     6    40    0    0    0
H -650.54137970 -68.89773549 -30.71440519     6    40    0    0    0
C -652.39930707 -65.74000067 -28.81946779     2    40   44   45   46
H -650.62828539 -64.72738162 -28.52033246     6    43    0    0    0
H -653.67105423 -64.26707902 -29.11844517     6    43    0    0    0
C -653.47905792 -67.29508138 -26.58877067     1    43   47   48   49
H -655.49099830 -67.72598532 -27.01262815     6    46    0    0    0
H -653.44126110 -66.11228270 -24.80582631     6    46    0    0    0
H -652.50137562 -69.10466179 -26.08740732     6    46    0    0    0
H -637.34510632 -55.56173127 -24.82565469     6     51    0    0    0 
C -639.49349708 -56.01073837 -24.67123491     1     50    52    53    54
H -639.74998893 -56.99480525 -22.91673374     6     51    0    0    0
H -640.43274416 -54.18881977 -24.56579368     6     51    0    0    0
C -640.80704589 -57.74167198 -26.68890218     2     51    55    56    57
H -640.42408655 -56.77694877 -28.32619723     6     54    0    0    0
H -640.03751418 -59.63113821 -27.23750703     6     54    0    0    0
C -643.70381899 -57.96899590 -26.22685448     2     54    58   59   60
H -644.51806731 -56.22450036 -25.87094256     6     57    0    0    0
H -644.61130034 -58.61580300 -28.07521488     6     57    0    0    0
C -644.42703891 -59.83634510 -24.21623455     2     57   61   62   63
H -643.45901447 -61.68638987 -24.40732427     6    60    0    0    0
H -644.09565585 -58.98405350 -22.37002759     6    60    0    0    0
C -647.40903616 -60.16189180 -24.03967382     2    60   64   65   66
H -648.47338930 -58.43564995 -23.77020310     6    63    0    0    0
H -648.04679113 -60.84918422 -25.82057688     6    63    0    0    0
C -648.38023320 -62.13847338 -22.06821535     2    63   67   68   69
H -650.34137163 -62.80694322 -22.40157903     6    66    0    0    0
H -647.40884225 -63.90911348 -22.17915837     6    66    0    0    0
C -648.17303292 -61.01869731 -19.33558872     2    66   70   71   72
H -646.14048332 -60.56708742 -18.90362401     6    69    0    0    0
H -649.50841352 -59.44384723 -19.06552044     6    69    0    0    0
C -649.41398023 -62.88328652 -17.45150406     2    69   73   74   75
H -651.32568063 -63.36382040 -18.25633560     6    72    0    0    0
H -648.53592545 -64.74538148 -17.62205378     6    72    0    0    0
C -649.18640752 -62.10424969 -14.66915099     2    72   76   77   78
H -647.27165900 -61.58663440 -14.20706910     6    75    0    0    0
H -650.47864158 -60.69465302 -14.23061811     6    75    0    0    0
C -649.85032558 -64.51062617 -12.99713504     2    75   79   80   81
H -651.90110580 -65.00030435 -13.38366156     6    78    0    0    0
H -648.73777457 -66.15101077 -13.58613739     6    78    0    0    0
C -649.34104250 -64.02607272 -10.18425298     2    78   82   83   84
H -647.25987996 -63.91475158 -9.85150078     6    81    0    0    0
H -650.10164249 -62.17455637 -9.79593644     6    81    0    0    0
C -650.41003083 -66.14204195 -8.50316537     1    81   85   86   87
H -649.71779463 -65.57276046 -6.68517237     6    84    0    0    0
H -649.94058100 -68.09729212 -8.78551595     6    84    0    0    0
H -652.48936989 -66.16554142 -8.47092620     6    84    0    0    0
H -657.91459389 -43.03731477 -46.11060850     6     89    0    0    0 
C -659.17815748 -44.68401634 -46.06089427     1     88    90    91    92
H -659.02351622 -45.55396548 -44.26224313     6     89    0    0    0
H -661.14054430 -44.02814867 -46.17787267     6     89    0    0    0
C -658.75682063 -46.59814622 -48.07739976     2     89    93    94    95
H -659.05607936 -45.85371590 -49.93655878     6     92    0    0    0
H -656.79191254 -47.03303433 -48.09967035     6     92    0    0    0
C -660.31860370 -48.95212672 -47.53372981     2     92    96   97   98
H -659.39210016 -49.96423760 -45.95163478     6     95    0    0    0
H -662.27612779 -48.65049663 -46.96754053     6     95    0    0    0
C -660.74840198 -50.76867147 -49.81982180     2     95   99   100   101
H -662.11602823 -49.70861614 -50.97090350     6    98    0    0    0
H -659.03355206 -51.07092207 -51.01999254     6    98    0    0    0
C -662.17871943 -53.28746121 -49.24591560     2    98   102   103   104
H -664.00625728 -52.76359381 -48.49429387     6    101    0    0    0
H -662.74415699 -54.22521800 -50.95290117     6    101    0    0    0
C -660.62811435 -55.22990581 -47.53545000     2    101   105   106   107
H -659.08110868 -55.94685436 -48.81668069     6    104    0    0    0
H -659.92228756 -54.24209706 -46.01413267     6    104    0    0    0
C -662.47983537 -57.46012277 -46.89647040     2    104   108   109   110
H -664.16619641 -56.79251382 -45.91063473     6    107    0    0    0
H -663.05977643 -58.36342847 -48.59734152     6    107    0    0    0
C -660.92862194 -59.40049882 -45.40424490     2    107   111   112   113
H -659.27383295 -60.04880203 -46.41317731     6    110    0    0    0
H -660.34747985 -58.49638541 -43.60374765     6    110    0    0    0
C -662.59958976 -61.67193529 -44.81354457     2    110   114   115   116
H -664.28201542 -60.90521709 -43.80783080     6    113    0    0    0
H -663.23449106 -62.53680047 -46.67970218     6    113    0    0    0
C -661.42893888 -63.68458818 -43.18198878     2    113   117   118   119
H -660.26269402 -64.96729280 -44.23270055     6    116    0    0    0
H -660.19754575 -62.95115974 -41.72752419     6    116    0    0    0
C -663.46092593 -65.43012545 -41.99817238     2    116   120   121   122
H -664.44486749 -64.46658250 -40.46024392     6    119    0    0    0
H -664.89862346 -66.10341512 -43.32187681     6    119    0    0    0
C -662.54241496 -67.66516096 -40.38280373     1    119   123   124   125
H -663.80164758 -68.65311601 -39.15638037     6    122    0    0    0
H -661.22868982 -66.99254325 -38.87259200     6    122    0    0    0
H -661.49490661 -69.14884896 -41.42850552     6    122    0    0    0
H -653.58578912 -42.83157626 -49.07128299     6     127    0    0    0 
C -652.35524185 -41.29413803 -48.69200739     1     126    128    129    130
H -652.62902129 -39.73695021 -49.91591741     6     127    0    0    0
H -652.65645202 -40.56110224 -46.65972517     6     127    0    0    0
C -649.69709096 -42.31437058 -48.91803107     2     127    131    132    133
H -649.43918515 -44.03672079 -47.97068710     6     130    0    0    0
H -649.51747203 -43.05991030 -50.72706462     6     130    0    0    0
C -647.74994202 -40.25273132 -48.14897039     2     130    134   135   136
H -647.22312313 -39.30435810 -49.96985189     6     133    0    0    0
H -648.78978431 -39.01036887 -46.81284530     6     133    0    0    0
C -645.34228558 -41.26404216 -46.83345448     2     133   137   138   139
H -645.97057748 -42.39919698 -45.33153868     6    136    0    0    0
H -644.35220924 -42.57597929 -48.05236417     6    136    0    0    0
C -643.48704171 -39.19752275 -45.83154608     2    136   140   141   142
H -642.98885721 -38.06095988 -47.51038486     6    139    0    0    0
H -644.93777812 -38.02899670 -44.76075968     6    139    0    0    0
C -641.24171332 -40.21263327 -44.26929329     2    139   143   144   145
H -641.68290912 -41.34175288 -42.66371936     6    142    0    0    0
H -640.06973065 -41.33991242 -45.52739107     6    142    0    0    0
C -639.59422272 -37.84001524 -43.53533358     2    142   146   147   148
H -639.45704531 -36.66392915 -45.06837601     6    145    0    0    0
H -640.32454403 -36.47319038 -42.13398860     6    145    0    0    0
C -636.75602975 -38.38514051 -42.89233379     2    145   149   150   151
H -636.67655316 -40.11073356 -41.78741303     6    148    0    0    0
H -635.74102816 -38.95481802 -44.55713205     6    148    0    0    0
C -635.55295329 -36.10005099 -41.55168660     2    148   152   153   154
H -635.80052874 -34.47351008 -42.84083808     6    151    0    0    0
H -636.43319036 -35.57544752 -39.69694250     6    151    0    0    0
C -632.75553943 -36.49556050 -41.00001695     2    151   155   156   157
H -632.25297142 -34.85804112 -39.80446068     6    154    0    0    0
H -632.32614988 -38.25990676 -39.90590064     6    154    0    0    0
C -631.02478884 -36.39414685 -43.33098289     2    154   158   159   160
H -631.86807820 -37.04286144 -45.06829777     6    157    0    0    0
H -631.04705475 -34.37679498 -43.67169006     6    157    0    0    0
C -628.29995425 -37.24739780 -42.96890737     1    157   161   162   163
H -627.20585015 -35.89914753 -42.06053254     6    160    0    0    0
H -627.34249693 -37.34776193 -44.84894725     6    160    0    0    0
H -628.11559801 -39.05734157 -41.87611440     6    160    0    0    0
H -661.89077776 -39.39367083 -44.08952673     6     165    0    0    0 
C -662.35365059 -38.41074038 -42.33949234     1     164    166    167    168
H -664.37035230 -38.00101096 -42.41839171     6     165    0    0    0
H -661.78387951 -39.55266665 -40.71502027     6     165    0    0    0
C -660.82642540 -35.90436735 -42.25927625     2     165    169    170    171
H -658.72734073 -36.15729708 -42.53843124     6     168    0    0    0
H -661.46527207 -34.90715748 -43.92791153     6     168    0    0    0
C -661.29860786 -34.25685695 -39.93954319     2     168    172   173   174
H -663.26724703 -33.43565844 -40.07794478     6     171    0    0    0
H -661.35377240 -35.24777953 -38.16078055     6     171    0    0    0
C -659.13823113 -32.24281513 -39.54514666     2     171   175   176   177
H -657.43009730 -33.24650289 -39.46420899     6    174    0    0    0
H -658.96511110 -31.03161123 -41.14381732     6    174    0    0    0
C -659.52729619 -30.48134631 -37.27217689     2    174   178   179   180
H -661.50645015 -29.64951314 -37.43757231     6    177    0    0    0
H -659.59786348 -31.62568311 -35.52917899     6    177    0    0    0
C -657.68297180 -28.18584357 -37.08265894     2    177   181   182   183
H -655.81163407 -28.94586825 -37.18406176     6    180    0    0    0
H -658.30912776 -27.03521310 -38.51886732     6    180    0    0    0
C -657.92507146 -26.48870781 -34.69328776     2    180   184   185   186
H -659.93003762 -26.00959856 -34.51401877     6    183    0    0    0
H -657.49189860 -27.42472005 -32.88571785     6    183    0    0    0
C -656.44549740 -24.00302817 -34.92724285     2    183   187   188   189
H -654.52587027 -24.36075593 -34.86779909     6    186    0    0    0
H -656.99368831 -23.07402812 -36.71176790     6    186    0    0    0
C -657.08542334 -22.46079791 -32.55169966     2    186   190   191   192
H -659.09527288 -22.04655344 -32.20188352     6    189    0    0    0
H -656.48700362 -23.40744720 -30.88879554     6    189    0    0    0
C -655.60722639 -20.04937584 -32.55067761     2    189   193   194   195
H -653.64854110 -20.46288902 -32.90752947     6    192    0    0    0
H -656.26892755 -18.91312676 -34.14785918     6    192    0    0    0
C -655.97183643 -18.37031811 -30.29080801     2    192   196   197   198
H -657.83605145 -18.34830453 -29.50953563     6    195    0    0    0
H -654.58051996 -19.13879368 -28.93137529     6    195    0    0    0
C -655.18321130 -15.65289288 -30.75183222     1    195   199   200   201
H -654.44532314 -14.87815932 -28.96920429     6    198    0    0    0
H -656.81847409 -14.64877224 -31.27449712     6    198    0    0    0
H -653.49445678 -15.36614060 -32.13653616     6    198    0    0    0
H -661.74657406 -40.96371682 -19.06347142     6     203    0    0    0 
C -661.81530760 -40.04870191 -20.95354384     1     202    204    205    206
H -660.45213918 -41.12898935 -21.86587243     6     203    0    0    0
H -663.67274100 -40.13352002 -21.72543652     6     203    0    0    0
C -660.77508070 -37.34353093 -21.12446208     2     203    207    208    209
H -658.80826086 -37.47550654 -20.50563372     6     206    0    0    0
H -660.69269139 -36.59865401 -22.95954677     6     206    0    0    0
C -662.29432237 -35.49365121 -19.49119392     2     206    210   211   212
H -661.52960017 -33.66054437 -19.88691499     6     209    0    0    0
H -664.19263429 -35.22380585 -20.17013764     6     209    0    0    0
C -662.40676616 -36.03949894 -16.67142537     2     209   213   214   215
H -663.30750046 -37.79323160 -16.20415949     6    212    0    0    0
H -660.53613957 -36.31322759 -15.86063650     6    212    0    0    0
C -663.72946642 -33.92875706 -14.86032193     2    212   216   217   218
H -662.81748390 -32.13372107 -15.23362279     6    215    0    0    0
H -665.72707745 -33.73444320 -15.19334566     6    215    0    0    0
C -663.39675559 -34.59380756 -12.08973286     2    215   219   220   221
H -664.61608566 -36.14102289 -11.62603998     6    218    0    0    0
H -661.40116215 -34.99092086 -11.85681917     6    218    0    0    0
C -664.07316811 -32.23919748 -10.47916848     2    218   222   223   224
H -662.94473413 -30.69482619 -10.98404837     6    221    0    0    0
H -665.90814032 -31.55519045 -10.92097332     6    221    0    0    0
C -663.95598449 -32.73100350 -7.64963482     2    221   225   226   227
H -665.12274170 -34.34247809 -7.35745316     6    224    0    0    0
H -662.14530285 -33.13739001 -6.85289826     6    224    0    0    0
C -664.84174103 -30.42326689 -6.15610887     2    224   228   229   230
H -663.60784122 -28.71045917 -6.32273301     6    227    0    0    0
H -666.69774166 -29.99309076 -6.74278569     6    227    0    0    0
C -665.22166199 -31.14993515 -3.24986659     2    227   231   232   233
H -667.08941534 -32.08989236 -3.23284233     6    230    0    0    0
H -664.01978220 -32.56799494 -2.64286801     6    230    0    0    0
C -665.62744397 -28.84769863 -1.64445747     2    230   234   235   236
H -664.05280724 -27.44174519 -1.95620382     6    233    0    0    0
H -667.19377171 -27.80110422 -2.32328678     6    233    0    0    0
C -665.96640280 -29.19581784 1.15314344     1    233   237   238   239
H -666.02552949 -27.25481792 2.06435212     6    236    0    0    0
H -664.43960005 -30.31521793 1.98620691     6    236    0    0    0
H -667.77671290 -30.06398751 1.78367655     6    236    0    0    0
H -664.61115261 -58.54259062 -17.86267725     6     241    0    0    0 
C -665.59151081 -60.22071986 -18.49597960     1     240    242    243    244
H -667.55964641 -60.30265383 -17.69301461     6     241    0    0    0
H -665.42255035 -60.02519363 -20.57518321     6     241    0    0    0
C -664.06423898 -62.50416638 -17.66946159     2     241    245    246    247
H -663.91251219 -62.52535382 -15.53741685     6     244    0    0    0
H -665.12388994 -64.28396329 -17.88456198     6     244    0    0    0
C -661.60230739 -62.81178426 -19.30608654     2     244    248   249   250
H -661.96290968 -63.87775346 -21.02446856     6     247    0    0    0
H -660.88914874 -60.96742725 -20.02903900     6     247    0    0    0
C -659.28211716 -64.07052633 -18.20720943     2     247   251   252   253
H -657.86013559 -64.18981778 -19.61950892     6    250    0    0    0
H -658.24910273 -62.67251675 -16.91738433     6    250    0    0    0
C -659.73066087 -66.70564200 -16.91414315     2    250   254   255   256
H -661.40513023 -66.85764290 -15.64223880     6    253    0    0    0
H -660.13332632 -68.26024808 -18.29687142     6    253    0    0    0
C -657.44182875 -67.97633781 -15.59959570     2    253   257   258   259
H -655.89776118 -67.91468279 -16.92935132     6    256    0    0    0
H -656.98789525 -66.70205362 -14.05417366     6    256    0    0    0
C -657.86191847 -70.65901419 -14.61938445     2    256   260   261   262
H -659.84455128 -70.91084239 -14.01286833     6    259    0    0    0
H -657.84452609 -71.77856025 -16.25400821     6    259    0    0    0
C -656.23606103 -71.57373913 -12.42183830     2    259   263   264   265
H -654.21973581 -70.99296983 -12.71715353     6    262    0    0    0
H -656.55168030 -70.50847251 -10.47762390     6    262    0    0    0
C -655.97708514 -74.32314045 -12.31910476     2    262   266   267   268
H -657.78316568 -75.23246072 -12.13277628     6    265    0    0    0
H -655.00643928 -74.94827347 -13.98309017     6    265    0    0    0
C -654.54123074 -75.09271140 -10.05085448     2    265   269   270   271
H -652.60699003 -74.30740046 -10.19705808     6    268    0    0    0
H -655.43677073 -74.35914267 -8.28186147     6    268    0    0    0
C -654.54657993 -78.09286722 -9.99813216     2    268   272   273   274
H -656.11234191 -78.71089858 -9.01631968     6    271    0    0    0
H -654.78324931 -78.92772245 -11.95840556     6    271    0    0    0
C -652.21461373 -79.25428721 -8.95940733     1    271   275   276   277
H -650.41968108 -78.45958098 -9.78263662     6    274    0    0    0
H -652.15346989 -81.18130188 -9.36178648     6    274    0    0    0
H -652.12120005 -79.11066197 -6.88735225     6    274    0    0    0
H -663.70508259 -46.19147845 -26.50852472     6     279    0    0    0 
C -664.49960777 -47.74931914 -25.30865517     1     278    280    281    282
H -666.54995477 -47.51191036 -25.43772080     6     279    0    0    0
H -663.89868660 -49.54506411 -26.09630627     6     279    0    0    0
C -663.58727469 -47.39633167 -22.67563290     2     279    283    284    285
H -661.53766890 -47.50813614 -22.76335231     6     282    0    0    0
H -664.05513538 -45.44437633 -21.91427213     6     282    0    0    0
C -664.80408328 -49.23332921 -20.75268499     2     282    286   287   288
H -666.93890996 -49.09885933 -20.68759772     6     285    0    0    0
H -664.62985415 -51.19714194 -21.30092284     6     285    0    0    0
C -663.66147648 -48.81009540 -18.08383337     2     285   289   290   291
H -661.60120498 -49.20744342 -17.92949111     6    288    0    0    0
H -663.73380714 -46.78382480 -17.53226050     6    288    0    0    0
C -664.90127000 -50.29912596 -15.85621398     2    288   292   293   294
H -666.89762041 -49.76167902 -15.85007522     6    291    0    0    0
H -664.72490274 -52.28405422 -16.12937240     6    291    0    0    0
C -663.77616742 -49.87773511 -13.22384361     2    291   295   296   297
H -661.72572125 -50.16261030 -13.39725247     6    294    0    0    0
H -664.55948100 -48.00393127 -12.62647784     6    294    0    0    0
C -664.58319178 -51.81643523 -11.13084456     2    294   298   299   300
H -666.56970213 -51.48292670 -10.95537572     6    297    0    0    0
H -664.69952901 -53.74778030 -11.75362728     6    297    0    0    0
C -662.98029939 -51.59312990 -8.66552584     2    297   301   302   303
H -660.88538488 -51.46136151 -8.83871885     6    300    0    0    0
H -663.54215542 -49.87837937 -7.79512392     6    300    0    0    0
C -663.12392258 -53.94722110 -6.93381832     2    300   304   305   306
H -665.02243085 -54.04097259 -6.17200805     6    303    0    0    0
H -662.82806035 -55.84586351 -7.90332968     6    303    0    0    0
C -661.08742095 -54.01919532 -4.76270669     2    303   307   308   309
H -659.22601039 -54.04767238 -5.75489354     6    306    0    0    0
H -660.98151860 -52.38921928 -3.62723015     6    306    0    0    0
C -661.22770981 -56.46354343 -2.95252936     2    306   310   311   312
H -662.86575806 -56.03226348 -1.65926779     6    309    0    0    0
H -661.75016126 -58.24911905 -3.96425021     6    309    0    0    0
C -658.92559811 -56.72163773 -1.31645924     1    309   313   314   315
H -659.12859316 -58.22060228 -0.06988298     6    312    0    0    0
H -658.49411745 -54.90571435 -0.25465629     6    312    0    0    0
H -657.38329328 -57.22632209 -2.64429503     6    312    0    0    0
H -652.78049383 -52.94625906 -49.51536031     6     317    0    0    0 
C -651.60633516 -51.21226991 -49.37573733     1     316    318    319    320
H -649.74344598 -51.92002572 -50.07303934     6     317    0    0    0
H -652.07852502 -49.48491813 -50.34366650     6     317    0    0    0
C -651.41645805 -50.35552287 -46.57035070     2     317    321    322    323
H -650.99833382 -48.35611468 -46.52979620     6     320    0    0    0
H -653.31607221 -50.51203494 -45.85736869     6     320    0    0    0
C -649.49408690 -51.73626285 -44.81324255     2     320    324   325   326
H -649.87161278 -51.27087441 -42.88301786     6     323    0    0    0
H -649.82124619 -53.74181864 -45.08883973     6     323    0    0    0
C -646.77554593 -50.88720399 -45.61347061     2     323   327   328   329
H -645.42330354 -52.44263032 -45.05355228     6    326    0    0    0
H -646.73628787 -50.97659275 -47.70612483     6    326    0    0    0
C -646.00653842 -48.38877228 -44.37693890     2    326   330   331   332
H -646.81154232 -46.79324941 -45.46364706     6    329    0    0    0
H -646.77834278 -48.12507280 -42.37931221     6    329    0    0    0
C -643.18338826 -47.74781306 -44.42348138     2    329   333   334   335
H -642.60980296 -48.95451369 -45.94493605     6    332    0    0    0
H -642.85725569 -45.68539552 -44.58417092     6    332    0    0    0
C -641.64477796 -48.81331730 -42.29207597     2    332   336   337   338
H -642.37437494 -47.85991272 -40.57139119     6    335    0    0    0
H -642.00653542 -50.87977193 -41.90903525     6    335    0    0    0
C -638.85403453 -48.06909798 -42.53854754     2    335   339   340   341
H -638.01098640 -48.85474114 -44.29914515     6    338    0    0    0
H -638.85920437 -46.03667429 -42.47155088     6    338    0    0    0
C -637.21062829 -49.03352464 -40.34568518     2    338   342   343   344
H -638.12078394 -48.45625193 -38.62706020     6    341    0    0    0
H -637.05226159 -50.97921999 -40.32754354     6    341    0    0    0
C -634.47356379 -47.92179846 -40.62367606     2    341   345   346   347
H -633.23823170 -49.07653013 -39.35370239     6    344    0    0    0
H -634.04463810 -48.32492109 -42.62537738     6    344    0    0    0
C -634.09076860 -45.24571828 -39.67519685     2    344   348   349   350
H -635.60685100 -44.21209464 -40.38908481     6    347    0    0    0
H -634.18926577 -45.07875850 -37.51683733     6    347    0    0    0
C -631.41561480 -44.06867479 -40.29244650     1    347   351   352   353
H -631.36657205 -44.01935125 -42.31268134     6    350    0    0    0
H -629.66392959 -44.66040632 -39.57459215     6    350    0    0    0
H -631.58962330 -42.12258747 -39.88832825     6    350    0    0    0
H -658.44200594 -61.11283045 -22.98766272     6     355    0    0    0 
C -657.28007077 -59.40405386 -23.14517411     1     354    356    357    358
H -657.21541896 -58.50483847 -21.20621998     6     355    0    0    0
H -655.32944282 -59.95048951 -23.41414758     6     355    0    0    0
C -658.32214914 -57.90946490 -25.34782996     2     355    359    360    361
H -658.08126774 -58.87189529 -27.17503755     6     358    0    0    0
H -660.31425639 -57.49697571 -24.82174127     6     358    0    0    0
C -656.83969348 -55.41507757 -25.82373958     2     358    362   363   364
H -656.68887108 -54.26554557 -24.13994943     6     361    0    0    0
H -654.89885415 -55.91740511 -26.57462723     6     361    0    0    0
C -658.10107504 -53.86660359 -27.88317797     2     361   365   366   367
H -658.68277993 -55.01058397 -29.38216246     6    364    0    0    0
H -659.86018623 -53.17336922 -27.03956117     6    364    0    0    0
C -656.66181648 -51.61581793 -28.92782517     2    364   368   369   370
H -656.87462112 -50.05608656 -27.51331981     6    367    0    0    0
H -654.58810968 -52.08325078 -29.07091050     6    367    0    0    0
C -657.73366360 -50.76689410 -31.46361338     2    367   371   372   373
H -657.71977801 -52.30679619 -32.72174865     6    370    0    0    0
H -659.71838872 -50.12735848 -31.21732262     6    370    0    0    0
C -656.03395543 -48.72350038 -32.62119911     2    370   374   375   376
H -655.43922454 -47.48739778 -31.26430940     6    373    0    0    0
H -654.33204674 -49.59488368 -33.34555532     6    373    0    0    0
C -657.12218518 -47.51365914 -34.83520550     2    373   377   378   379
H -658.03994012 -48.93557632 -36.00506909     6    376    0    0    0
H -658.51056323 -46.17130810 -34.08656907     6    376    0    0    0
C -655.16093284 -46.10746388 -36.68375397     2    376   380   381   382
H -654.19879181 -44.77086933 -35.62649860     6    379    0    0    0
H -653.81574917 -47.42370440 -37.25244936     6    379    0    0    0
C -656.46867130 -44.53429255 -38.88416627     2    379   383   384   385
H -657.87560632 -45.51604771 -40.09623224     6    382    0    0    0
H -657.71882385 -43.02686896 -38.10769505     6    382    0    0    0
C -654.47634921 -43.57991542 -40.80998300     2    382   386   387   388
H -655.38080994 -42.11558910 -41.84468092     6    385    0    0    0
H -652.99551918 -42.64046136 -39.83203440     6    385    0    0    0
C -653.38877165 -45.87902036 -42.22745205     1    385   389   390   391
H -654.77332243 -46.82434547 -43.33149582     6    388    0    0    0
H -652.66071521 -47.18482182 -40.84842143     6    388    0    0    0
H -651.79155588 -45.23749871 -43.45068952     6    388    0    0    0
H -615.21671625 -52.28252773 -30.22659996     6     393    0    0    0 
C -615.87483600 -52.18543836 -28.25674631     1     392    394    395    396
H -614.26209080 -51.88215383 -26.98947558     6     393    0    0    0
H -617.05136823 -50.64130268 -28.48216216     6     393    0    0    0
C -617.30616824 -54.70972956 -27.94750808     2     393    397    398    399
H -618.60623260 -55.11795615 -29.38571231     6     396    0    0    0
H -615.82125066 -56.16002579 -28.01957618     6     396    0    0    0
C -618.51544630 -55.00099081 -25.36671041     2     396    400   401   402
H -617.07511768 -54.95391686 -23.87886909     6     399    0    0    0
H -620.01578128 -53.59595070 -25.32364588     6     399    0    0    0
C -619.84096078 -57.47746326 -25.11677202     2     399   403   404   405
H -621.13135547 -57.60028749 -26.73061559     6    402    0    0    0
H -618.71183732 -59.19989555 -25.38924012     6    402    0    0    0
C -621.63919702 -57.67329550 -22.87274885     2    402   406   407   408
H -620.35441814 -58.27538107 -21.27194459     6    405    0    0    0
H -622.49799569 -55.73526572 -22.37686135     6    405    0    0    0
C -623.63168027 -59.91247883 -22.97818526     2    405   409   410   411
H -624.86236250 -59.65676593 -24.58446266     6    408    0    0    0
H -622.64528526 -61.76015233 -23.27036781     6    408    0    0    0
C -625.29612149 -60.18248959 -20.54473225     2    408   412   413   414
H -624.06134965 -60.16011785 -18.93794845     6    411    0    0    0
H -626.54974952 -58.60132588 -20.09922753     6    411    0    0    0
C -626.61578071 -62.83416638 -20.65951107     2    411   415   416   417
H -627.61916219 -63.21019737 -22.53389960     6    414    0    0    0
H -625.12960478 -64.20501976 -20.57344159     6    414    0    0    0
C -627.98945430 -63.38214091 -18.17090673     2    414   418   419   420
H -626.52510736 -63.35538701 -16.76939677     6    417    0    0    0
H -629.30490477 -61.95312988 -17.58748147     6    417    0    0    0
C -629.76091326 -65.83381611 -18.20822220     2    417   421   422   423
H -631.47312393 -65.42367292 -19.23435040     6    420    0    0    0
H -628.82042274 -67.15094797 -19.48166241     6    420    0    0    0
C -630.45327344 -66.89487839 -15.65770874     2    420   424   425   426
H -631.49503569 -68.70486727 -15.89213926     6    423    0    0    0
H -628.55263540 -67.32373604 -14.81527771     6    423    0    0    0
C -631.80739067 -64.95284789 -13.87744280     1    423   427   428   429
H -631.99557171 -65.92030032 -12.05771163     6    426    0    0    0
H -633.68249562 -64.45702775 -14.54081395     6    426    0    0    0
H -630.92421938 -63.11521020 -13.75307832     6    426    0    0    0
H -639.31787677 -80.22595788 -21.00756882     6     431    0    0    0 
C -640.02649372 -80.85920435 -22.86073175     1     430    432    433    434
H -640.21809395 -82.90561202 -22.84350032     6     431    0    0    0
H -642.02687331 -80.11678315 -22.88447554     6     431    0    0    0
C -638.09360938 -80.08329183 -24.81933261     2     431    435    436    437
H -637.72866475 -78.03645749 -24.91163885     6     434    0    0    0
H -636.32378382 -80.94929470 -24.22289973     6     434    0    0    0
C -638.82613691 -81.23020547 -27.39964990     2     434    438   439   440
H -638.64289436 -83.37423677 -27.13964190     6     437    0    0    0
H -640.99941522 -80.98019913 -27.69922718     6     437    0    0    0
C -637.52910376 -80.40251774 -29.78457293     2     437   441   442   443
H -638.43115943 -81.38817588 -31.30764410     6    440    0    0    0
H -638.00074177 -78.37112167 -30.10636655     6    440    0    0    0
C -634.68901802 -81.03948367 -29.97086939     2    440   444   445   446
H -633.62640989 -80.49265884 -28.27724989     6    443    0    0    0
H -634.41696563 -83.15090897 -30.18253703     6    443    0    0    0
C -633.68907857 -79.90580240 -32.37430054     2    443   447   448   449
H -634.67537105 -80.69454254 -33.94561571     6    446    0    0    0
H -633.80623213 -77.82477025 -32.40948758     6    446    0    0    0
C -630.86169159 -80.53272953 -32.72918205     2    446   450   451   452
H -630.01471701 -79.99257571 -31.01590775     6    449    0    0    0
H -631.09026706 -82.60985148 -32.95359889     6    449    0    0    0
C -629.51075867 -79.07774601 -34.93140053     2    449   453   454   455
H -630.53751905 -79.24125557 -36.68560989     6    452    0    0    0
H -629.73240823 -77.11812407 -34.58779520     6    452    0    0    0
C -626.86051483 -80.00269231 -35.53885701     2    452   456   457   458
H -625.99792830 -80.72634376 -33.78801544     6    455    0    0    0
H -626.79219709 -81.52875437 -36.92344630     6    455    0    0    0
C -625.34442927 -77.83038481 -36.64966878     2    455   459   460   461
H -623.82882283 -78.39678974 -37.92284391     6    458    0    0    0
H -626.54281636 -76.65195577 -37.91179235     6    458    0    0    0
C -624.49092111 -76.16763563 -34.53744365     2    458   462   463   464
H -624.86295397 -74.19052981 -34.92282723     6    461    0    0    0
H -625.47741535 -76.38385966 -32.76441025     6    461    0    0    0
C -621.62341969 -76.42381552 -34.14532586     1    461   465   466   467
H -620.66797557 -76.07299168 -35.91699513     6    464    0    0    0
H -620.91217097 -78.21462835 -33.43207167     6    464    0    0    0
H -620.90455276 -75.02801543 -32.93189725     6    464    0    0    0
H -668.75216582 -47.01939574 -43.15008469     6     469    0    0    0 
C -667.08809672 -47.95512647 -43.91674390     1     468    470    471    472
H -667.61737025 -48.86042022 -45.71953077     6     469    0    0    0
H -665.64625668 -46.41513203 -44.48845382     6     469    0    0    0
C -666.04887074 -50.14553032 -42.34145592     2     469    473    474    475
H -664.69172582 -51.05122375 -43.63169861     6     472    0    0    0
H -665.01495422 -49.62635091 -40.61233971     6     472    0    0    0
C -667.94300316 -52.28288319 -41.63160981     2     472    476   477   478
H -669.27905920 -51.36891886 -40.38955171     6     475    0    0    0
H -669.03902051 -52.58065261 -43.32104769     6     475    0    0    0
C -666.86791636 -54.75347880 -40.49728926     2     475   479   480   481
H -665.64635519 -55.71286505 -41.88353457     6    478    0    0    0
H -665.67811095 -54.37559698 -38.82865746     6    478    0    0    0
C -668.85684780 -56.68998544 -39.84499728     2    478   482   483   484
H -670.57441784 -55.76738126 -39.13062344     6    481    0    0    0
H -669.50997191 -57.78237187 -41.42795424     6    481    0    0    0
C -668.00767352 -58.41994870 -37.60888001     2    481   485   486   487
H -666.42534074 -59.51053948 -38.27784924     6    484    0    0    0
H -667.39623964 -57.37481716 -35.99075995     6    484    0    0    0
C -669.95599398 -60.32703762 -36.72759901     2    484   488   489   490
H -671.43637562 -59.17278943 -35.74440731     6    487    0    0    0
H -670.94036277 -61.16351464 -38.28419955     6    487    0    0    0
C -668.65944048 -62.14984350 -34.82494815     2    487   491   492   493
H -667.01260682 -63.04641632 -35.67758898     6    490    0    0    0
H -667.97700366 -61.23483233 -33.10499440     6    490    0    0    0
C -670.51099387 -64.19163159 -33.84308974     2    490   494   495   496
H -672.18553855 -63.39402481 -33.29394207     6    493    0    0    0
H -671.02085986 -65.57315007 -35.34792560     6    493    0    0    0
C -669.56015414 -65.62024766 -31.68420123     2    493   497   498   499
H -667.51844184 -66.06599980 -31.99041040     6    496    0    0    0
H -669.50388575 -64.36511880 -30.03520251     6    496    0    0    0
C -671.04945429 -68.01204541 -30.91350691     2    496   500   501   502
H -673.07911441 -67.53960525 -30.62624356     6    499    0    0    0
H -670.81833580 -69.63638333 -32.21780201     6    499    0    0    0
C -669.91468918 -69.10315149 -28.51797357     1    499   503   504   505
H -668.04521403 -70.12680868 -28.76371040     6    502    0    0    0
H -671.37642546 -70.20256892 -27.51202966     6    502    0    0    0
H -669.39577859 -67.62728687 -27.21988642     6    502    0    0    0
H -645.72023721 -81.23469382 -0.48818946     6     507    0    0    0 
C -644.30307400 -79.84105362 -1.18937817     1     506    508    509    510
H -645.20666959 -78.07671425 -0.71322277     6     507    0    0    0
H -642.62314799 -80.11671407 -0.17046477     6     507    0    0    0
C -643.91836683 -80.36961240 -4.00626162     2     507    511    512    513
H -644.00234694 -82.34446294 -4.70571876     6     510    0    0    0
H -645.74604919 -79.51385528 -4.57538428     6     510    0    0    0
C -641.62203200 -79.12792675 -5.27841563     2     510    514   515   516
H -641.43719207 -77.16102304 -4.69961384     6     513    0    0    0
H -639.90307151 -79.87414769 -4.51416646     6     513    0    0    0
C -641.83948122 -79.31884576 -8.10515776     2     513   517   518   519
H -641.94678654 -81.27984828 -8.67328307     6    516    0    0    0
H -643.82564436 -78.63740324 -8.46919234     6    516    0    0    0
C -639.78267094 -77.91372153 -9.69973661     2    516   520   521   522
H -640.08820937 -75.90726878 -9.40838139     6    519    0    0    0
H -638.05736723 -78.87607791 -9.06424195     6    519    0    0    0
C -640.10149715 -78.13701481 -12.46900579     2    519   523   524   525
H -640.17072414 -80.00725861 -13.31535666     6    522    0    0    0
H -641.98945439 -77.22531697 -12.88901392     6    522    0    0    0
C -637.74197148 -76.73721622 -13.68179011     2    522   526   527   528
H -637.69314078 -74.81540766 -13.04310147     6    525    0    0    0
H -636.00111247 -77.55335775 -12.74616933     6    525    0    0    0
C -637.44158033 -76.77158008 -16.58331114     2    525   529   530   531
H -637.38352107 -78.73421435 -17.19026691     6    528    0    0    0
H -639.11762520 -76.20495089 -17.59384012     6    528    0    0    0
C -635.19687600 -75.17792274 -17.38294794     2    528   532   533   534
H -635.81969428 -73.27211348 -16.82860397     6    531    0    0    0
H -633.71864154 -75.65341921 -16.13885667     6    531    0    0    0
C -634.51190097 -75.30197314 -20.15332741     2    531   535   536   537
H -634.33533384 -77.26692026 -20.94015660     6    534    0    0    0
H -636.15968557 -74.68117343 -21.20934511     6    534    0    0    0
C -632.03974090 -73.87487080 -20.88879743     2    534   538   539   540
H -631.93299819 -72.04237658 -19.81414982     6    537    0    0    0
H -630.36905917 -75.15292032 -20.65570167     6    537    0    0    0
C -632.00072778 -73.14278005 -23.65478729     1    537   541   542   543
H -630.35357895 -72.10088218 -23.83496132     6    540    0    0    0
H -633.81147789 -72.24769226 -24.08647714     6    540    0    0    0
H -631.67352202 -74.75724587 -24.91618342     6    540    0    0    0
H -629.34305152 -59.62783769 -33.08936767     6     545    0    0    0 
C -628.15712271 -57.94874102 -33.68616824     1     544    546    547    548
H -626.60067252 -57.53908606 -32.58559123     6     545    0    0    0
H -627.39074308 -58.36129482 -35.59643309     6     545    0    0    0
C -629.45194375 -55.42230141 -33.75885815     2     545    549    550    551
H -630.82460201 -55.42929124 -35.21941073     6     548    0    0    0
H -630.55318005 -55.54470316 -32.01862612     6     548    0    0    0
C -627.63567776 -53.10676489 -33.77506565     2     548    552   553   554
H -626.22209458 -53.39696262 -32.28013395     6     551    0    0    0
H -626.64266222 -53.30309403 -35.59737176     6     551    0    0    0
C -628.83988103 -50.42520976 -33.48713159     2     551   555   556   557
H -630.42901895 -49.94324843 -34.77559422     6    554    0    0    0
H -629.69976658 -50.20071595 -31.70437723     6    554    0    0    0
C -626.83096195 -48.34823456 -33.63183296     2    554   558   559   560
H -625.56059993 -48.65501970 -32.13543939     6    557    0    0    0
H -625.70213581 -48.72559954 -35.29641570     6    557    0    0    0
C -627.77177892 -45.73507354 -33.44573791     2    557   561   562   563
H -629.24473840 -45.43855238 -34.85904436     6    560    0    0    0
H -628.93128171 -45.34943072 -31.70657519     6    560    0    0    0
C -625.76969723 -43.83303086 -33.62955815     2    560   564   565   566
H -624.87085495 -43.70545621 -31.84263446     6    563    0    0    0
H -624.52224660 -44.38966415 -35.24046400     6    563    0    0    0
C -626.88602512 -41.21809138 -34.23165193     2    563   567   568   569
H -628.10128100 -41.44187701 -35.90104973     6    566    0    0    0
H -628.09931459 -40.47907548 -32.84521039     6    566    0    0    0
C -624.82927869 -39.15393688 -34.98460072     2    566   570   571   572
H -623.71593537 -38.82142761 -33.24050214     6    569    0    0    0
H -623.50047752 -40.06035802 -36.28607396     6    569    0    0    0
C -625.82463616 -36.55467554 -35.99364171     2    569   573   574   575
H -625.58404422 -36.48963539 -37.96413404     6    572    0    0    0
H -627.76614482 -36.41379656 -35.48596414     6    572    0    0    0
C -624.51885418 -34.27054304 -34.96012693     2    572   576   577   578
H -622.44736266 -34.57114821 -34.92468730     6    575    0    0    0
H -624.93628277 -32.85920972 -36.40603361     6    575    0    0    0
C -625.50497091 -33.59443121 -32.33254033     1    575   579   580   581
H -627.28679665 -32.65896112 -32.28674104     6    578    0    0    0
H -624.00715421 -32.37564845 -31.61540584     6    578    0    0    0
H -625.61255273 -35.19311201 -30.99528128     6    578    0    0    0
H -664.20394898 -41.88074536 -27.22079657     6     583    0    0    0 
C -663.04175176 -40.36717090 -27.91315007     1     582    584    585    586
H -664.27295503 -38.81945375 -28.43084219     6     583    0    0    0
H -662.05993463 -39.58607826 -26.25205049     6     583    0    0    0
C -661.19127723 -41.21489306 -29.83025645     2     583    587    588    589
H -660.24487718 -42.63990545 -28.56453531     6     586    0    0    0
H -661.80296850 -41.99248806 -31.47228805     6     586    0    0    0
C -659.43048836 -39.02117176 -30.68219822     2     586    590   591   592
H -660.69638610 -37.63377856 -31.58089792     6     589    0    0    0
H -658.52414252 -37.97962059 -29.09082608     6     589    0    0    0
C -657.49347737 -39.76852639 -32.59972785     2     589   593   594   595
H -656.33731864 -41.27683240 -31.78725494     6    592    0    0    0
H -658.39432843 -40.63097471 -34.23819302     6    592    0    0    0
C -655.94071860 -37.35936138 -33.37945530     2    592   596   597   598
H -657.26535260 -35.70969389 -33.58353351     6    595    0    0    0
H -654.69686908 -36.83672015 -31.80464069     6    595    0    0    0
C -654.25726093 -37.74589426 -35.68945783     2    595   599   600   601
H -653.10519938 -39.35731043 -35.16700889     6    598    0    0    0
H -655.36905908 -38.63079827 -37.36816357     6    598    0    0    0
C -652.60882498 -35.38141258 -36.37005432     2    598   602   603   604
H -653.86736616 -33.90394412 -36.70995004     6    601    0    0    0
H -651.72815564 -34.48094949 -34.83714193     6    601    0    0    0
C -651.08800246 -35.84495995 -38.79495641     2    601   605   606   607
H -649.22935552 -36.69934387 -38.38745565     6    604    0    0    0
H -651.95887904 -37.24439695 -39.96264899     6    604    0    0    0
C -650.61131222 -33.41782800 -40.70724834     2    604   608   609   610
H -652.23388560 -32.39688580 -41.36970499     6    607    0    0    0
H -649.57137309 -31.90854121 -39.76921735     6    607    0    0    0
C -648.77795307 -33.98992103 -43.04466773     2    607   611   612   613
H -646.79860663 -34.46156842 -42.32401434     6    610    0    0    0
H -649.68470042 -35.60813360 -44.03637359     6    610    0    0    0
C -648.66121474 -31.88278380 -45.00089301     2    610   614   615   616
H -650.47426951 -31.09191961 -45.58963853     6    613    0    0    0
H -647.77448130 -30.26409304 -44.35775144     6    613    0    0    0
C -647.19561663 -32.67913684 -47.24024319     1    613   617   618   619
H -646.67817979 -30.97721423 -48.19376622     6    616    0    0    0
H -648.31598095 -33.71389424 -48.60944015     6    616    0    0    0
H -645.36906572 -33.62633400 -46.91518628     6    616    0    0    0
H -631.01600311 -49.22386347 -10.42454823     6     621    0    0    0 
C -633.00266904 -49.16881615 -10.97529535     1     620    622    623    624
H -633.26420452 -50.24493582 -12.70777688     6     621    0    0    0
H -633.89794346 -50.44956714 -9.63956916     6     621    0    0    0
C -634.18611662 -46.51744720 -11.08443826     2     621    625    626    627
H -635.94814385 -46.23219601 -12.14071721     6     624    0    0    0
H -634.91719074 -46.02351555 -9.15210335     6     624    0    0    0
C -632.17000502 -44.31141258 -11.56890802     2     624    628   629   630
H -630.81710416 -44.57109693 -10.01482417     6     627    0    0    0
H -630.98032021 -44.96654637 -13.08476993     6     627    0    0    0
C -633.31253915 -41.64657137 -11.77541047     2     627   631   632   633
H -632.05583884 -40.33336317 -12.79068313     6    630    0    0    0
H -634.97613313 -41.76173883 -13.02668772     6    630    0    0    0
C -634.28271824 -40.46122119 -9.24855789     2    630   634   635   636
H -635.38884320 -41.85778179 -8.27745001     6    633    0    0    0
H -632.48889763 -40.11851796 -8.37887758     6    633    0    0    0
C -636.07457679 -38.08014664 -9.51520156     2    633   637   638   639
H -635.07216699 -36.73595037 -10.80693408     6    636    0    0    0
H -637.92258658 -38.67733108 -10.36362278     6    636    0    0    0
C -636.94802865 -37.06172686 -6.99364814     2    636   640   641   642
H -638.16996739 -38.43983265 -5.84617427     6    639    0    0    0
H -635.27190215 -36.87595230 -5.84767490     6    639    0    0    0
C -638.56200297 -34.75450622 -7.15900468     2    639   643   644   645
H -637.91087984 -33.19365872 -8.26157788     6    642    0    0    0
H -640.33094980 -35.30496708 -8.00313006     6    642    0    0    0
C -638.95571225 -33.90440232 -4.47796476     2    642   646   647   648
H -639.48979694 -35.27923640 -3.16385849     6    645    0    0    0
H -637.09841092 -33.53975449 -3.78074004     6    645    0    0    0
C -640.86176505 -31.50674851 -4.19530060     2    645   649   650   651
H -640.28719003 -30.00207678 -5.54215755     6    648    0    0    0
H -642.67842175 -31.85321435 -4.95684369     6    648    0    0    0
C -641.03238997 -30.65790714 -1.47997358     2    648   652   653   654
H -641.40980158 -32.17525039 -0.07425309     6    651    0    0    0
H -639.38172361 -29.73146115 -0.80054414     6    651    0    0    0
C -642.69682957 -28.51140707 -0.83836413     1    651   655   656   657
H -644.12118308 -28.51008151 -2.25357201     6    654    0    0    0
H -641.92136857 -26.58633802 -1.03277007     6    654    0    0    0
H -643.45742032 -28.42752878 1.07379813     6    654    0    0    0
H -654.84431957 -41.51592133 -28.00447150     6     659    0    0    0 
C -654.11317827 -40.15857211 -26.47236704     1     658    660    661    662
H -654.80767647 -38.42631858 -27.02466527     6     659    0    0    0
H -655.23381208 -40.57896643 -24.81091105     6     659    0    0    0
C -651.20242982 -40.23426644 -26.00552130     2     659    663    664    665
H -650.91782291 -38.79086139 -24.47824184     6     662    0    0    0
H -650.77301819 -42.17646300 -25.08289899     6     662    0    0    0
C -649.55415230 -39.62981492 -28.36051059     2     662    666   667   668
H -647.80266612 -40.86639118 -28.18166691     6     665    0    0    0
H -650.55620159 -40.16595192 -30.19927887     6     665    0    0    0
C -648.89541328 -36.73659837 -28.59948397     2     665   669   670   671
H -650.54422457 -35.54671043 -29.06821159     6    668    0    0    0
H -648.21700764 -36.08599698 -26.78527089     6    668    0    0    0
C -646.81455915 -36.41056137 -30.53421667     2    668   672   673   674
H -645.25874658 -37.87787004 -30.39745676     6    671    0    0    0
H -647.76950488 -36.87976242 -32.26199892     6    671    0    0    0
C -645.82169315 -33.60554863 -30.68560349     2    671   675   676   677
H -647.50171360 -32.28608524 -30.85267530     6    674    0    0    0
H -644.69394534 -33.20386447 -29.02437942     6    674    0    0    0
C -643.78316729 -33.33572181 -32.75046616     2    674   678   679   680
H -642.92707608 -31.58419896 -32.44118170     6    677    0    0    0
H -642.36987019 -34.86124795 -32.29823548     6    677    0    0    0
C -644.78928746 -33.60895753 -35.45866842     2    677   681   682   683
H -645.76748796 -35.41753658 -35.49898085     6    680    0    0    0
H -646.27994307 -32.26425986 -35.82758826     6    680    0    0    0
C -643.00979559 -33.38480576 -37.62170447     2    680   684   685   686
H -641.87132402 -35.12663099 -37.78524962     6    683    0    0    0
H -644.35631631 -33.38258758 -39.13049969     6    683    0    0    0
C -641.55711130 -30.89625992 -37.68492500     2    683   687   688   689
H -642.94689496 -29.42669676 -37.00473464     6    686    0    0    0
H -639.99012916 -30.98212171 -36.38336998     6    686    0    0    0
C -640.31072168 -30.27370412 -40.26173773     2    686   690   691   692
H -639.14874458 -31.76163019 -40.92036525     6    689    0    0    0
H -641.88937966 -30.26955483 -41.66842072     6    689    0    0    0
C -638.76385671 -27.87354580 -40.31520358     1    689   693   694   695
H -638.37064462 -27.77644653 -42.40034667     6    692    0    0    0
H -637.09478182 -27.72611134 -39.11238724     6    692    0    0    0
H -639.96852990 -26.12863790 -39.94331734     6    692    0    0    0
H -618.40615284 -34.74087365 -33.47902802     6     697    0    0    0 
C -617.15589941 -33.87643997 -32.18319264     1     696    698    699    700
H -615.35985527 -33.27206525 -33.02003188     6     697    0    0    0
H -617.87758523 -32.02932817 -31.43417177     6     697    0    0    0
C -616.50770247 -35.42497004 -29.79875726     2     697    701    702    703
H -615.39780072 -34.19923548 -28.48352164     6     700    0    0    0
H -618.21428121 -35.74006497 -28.96594250     6     700    0    0    0
C -615.12172659 -37.96924150 -30.54740682     2     700    704   705   706
H -613.27959294 -37.68940057 -31.32809972     6     703    0    0    0
H -614.53137284 -38.90395521 -28.82520117     6     703    0    0    0
C -616.87231862 -39.67777944 -32.06545423     2     703   707   708   709
H -618.43083614 -40.06807094 -30.90186433     6    706    0    0    0
H -617.50292132 -38.79733786 -33.74590896     6    706    0    0    0
C -615.76698088 -42.29239252 -32.76722660     2    706   710   711   712
H -614.20303204 -42.11174921 -34.00935081     6    709    0    0    0
H -615.04380604 -42.91378006 -30.98186457     6    709    0    0    0
C -617.79731682 -44.13949075 -33.79639115     2    709   713   714   715
H -619.51423189 -43.81417038 -32.61003629     6    712    0    0    0
H -618.44085000 -43.57670862 -35.71881552     6    712    0    0    0
C -616.84747828 -46.86720012 -34.15757915     2    712   716   717   718
H -616.10729896 -46.86577004 -36.04746514     6    715    0    0    0
H -615.43948321 -47.66592642 -32.92571388     6    715    0    0    0
C -619.05053050 -48.91017113 -33.73355517     2    715   719   720   721
H -619.31555090 -49.08058366 -31.71979989     6    718    0    0    0
H -620.80684500 -47.85466146 -34.26836819     6    718    0    0    0
C -618.74454648 -51.47253564 -34.82269388     2    718   722   723   724
H -618.35559339 -51.16047074 -36.79865332     6    721    0    0    0
H -616.91711403 -52.46244390 -34.11644215     6    721    0    0    0
C -620.90649315 -53.23308683 -34.56261034     2    721   725   726   727
H -621.17939145 -53.52827298 -32.58036538     6    724    0    0    0
H -622.57091041 -52.37801456 -35.38481031     6    724    0    0    0
C -620.56921192 -55.88170218 -35.78284869     2    724   728   729   730
H -618.83292236 -56.72662774 -35.15845345     6    727    0    0    0
H -621.97081296 -57.14366681 -34.84976786     6    727    0    0    0
C -621.02550572 -55.98408751 -38.65287938     1    727   731   732   733
H -620.52388564 -57.87346793 -39.30704881     6    730    0    0    0
H -619.83749771 -54.44773575 -39.37019032     6    730    0    0    0
H -622.97750140 -55.81486498 -39.28436269     6    730    0    0    0
H -648.40904716 -60.79894651 -45.31267235     6     735    0    0    0 
C -650.29812131 -61.61687190 -45.83108852     1     734    736    737    738
H -650.39275090 -61.26758231 -47.84416962     6     735    0    0    0
H -650.17081411 -63.66018453 -45.69892032     6     735    0    0    0
C -652.62643936 -60.37520918 -44.54778070     2     735    739    740    741
H -652.52033345 -58.26581972 -44.77655194     6     738    0    0    0
H -654.20154170 -61.01202278 -45.59060359     6     738    0    0    0
C -652.95079285 -61.21358881 -41.83246796     2     738    742   743   744
H -653.53431173 -63.09513976 -41.40262609     6     741    0    0    0
H -651.23905121 -60.94331656 -40.71493598     6     741    0    0    0
C -655.16097339 -59.51845989 -40.72369816     2     741   745   746   747
H -654.87209141 -57.66987812 -41.32247632     6    744    0    0    0
H -656.74411143 -60.16163393 -41.74253647     6    744    0    0    0
C -655.67631242 -59.89780079 -37.93560027     2    744   748   749   750
H -654.14480068 -59.18532867 -36.75991460     6    747    0    0    0
H -657.14552319 -58.63449599 -37.63455521     6    747    0    0    0
C -656.63509358 -62.38403608 -37.00412922     2    747   751   752   753
H -658.24404618 -62.55423892 -38.27112784     6    750    0    0    0
H -655.10633924 -63.69041249 -37.38881633     6    750    0    0    0
C -657.37584494 -62.06351502 -34.25641075     2    750   754   755   756
H -655.69148529 -62.00570201 -33.04827864     6    753    0    0    0
H -658.28824126 -60.20332481 -33.97684939     6    753    0    0    0
C -659.27520042 -63.84411375 -33.31206676     2    753   757   758   759
H -660.86487023 -63.60013414 -34.56508973     6    756    0    0    0
H -658.54253395 -65.73437020 -33.69629355     6    756    0    0    0
C -660.22704632 -63.56252868 -30.44353943     2    756   760   761   762
H -658.55943428 -62.83628917 -29.35857924     6    759    0    0    0
H -661.78556202 -62.12783268 -30.16363896     6    759    0    0    0
C -661.41040976 -65.89744968 -29.17127466     2    759   763   764   765
H -663.14825168 -66.44835529 -30.09177449     6    762    0    0    0
H -660.04366564 -67.28351811 -29.53579999     6    762    0    0    0
C -661.54052176 -65.71713127 -26.22166141     2    762   766   767   768
H -659.62619718 -65.39282241 -25.78053553     6    765    0    0    0
H -662.51744735 -64.02109375 -25.48708796     6    765    0    0    0
C -662.47303934 -68.13673671 -24.98531138     1    765   769   770   771
H -664.36871093 -68.59017564 -25.66290680     6    768    0    0    0
H -662.27388591 -67.84333090 -22.97659598     6    768    0    0    0
H -661.20628576 -69.62644248 -25.49251325     6    768    0    0    0
H -640.67539616 -41.11308749 -3.52847052     6     773    0    0    0 
C -640.66708564 -41.32606013 -1.54542228     1     772    774    775    776
H -639.85117081 -39.65589491 -0.75446427     6     773    0    0    0
H -642.68999777 -41.46037893 -1.20413643     6     773    0    0    0
C -639.17088664 -43.49663011 -0.73099122     2     773    777    778    779
H -638.17877464 -43.01048542 1.08265593     6     776    0    0    0
H -640.61318912 -45.00457966 -0.40108395     6     776    0    0    0
C -637.05136730 -44.41773347 -2.48468614     2     776    780   781   782
H -637.87462241 -45.07448754 -4.15034109     6     779    0    0    0
H -635.77928634 -42.90126604 -3.11181199     6     779    0    0    0
C -635.04811412 -46.34201534 -1.25832126     2     779   783   784   785
H -634.06287257 -45.61883157 0.40839510     6    782    0    0    0
H -636.19449599 -47.94106168 -0.90744063     6    782    0    0    0
C -632.86409856 -47.08677679 -2.97084227     2    782   786   787   788
H -633.48950437 -47.34133728 -4.84188248     6    785    0    0    0
H -631.42291387 -45.64216261 -2.92945439     6    785    0    0    0
C -631.56268166 -49.63807444 -2.38339491     2    785   789   790   791
H -630.70891041 -49.58886768 -0.56303043     6    788    0    0    0
H -632.95752446 -51.09380802 -2.25301849     6    788    0    0    0
C -629.60050185 -50.50068626 -4.29880447     2    788   792   793   794
H -630.24589376 -49.68791228 -6.22604866     6    791    0    0    0
H -627.65134804 -49.81712028 -3.89679324     6    791    0    0    0
C -629.62887468 -53.32569173 -4.75535370     2    791   795   796   797
H -629.08547452 -54.34410786 -3.15638348     6    794    0    0    0
H -631.51164418 -54.12180064 -5.08411146     6    794    0    0    0
C -627.84332455 -54.27432229 -6.85032497     2    794   798   799   800
H -628.26858847 -52.99381496 -8.48761249     6    797    0    0    0
H -625.95267980 -53.65100644 -6.35631333     6    797    0    0    0
C -627.88217675 -57.09523178 -7.37603588     2    797   801   802   803
H -627.43101292 -57.98025729 -5.62864552     6    800    0    0    0
H -629.70276279 -57.73528074 -7.86001284     6    800    0    0    0
C -626.00678095 -57.90790039 -9.40521231     2    800   804   805   806
H -626.32590942 -56.98114958 -11.17750278     6    803    0    0    0
H -624.03555018 -57.45319337 -9.10129154     6    803    0    0    0
C -626.27139298 -60.74557922 -10.04463534     1    803   807   808   809
H -624.84395359 -61.33273669 -11.41253122     6    806    0    0    0
H -628.04690137 -61.21730628 -10.98082117     6    806    0    0    0
H -626.21343554 -61.79468337 -8.37157636     6    806    0    0    0
H -654.36144226 -50.07569333 -23.12165446     6     811    0    0    0 
C -655.72785999 -48.92760807 -22.13858184     1     810    812    813    814
H -655.33156480 -46.85307683 -22.61994553     6     811    0    0    0
H -657.47753395 -49.51360483 -22.91803976     6     811    0    0    0
C -655.52365223 -49.55272729 -19.26280420     2     811    815    816    817
H -653.75126479 -48.88450609 -18.64890693     6     814    0    0    0
H -657.00860870 -48.50517068 -18.40201205     6     814    0    0    0
C -655.81283544 -52.32594223 -18.55680267     2     814    818   819   820
H -657.62870703 -53.06411169 -19.31597540     6     817    0    0    0
H -654.26365041 -53.56974637 -19.24030932     6     817    0    0    0
C -655.84843711 -53.01985068 -15.76377853     2     817   821   822   823
H -654.21586725 -52.23052168 -14.75838151     6    820    0    0    0
H -657.47370444 -51.99249086 -15.13315128     6    820    0    0    0
C -656.13130053 -55.85811474 -15.24316062     2    820   824   825   826
H -657.81319558 -56.55692386 -16.27710531     6    823    0    0    0
H -654.32793133 -56.63874690 -15.76363368     6    823    0    0    0
C -656.40493844 -56.35285355 -12.43377842     2    823   827   828   829
H -654.63675110 -55.72320723 -11.43407144     6    826    0    0    0
H -657.86637063 -55.28553728 -11.75049184     6    826    0    0    0
C -656.90005118 -59.27049581 -12.20520951     2    826   830   831   832
H -658.61649817 -59.74453656 -13.18351189     6    829    0    0    0
H -655.30298364 -60.12223775 -12.93286883     6    829    0    0    0
C -657.33455560 -60.06798249 -9.36336737     2    829   833   834   835
H -655.92399736 -59.25751777 -8.02041877     6    832    0    0    0
H -659.01498975 -59.04410528 -8.55561095     6    832    0    0    0
C -657.70709303 -62.81264221 -9.19540038     2    832   836   837   838
H -659.40944281 -63.32273981 -10.42336870     6    835    0    0    0
H -656.23389176 -63.66518119 -10.10154701     6    835    0    0    0
C -658.02151356 -63.61229004 -6.45645757     2    835   839   840   841
H -656.78089738 -62.57090783 -5.27216120     6    838    0    0    0
H -660.00157935 -63.16339210 -5.73232714     6    838    0    0    0
C -657.90087893 -66.39335250 -6.03829128     2    838   842   843   844
H -658.86230089 -67.23748038 -7.55270696     6    841    0    0    0
H -655.94034007 -67.04177635 -6.23023870     6    841    0    0    0
C -658.92519951 -67.23408390 -3.38980929     1    841   845   846   847
H -658.55758703 -66.33547100 -1.63783584     6    844    0    0    0
H -658.48486360 -69.28895936 -3.13773981     6    844    0    0    0
H -661.02058487 -67.10046371 -3.54096737     6    844    0    0    0
H -638.00467105 -16.64910067 -43.60966511     6     849    0    0    0 
C -637.08666477 -17.25727219 -41.88927006     1     848    850    851    852
H -635.13411261 -17.81639026 -42.28151385     6     849    0    0    0
H -637.01037266 -15.46363497 -40.81797139     6     849    0    0    0
C -638.53604379 -19.50438150 -40.81056430     2     849    853    854    855
H -640.31462121 -20.03461411 -41.87374515     6     852    0    0    0
H -637.47109934 -21.25579452 -40.80204644     6     852    0    0    0
C -639.35934768 -19.04876802 -37.93183720     2     852    856   857   858
H -637.78681695 -18.64417086 -36.64333200     6     855    0    0    0
H -640.93540212 -17.64424094 -37.68256620     6     855    0    0    0
C -640.42862509 -21.42539201 -36.62770221     2     855   859   860   861
H -641.97131940 -22.14384500 -37.94488808     6    858    0    0    0
H -638.80422769 -22.79822435 -36.38181516     6    858    0    0    0
C -641.64615283 -20.92642143 -34.12196270     2    858   862   863   864
H -640.21550265 -20.57015525 -32.85418718     6    861    0    0    0
H -642.92445352 -19.29173372 -34.14700473     6    861    0    0    0
C -643.14847359 -23.35438904 -33.13260084     2    861   865   866   867
H -644.58594133 -23.75765762 -34.56799400     6    864    0    0    0
H -641.81707008 -24.85081507 -33.22042648     6    864    0    0    0
C -644.31293125 -23.39867040 -30.34019539     2    864   868   869   870
H -642.80540407 -22.53146236 -28.94549785     6    867    0    0    0
H -645.80117853 -22.08336732 -30.46594719     6    867    0    0    0
C -645.04650767 -25.98762933 -29.41093311     2    867   871   872   873
H -646.33669912 -26.90751959 -30.77008585     6    870    0    0    0
H -643.34259697 -27.24391448 -29.49918661     6    870    0    0    0
C -646.30410281 -25.94916617 -26.95470176     2    870   874   875   876
H -646.51173543 -27.89255312 -26.35744280     6    873    0    0    0
H -645.06702975 -25.00023768 -25.58641133     6    873    0    0    0
C -648.97571830 -24.80975470 -27.22315412     2    873   877   878   879
H -648.87285387 -22.97451575 -28.28066120     6    876    0    0    0
H -650.10626021 -26.12712765 -28.51050481     6    876    0    0    0
C -650.60175800 -24.38172361 -24.78056075     2    876   880   881   882
H -651.19935500 -26.11497184 -23.97769426     6    879    0    0    0
H -649.30453561 -23.76344365 -23.35969911     6    879    0    0    0
C -652.95967561 -22.58905378 -25.13622178     1    879   883   884   885
H -653.29280481 -23.02900878 -27.09748340     6    882    0    0    0
H -652.22477629 -20.52169119 -24.98240678     6    882    0    0    0
H -654.57999912 -23.08367193 -23.88818077     6    882    0    0    0
H -649.85609475 -55.80166576 -16.47181625     6     887    0    0    0 
C -648.31476236 -54.59521852 -15.80657273     1     886    888    889    890
H -649.26956871 -52.96002502 -15.09556399     6     887    0    0    0
H -647.20986228 -55.55019396 -14.38721426     6     887    0    0    0
C -646.87931741 -53.72418268 -18.12596226     2     887    891    892    893
H -645.13365732 -52.72684983 -17.55113883     6     890    0    0    0
H -646.41235558 -55.52593812 -19.04010096     6     890    0    0    0
C -648.55761318 -51.94629675 -19.81839052     2     890    894   895   896
H -650.05493862 -52.74944110 -21.07104641     6     893    0    0    0
H -649.47889909 -50.36400810 -18.72715447     6     893    0    0    0
C -646.92750936 -50.51822551 -21.86451678     2     893   897   898   899
H -645.33370795 -49.45500140 -20.94831399     6    896    0    0    0
H -645.96383179 -51.89567669 -23.01900078     6    896    0    0    0
C -648.42701964 -48.94426350 -23.66381635     2    896   900   901   902
H -649.72587657 -50.41395170 -24.56612835     6    899    0    0    0
H -649.49064094 -47.76990373 -22.52122497     6    899    0    0    0
C -646.68213761 -47.51372761 -25.60691880     2    899   903   904   905
H -645.83518999 -45.78299256 -24.77670668     6    902    0    0    0
H -645.26233646 -48.80164520 -26.08416023     6    902    0    0    0
C -648.11472594 -47.11290289 -28.11115298     2    902   906   907   908
H -648.85062609 -48.92370154 -28.75923251     6    905    0    0    0
H -649.58472542 -45.77049582 -27.73717504     6    905    0    0    0
C -646.56526362 -45.76493376 -30.13214030     2    905   909   910   911
H -645.84822259 -44.04461982 -29.39805181     6    908    0    0    0
H -645.00470248 -47.06264453 -30.57362353     6    908    0    0    0
C -648.11334265 -45.21617372 -32.49114283     2    908   912   913   914
H -649.10993740 -46.72371711 -33.10744362     6    911    0    0    0
H -649.48963719 -43.77238797 -32.32902713     6    911    0    0    0
C -646.25060022 -44.42196001 -34.54269370     2    911   915   916   917
H -645.37947177 -42.67229547 -33.95274146     6    914    0    0    0
H -644.81089814 -45.88356416 -34.56442600     6    914    0    0    0
C -647.33361328 -44.32304907 -37.16852431     2    914   918   919   920
H -647.33842310 -46.14039140 -37.84405295     6    917    0    0    0
H -649.35006522 -44.07053492 -37.19415624     6    917    0    0    0
C -645.95763822 -42.65481923 -39.03557599     1    917   921   922   923
H -644.03560404 -43.37060920 -39.38432604     6    920    0    0    0
H -645.64745253 -40.64868831 -38.37754817     6    920    0    0    0
H -646.93555623 -42.44646381 -40.90077487     6    920    0    0    0
H -642.26936679 -26.55580482 -17.43335252     6     925    0    0    0 
C -643.81397008 -25.58582002 -16.44055238     1     924    926    927    928
H -643.10285040 -24.73259549 -14.65359319     6     925    0    0    0
H -644.55878061 -24.23365288 -17.82884506     6     925    0    0    0
C -645.87764844 -27.62062431 -16.04989994     2     925    929    930    931
H -645.24319304 -28.98540955 -14.80597580     6     928    0    0    0
H -647.59061757 -26.78161204 -15.31865406     6     928    0    0    0
C -646.71586695 -28.97144943 -18.46458451     2     928    932   933   934
H -647.52915694 -27.56081282 -19.81048083     6     931    0    0    0
H -645.22985081 -29.98975066 -19.39517794     6     931    0    0    0
C -648.99767689 -30.70254814 -18.06084609     2     931   935   936   937
H -648.63163542 -32.04116667 -16.52914659     6    934    0    0    0
H -650.75133592 -29.68153028 -17.58100831     6    934    0    0    0
C -649.78588592 -32.21570101 -20.44338606     2    934   938   939   940
H -650.15155374 -30.91856542 -21.84327524     6    937    0    0    0
H -648.16632981 -33.23185759 -21.35960542     6    937    0    0    0
C -651.94847009 -34.04749224 -19.88513835     2    937   941   942   943
H -651.21196321 -35.78069368 -18.90877665     6    940    0    0    0
H -653.13610789 -33.29674877 -18.34912549     6    940    0    0    0
C -653.28149141 -34.53315677 -22.30202666     2    940   944   945   946
H -651.97261299 -34.38543377 -23.87472956     6    943    0    0    0
H -653.75488825 -36.40934054 -22.30908197     6    943    0    0    0
C -655.56562200 -32.60064674 -22.80708972     2    943   947   948   949
H -656.97258245 -32.85654025 -21.34525594     6    946    0    0    0
H -654.88365353 -30.62087680 -22.78987345     6    946    0    0    0
C -656.89753005 -33.32122899 -25.36164875     2    946   950   951   952
H -655.71961724 -33.28492355 -27.01239101     6    949    0    0    0
H -657.64644688 -35.16232927 -25.54021359     6    949    0    0    0
C -659.05574411 -31.44439609 -25.91503031     2    949   953   954   955
H -660.56984234 -31.81529425 -24.60775923     6    952    0    0    0
H -658.31491700 -29.52515624 -25.56410186     6    952    0    0    0
C -660.01350523 -31.63999419 -28.56908207     2    952   956   957   958
H -658.35588584 -31.78638054 -29.78296724     6    955    0    0    0
H -661.09088522 -33.38003208 -28.93103306     6    955    0    0    0
C -661.77917736 -29.39952863 -29.43779084     1    955   959   960   961
H -662.35168921 -29.10965949 -31.44543952     6    958    0    0    0
H -660.95650395 -27.69165494 -28.93635798     6    958    0    0    0
H -663.38157938 -29.66808736 -28.41775792     6    958    0    0    0
H -646.64677084 -67.38772549 -29.00234139     6     963    0    0    0 
C -645.83682923 -66.76657598 -27.28646878     1     962    964    965    966
H -645.65464587 -64.72455398 -27.72766553     6     963    0    0    0
H -647.15762773 -67.11946106 -25.74332063     6     963    0    0    0
C -643.39121077 -68.09200820 -26.86659977     2     963    967    968    969
H -642.65526840 -67.72128545 -24.87301291     6     966    0    0    0
H -643.49626630 -70.11607516 -26.90367821     6     966    0    0    0
C -641.27852852 -67.36590284 -28.68940676     2     966    970   971   972
H -642.07623210 -67.09905608 -30.66709257     6     969    0    0    0
H -640.63893983 -65.53425668 -28.22198015     6     969    0    0    0
C -639.03320692 -69.15258356 -28.50658098     2     969   973   974   975
H -638.16626156 -69.24686031 -26.66887494     6    972    0    0    0
H -639.52731941 -71.09657307 -28.89995085     6    972    0    0    0
C -636.98345343 -68.60691764 -30.61169762     2    972   976   977   978
H -637.99562278 -69.16262329 -32.46631748     6    975    0    0    0
H -636.65637557 -66.49226395 -30.41300703     6    975    0    0    0
C -634.56112899 -70.04568523 -30.28353546     2    975   979   980   981
H -634.07629849 -70.07298753 -28.30079398     6    978    0    0    0
H -634.57584597 -72.04858218 -30.97492392     6    978    0    0    0
C -632.15528933 -68.66260613 -31.51414633     2    978   982   983   984
H -632.46564682 -68.23317056 -33.46068521     6    981    0    0    0
H -631.86306777 -66.86266385 -30.47071477     6    981    0    0    0
C -629.77292376 -70.23097406 -31.14495091     2    981   985   986   987
H -629.31273426 -70.44458795 -29.10621587     6    984    0    0    0
H -630.10185381 -72.18795968 -31.69288790     6    984    0    0    0
C -627.37644649 -69.22045610 -32.17900838     2    984   988   989   990
H -625.92678515 -70.76964538 -31.77967355     6    987    0    0    0
H -627.51712415 -69.09072737 -34.26222317     6    987    0    0    0
C -626.60576804 -66.58091938 -31.01782952     2    987   991   992   993
H -628.06626294 -65.39839093 -31.77294113     6    990    0    0    0
H -626.58472365 -66.54405663 -28.94865945     6    990    0    0    0
C -624.10087318 -65.77295403 -31.89569874     2    990   994   995   996
H -622.61278749 -66.38321415 -30.55053594     6    993    0    0    0
H -623.57264902 -66.43182661 -33.75801169     6    993    0    0    0
C -624.00306032 -62.88781594 -32.01780778     1    993   997   998   999
H -625.28429243 -62.40713736 -33.38772674     6    996    0    0    0
H -622.22805865 -62.38092783 -32.69580896     6    996    0    0    0
H -624.22421567 -62.17496585 -30.24785010     6    996    0    0    0
H -649.84864279 -74.82408701 -23.77703497     6     1001    0    0    0 
C -649.09698885 -75.89962544 -25.41627240     1     1000    1002    1003    1004
H -648.49734170 -77.82627435 -24.82105070     6     1001    0    0    0
H -650.70142920 -76.05067995 -26.70878236     6     1001    0    0    0
C -646.87351833 -74.37814702 -26.67598717     2     1001    1005    1006    1007
H -647.84734671 -72.85374146 -27.40297966     6     1004    0    0    0
H -645.44249550 -74.01188269 -25.28853707     6     1004    0    0    0
C -645.74673845 -76.16448499 -28.81714957     2     1004    1008   1009   1010
H -644.73840422 -77.85488004 -28.13293130     6     1007    0    0    0
H -647.22575222 -77.03266587 -29.99686625     6     1007    0    0    0
C -643.70446481 -74.98981163 -30.66083649     2     1007   1011   1012   1013
H -644.13522958 -72.97651789 -31.05867233     6    1010    0    0    0
H -641.82769007 -74.90751386 -29.68426595     6    1010    0    0    0
C -643.38876755 -76.60913102 -32.97317341     2    1010   1014   1015   1016
H -643.36524992 -78.62298815 -32.50749179     6    1013    0    0    0
H -644.93920673 -76.65950903 -34.28899752     6    1013    0    0    0
C -641.09764327 -75.78231069 -34.65590676     2    1013   1017   1018   1019
H -641.40537177 -73.82891861 -35.33003677     6    1016    0    0    0
H -639.49570530 -75.47356091 -33.36508729     6    1016    0    0    0
C -640.35880990 -77.51593699 -36.84571769     2    1016   1020   1021   1022
H -639.74889667 -79.26199089 -35.92026357     6    1019    0    0    0
H -642.03450833 -77.89462417 -38.07691296     6    1019    0    0    0
C -638.23428315 -76.47130179 -38.36939694     2    1019   1023   1024   1025
H -636.78297382 -75.90683542 -37.03339932     6    1022    0    0    0
H -637.37389917 -78.29443883 -39.18394661     6    1022    0    0    0
C -638.74374102 -74.40236709 -40.28927943     2    1022   1026   1027   1028
H -640.50706456 -74.80245010 -41.14619161     6    1025    0    0    0
H -638.69499896 -72.80581179 -39.08618757     6    1025    0    0    0
C -636.64708556 -74.47831307 -42.33439535     2    1025   1029   1030   1031
H -634.79921106 -74.35445868 -41.44795416     6    1028    0    0    0
H -636.83397990 -76.17396791 -43.45076612     6    1028    0    0    0
C -636.73769581 -72.19966271 -43.93731402     2    1028   1032   1033   1034
H -638.74967117 -71.87159197 -44.68013072     6    1031    0    0    0
H -636.17974775 -70.64920745 -42.57952345     6    1031    0    0    0
C -634.84776069 -72.49169139 -46.01839633     1    1031   1035   1036   1037
H -633.07843065 -73.47937957 -45.63736880     6    1034    0    0    0
H -634.45525088 -70.54237084 -46.79628810     6    1034    0    0    0
H -635.59306314 -73.37801463 -47.70787263     6    1034    0    0    0
H -640.43494944 -49.88168556 -4.11736602     6     1039    0    0    0 
C -641.66871473 -50.22947766 -2.44725124     1     1038    1040    1041    1042
H -641.86578543 -52.30125073 -2.16746767     6     1039    0    0    0
H -640.72992198 -49.32174173 -0.72028033     6     1039    0    0    0
C -644.13788188 -48.75345726 -2.78089114     2     1039    1043    1044    1045
H -643.54843744 -46.75760583 -2.70814775     6     1042    0    0    0
[...]
 1619      H    -625.2993913400   -51.1238420400   -10.7445362400
 1620      H    -623.0276604300   -49.6678979300   -12.9170368600
 1621      C    -621.6079560500   -52.5598832300   -10.6150740000
 1622      H    -622.0461125600   -53.8155616700    -8.9246888700
 1623      H    -621.8654181200   -53.7233348900   -12.3017170100
 1624      C    -618.7744178400   -51.8601626800   -10.2705817300
 1625      H    -617.9862881300   -50.8084442000   -11.8306849200
 1626      H    -618.7237402700   -50.6134663800    -8.7152490000
 1627      C    -617.1658552100   -54.3634732100    -9.8200525000
 1628      H    -618.0175009100   -55.3718992400    -8.1378797900
 1629      H    -617.3096238900   -55.4873205600   -11.5338010000
 1630      C    -614.3316046500   -54.0675215900    -9.2576592400
 1631      H    -613.4902750700   -53.3486589200   -10.9246576200
 1632      H    -613.7470597100   -52.8416811900    -7.7323152300
 1633      C    -612.9118102700   -56.6053473600    -8.8913511900
 1634      H    -614.3123326400   -58.0190971500    -8.0949820900
 1635      H    -612.3451122900   -57.4043185600   -10.6735513800
 1636      C    -610.6153570500   -56.3650098800    -7.2033275600
 1637      H    -609.3759490500   -54.6471517000    -7.5571350100
 1638      H    -611.4152332300   -56.0858105100    -5.3355157700
 1639      C    -608.6728518000   -58.5412645100    -7.2053387000
 1640      H    -608.4905286600   -59.0623130600    -9.1465443100
 1641      H    -606.9054998600   -57.7313144400    -6.5359290000
 1642      C    -609.7698553700   -61.0678241400    -5.9236523900
 1643      H    -610.5438362200   -60.6793023700    -4.1263712800
 1644      H    -608.1003841600   -62.1942441000    -5.4523781500
 1645      H    -611.2678789500   -62.0903566100    -6.9797301100
 1646      H    -641.3896573900   -69.5088046600     2.8685080400
 1647      C    -643.1526106000   -70.5202359400     3.1897409500
 1648      H    -642.9645606300   -71.7965709300     4.8027727800
 1649      H    -644.7815900000   -69.2680330500     3.5550236800
 1650      C    -643.8132559700   -71.7509433300     0.7080061500
 1651      H    -645.4262368400   -72.9222318200     0.9831458100
 1652      H    -644.5658152100   -70.3043961700    -0.4113187100
 1653      C    -641.8074689500   -73.3216964500    -0.5448252000
 1654      H    -641.0368607400   -74.7633109200     0.7662554900
 1655      H    -642.5120643400   -74.4153776500    -2.0590496300
 1656      C    -639.8049239000   -71.6131139900    -1.9052333300
 1657      H    -640.7051119100   -70.1585258800    -3.0350681600
 1658      H    -638.6880115300   -70.7363148700    -0.3847050800
 1659      C    -637.9507459900   -73.0844668200    -3.5121459400
 1660      H    -637.0657558500   -74.4784388900    -2.2442807100
 1661      H    -638.9986582600   -74.1269672400    -5.1376600800
 1662      C    -635.7647208300   -71.5949093500    -4.8225143700
 1663      H    -636.4239224900   -70.0706341800    -6.1063413000
 1664      H    -634.5188487700   -70.7562843300    -3.4247716500
 1665      C    -634.1915773300   -73.2959903100    -6.6708659700
 1666      H    -633.5174976500   -74.9012006800    -5.4662369900
 1667      H    -635.5772736200   -73.9563851400    -8.0194775500
 1668      C    -632.1417149500   -71.7562875900    -7.9209392400
 1669      H    -632.8409954500   -70.4289881700    -9.4027052000
 1670      H    -631.1968382700   -70.4880122200    -6.5001210900
 1671      C    -629.8279353600   -73.2893015900    -8.7781349100
 1672      H    -629.2313815600   -74.8969102300    -7.5065109700
 1673      H    -630.5063491600   -74.1823630700   -10.5248258800
 1674      C    -627.4452418300   -71.6366079600    -9.4721954400
 1675      H    -627.8933388600   -69.6439807600    -9.7651595500
 1676      H    -626.3363814500   -71.6414656500    -7.7226635800
 1677      C    -625.7112083000   -72.9225456700   -11.4459725200
 1678      H    -625.3688224900   -74.8417065500   -10.9688106400
 1679      H    -626.5828481000   -72.8609056600   -13.3223790000
 1680      C    -623.3217720600   -71.4598561500   -12.0336289200
 1681      H    -622.1922240100   -72.6609425500   -13.3410025800
 1682      H    -622.1199461200   -71.1488641800   -10.3945395700
 1683      H    -623.7394125600   -69.6395753200   -12.9731198500
 1684      H    -646.5911681000   -76.7720634200   -18.9560506300
 1685      C    -645.0416370800   -75.5815707600   -19.2013932900
 1686      H    -643.7572258200   -76.3043693500   -17.7966680400
 1687      H    -644.0802647200   -75.8438852000   -20.9597857500
 1688      C    -645.4702685000   -72.8244836400   -18.8156941400
 1689      H    -646.8865094900   -72.0825335800   -20.2392803000
 1690      H    -646.5581870300   -72.1814261000   -17.1179057100
 1691      C    -643.1993777000   -71.1631428900   -19.7647084400
 1692      H    -641.4673497100   -72.1744852700   -19.3698638900
 1693      H    -643.5244301200   -70.9102176600   -21.7491555700
 1694      C    -643.2893244200   -68.5805638700   -18.3959614700
 1695      H    -645.1033767600   -67.6348977700   -18.8927528800
 1696      H    -643.2906893700   -68.8878598200   -16.2975122900
 1697      C    -641.0490306300   -66.6729547400   -18.7369344600
 1698      H    -639.3962785900   -67.6861733300   -18.1672891200
 1699      H    -641.0170444900   -66.2607741300   -20.8098584700
 1700      C    -641.4990068700   -64.1482932200   -17.4872574900
 1701      H    -643.4533373300   -63.4881137300   -17.9265209500
 1702      H    -641.4824317500   -64.3552013800   -15.4701740800
 1703      C    -639.5770149700   -62.0726705800   -18.2374122600
 1704      H    -637.7279836100   -62.6908490400   -17.8663835900
 1705      H    -639.8541614600   -61.7427551700   -20.1716033600
 1706      C    -640.4223629900   -59.7685568200   -16.5240838600
 1707      H    -640.0383462900   -58.1732531900   -17.7465261200
 1708      H    -642.4604137800   -59.7058229700   -16.1341932400
 1709      C    -638.7129707600   -59.5571032600   -13.9997147100
 1710      H    -639.0367517100   -61.4220787700   -12.9930013500
 1711      H    -636.7238152600   -59.5007908100   -14.3381233000
 1712      C    -639.3680758200   -57.1465967200   -12.5118242500
 1713      H    -639.0098604900   -55.5364099800   -13.8046056500
 1714      H    -641.4513800200   -57.2691328100   -12.4245356600
 1715      C    -638.3759695700   -56.6801000200    -9.7834476800
 1716      H    -639.4840021000   -55.1794406600    -8.7897924800
 1717      H    -638.7840503700   -58.4323243900    -8.7304083200
 1718      C    -635.5330251100   -56.1728803300    -9.7377536200
 1719      H    -634.9446418000   -54.7792682100   -11.1079343900
 1720      H    -634.3542711900   -57.7738066400   -10.2504447600
 1721      H    -635.0043548400   -55.7090201000    -7.7812434100
 1722      H    -628.6244816000   -71.4997808900   -43.7468348900
 1723      C    -627.5817464200   -70.6895784700   -42.0614991600
 1724      H    -628.2546712000   -72.0416298500   -40.5452518700
 1725      H    -625.5806988700   -70.8419222800   -42.1144771700
 1726      C    -628.0318965500   -67.8338783300   -41.4683109700
 1727      H    -626.9156885700   -67.3433836100   -39.6741880800
 1728      H    -627.2795190700   -66.7265096500   -43.0671241300
 1729      C    -630.8988376700   -67.1325293700   -41.0155750800
 1730      H    -631.6962818000   -66.5045699800   -42.7979579900
 1731      H    -632.0105667900   -68.7087881900   -40.2729939500
 1732      C    -631.1492949500   -64.9593289500   -39.1091677900
 1733      H    -630.2663501600   -65.4292297900   -37.3845229800
 1734      H    -630.1258780100   -63.3027810700   -39.7534024300
 1735      C    -633.8588521300   -64.0979634400   -39.0161132700
 1736      H    -634.6024448600   -63.8775666600   -40.9443707000
 1737      H    -635.1486069500   -65.5549666200   -38.4250490000
 1738      C    -633.9850193700   -61.6454803700   -37.6115258500
 1739      H    -633.3270612400   -62.0241110200   -35.7365466100
 1740      H    -632.6640246500   -60.3261510900   -38.4058491300
 1741      C    -636.4125823000   -60.2082150000   -37.7488051300
 1742      H    -636.8402577300   -59.7025380500   -39.6672131100
 1743      H    -637.9931020500   -61.4356879600   -37.1905150500
 1744      C    -636.2819176400   -58.0802919800   -35.8215985900
 1745      H    -636.0903282000   -58.6802426900   -33.8257025700
 1746      H    -634.7144614300   -56.8828181000   -36.1861854900
 1747      C    -638.7992607900   -56.6024434900   -35.9517527900
 1748      H    -639.4382840100   -56.1687779900   -37.8734400400
 1749      H    -639.9564328000   -58.0117129300   -35.3042997800
 1750      C    -638.9187186500   -54.2308988700   -34.2668806200
 1751      H    -638.5897161200   -54.7425382300   -32.2518858200
 1752      H    -637.5860662800   -52.6938626000   -34.8263714700
 1753      C    -641.4813493200   -52.9608891700   -34.3482057800
 1754      H    -641.8162856700   -52.7929480700   -36.3761691700
 1755      H    -642.8361750400   -54.3608293000   -33.6220390300
 1756      C    -641.5706826900   -50.2557729200   -33.2240624000
 1757      H    -640.1409519100   -49.1276029200   -34.1138309000
 1758      H    -641.3588925600   -50.3148347600   -31.1969488500
 1759      H    -643.4544650100   -49.5484389600   -33.8660881100
 1760      H    -620.1158690700   -48.5065904500   -51.2289080400
 1761      C    -621.8163933200   -49.6847159800   -51.5499680900
 1762      H    -623.2852780000   -49.1259368300   -50.1549110000
 1763      H    -622.7440939500   -49.4311663600   -53.4466054500
 1764      C    -620.7253580400   -52.4350874100   -51.3076195800
 1765      H    -619.1791940300   -52.8734901300   -52.6522050100
 1766      H    -619.8018960000   -52.6639339800   -49.5478047800
 1767      C    -622.6314793200   -54.6017202800   -51.5703779700
 1768      H    -624.0143599600   -54.6626250800   -50.0728668800
 1769      H    -623.7675266800   -54.2391133800   -53.4062527600
 1770      C    -621.4246050700   -57.1780149900   -52.0377631500
 1771      H    -621.0594576200   -57.3285127600   -54.0061132800
 1772      H    -619.6645393400   -57.0518266200   -51.0983871200
 1773      C    -622.9271161300   -59.3259029200   -51.0862855200
 1774      H    -623.3140146000   -59.1153321200   -49.0747414500
 1775      H    -624.6739314900   -59.3791789900   -52.2089690700
 1776      C    -621.9233054900   -61.9165926400   -51.5010758600
 1777      H    -621.7308749000   -62.3512956100   -53.5278059200
 1778      H    -619.9897524300   -61.7339058700   -50.6700475400
 1779      C    -623.5451287000   -64.0514442700   -50.2823792500
 1780      H    -624.1437428600   -63.3263117400   -48.4193991000
 1781      H    -625.2387658600   -64.9014783800   -51.2473500400
 1782      C    -621.7451592300   -66.3448903200   -49.6184896000
 1783      H    -619.8750922200   -65.4993476500   -49.1489818000
 1784      H    -622.6601999200   -67.5010796800   -48.0669261000
 1785      C    -621.2638767800   -68.0855212400   -51.7475807400
 1786      H    -622.9637343700   -68.9448681200   -52.2992523700
 1787      H    -620.3531144500   -66.9924917700   -53.3284530600
 1788      C    -619.3803428500   -70.2025733900   -51.0982890900
 1789      H    -618.0010056300   -69.1695591100   -50.1463380000
 1790      H    -620.2985176100   -71.5187995400   -49.7256184800
 1791      C    -618.4053232600   -71.8235125600   -53.3411335900
 1792      H    -617.8231161500   -70.8165944300   -55.0368376200
 1793      H    -616.6958252400   -72.5058855700   -52.5219140400
 1794      C    -620.1937424100   -74.0158745600   -54.2214834000
 1795      H    -621.9470363000   -73.2242919800   -55.0266631000
 1796      H    -620.7730136400   -75.3709379600   -52.7712928800
 1797      H    -619.3389833900   -75.0152644100   -55.7366983900
 1798      H    -627.8629212900   -27.8852396000   -11.5181570400
 1799      C    -629.6979865400   -27.0027675100   -11.2051026600
 1800      H    -629.8649305700   -27.2307101300    -9.1431165500
 1801      H    -629.4391402600   -25.0848651300   -11.5818293900
 1802      C    -631.8435657800   -28.3150169100   -12.6801476500
 1803      H    -631.0997825900   -28.7900754600   -14.5568696200
 1804      H    -632.1714101200   -30.1717758100   -11.7551397000
 1805      C    -634.4007337700   -26.7847803200   -12.4524805900
 1806      H    -635.4857996000   -26.8224624100   -10.5536461800
 1807      H    -633.9574497100   -24.7381619100   -12.5854554700
 1808      C    -636.4541639300   -27.5039529400   -14.4136343100
 1809      H    -638.1566523000   -26.2927772600   -14.5510818900
 1810      H    -635.4241893400   -27.1221049300   -16.1582501800
 1811      C    -637.2898685400   -30.2215925700   -14.0904867900
 1812      H    -635.6354259700   -31.3756621400   -14.5131267300
 1813      H    -637.7167304500   -30.5096151900   -12.2132819100
 1814      C    -639.4270363400   -31.2713485400   -15.7319916100
 1815      H    -641.1498148800   -29.9812193100   -15.8353591600
 1816      H    -638.6243318200   -31.4272560000   -17.5413003900
 1817      C    -640.4107055800   -33.9018845000   -14.6277942400
 1818      H    -638.7275162500   -35.0224723100   -14.7168928000
 1819      H    -640.9326677000   -33.5559049500   -12.6587100300
 1820      C    -642.5523341700   -35.1693357600   -16.2148325300
 1821      H    -644.3779918000   -33.9651167000   -15.9529660400
 1822      H    -641.9999504900   -34.9303066600   -18.1956816400
 1823      C    -643.1220266200   -37.8813467400   -15.3665766300
 1824      H    -641.6279294200   -38.9453903500   -15.8709714500
 1825      H    -643.3567726600   -37.9280669300   -13.3990432700
 1826      C    -645.3694470600   -39.1699031600   -16.5335311200
 1827      H    -647.2199767100   -38.2330751800   -16.1676582400
 1828      H    -645.4219119000   -38.8282830700   -18.6849987600
 1829      C    -645.5524057300   -41.9838570700   -16.0231606500
 1830      H    -644.0458856800   -42.6823608300   -17.1995606600
 1831      H    -645.1853725400   -42.5231154700   -14.0095327000
 1832      C    -648.1247842100   -43.2498410400   -17.0257896000
 1833      H    -648.4524034800   -45.0911492800   -16.1747743900
 1834      H    -648.1027991400   -43.5564970500   -19.0719124100
 1835      H    -649.9108313900   -42.1998849700   -16.8053873900
 1836      H    -643.3691669600   -41.0487626900   -26.5587321100
 1837      C    -641.5095425700   -40.7294886300   -25.8439078400
 1838      H    -641.4403164000   -41.6285763500   -23.9050226600
 1839      H    -640.0609329600   -41.7604459600   -27.0414923700
 1840      C    -640.7594801100   -38.0045400300   -25.8391750100
 1841      H    -638.7581634100   -37.5856122000   -25.6396716200
 1842      H    -641.3453762500   -37.0466429000   -27.4773029200
 1843      C    -641.8195777700   -36.6153365000   -23.4677405700
 1844      H    -643.5940121300   -37.4061695900   -22.8128580900
 1845      H    -640.6234557100   -37.0200509600   -21.7986559000
 1846      C    -642.2617029200   -33.7508730100   -23.7539490900
 1847      H    -643.5357995100   -33.2179239800   -25.3053065500
 1848      H    -643.4871894200   -33.2873214400   -22.0339186000
 1849      C    -639.8687796300   -32.1096410300   -23.8795174200
 1850      H    -638.6309523400   -32.4146910600   -22.0988195900
 1851      H    -638.7703385200   -32.7357065700   -25.3588622900
 1852      C    -640.6698402800   -29.2455133000   -24.2841202200
 1853      H    -641.3708787600   -29.1490678200   -26.1804964900
 1854      H    -642.2573122300   -28.9216784700   -23.0458242800
 1855      C    -638.3834542600   -27.3950877600   -23.8349716900
 1856      H    -637.2137911600   -27.8111549400   -22.1029659400
 1857      H    -637.2332081600   -27.6904383100   -25.5109970100
 1858      C    -639.2970330800   -24.5989752100   -23.8348772500
 1859      H    -640.4785345600   -24.4505315700   -25.5206348700
 1860      H    -640.4229594300   -24.3773314600   -22.1781977200
 1861      C    -637.0036443900   -22.8807612400   -23.6814669200
 1862      H    -636.2322653900   -22.8521510600   -21.8091769900
 1863      H    -635.3864692600   -23.5999427500   -24.9148693800
 1864      C    -637.5314942900   -20.1847010200   -24.5740467500
 1865      H    -638.4329571800   -20.1957508300   -26.3729063600
 1866      H    -638.8011936600   -19.3549998900   -23.2238269400
 1867      C    -635.2398827400   -18.3896749600   -24.6329336000
 1868      H    -634.7193357200   -18.2920170400   -22.6577243900
 1869      H    -633.8605751200   -19.2288658500   -26.0695953200
 1870      C    -635.8810474400   -15.6573205100   -25.4191811700
 1871      H    -634.1640823000   -14.5601984600   -25.6371265700
 1872      H    -637.2277124300   -14.8270815800   -24.1299021500
 1873      H    -636.5795799200   -15.8954347800   -27.3667074000
 1874      H    -618.3867603000   -42.0083989700   -23.4058791100
 1875      C    -617.2914071900   -43.1607678500   -24.7623538700
 1876      H    -616.2905454600   -41.6941073900   -25.8550735200
 1877      H    -615.7865729100   -44.2150763100   -23.7493625100
 1878      C    -618.8337047000   -44.8759342200   -26.5992179300
 1879      H    -619.6761699200   -43.8750794100   -28.2027227800
 1880      H    -617.6239723700   -46.3152172300   -27.5590628700
 1881      C    -620.8336573300   -46.2941442800   -24.9970904300
 1882      H    -619.9255691100   -46.9547545000   -23.2814527100
 1883      H    -622.2552517100   -44.8095666600   -24.4791228600
 1884      C    -622.4572824600   -48.3527271200   -26.3572302200
 1885      H    -623.4804099600   -47.5422147900   -28.0431521500
 1886      H    -621.2050929900   -49.7572229800   -27.0391304100
 1887      C    -624.4166675100   -49.9423122100   -24.7560819100
 1888      H    -623.5135036100   -50.8996295000   -23.0987400100
 1889      H    -625.8412426100   -48.6597511300   -23.9700741100
 1890      C    -625.9797902500   -51.8695393700   -26.2873252100
 1891      H    -626.9220873600   -51.0381378000   -27.7938851300
 1892      H    -624.8600889000   -53.3504550300   -27.2635214900
 1893      C    -627.8260929000   -53.4800894100   -24.6276419300
 1894      H    -626.7379728300   -54.3549757200   -22.9643974500
 1895      H    -629.2891216200   -52.2965571100   -23.6024202400
 1896      C    -629.0498082000   -55.7664148300   -25.9783230000
 1897      H    -629.8561222100   -55.1860420900   -27.8351055300
 1898      H    -627.5915614200   -57.2496870100   -26.6634666100
 1899      C    -631.1263555300   -56.9926875900   -24.3456351200
 1900      H    -630.0675284900   -58.1597516000   -22.8930916000
 1901      H    -632.1934266500   -55.5945888000   -23.1070508800
 1902      C    -632.6717308900   -58.7451118800   -25.9599627000
 1903      H    -633.9357906700   -57.7399409400   -27.0227787300
 1904      H    -631.6249620200   -59.7934231000   -27.3387929700
 1905      C    -634.3624712500   -60.6592830300   -24.5612303600
 1906      H    -633.4300080400   -61.4069769300   -22.9585635700
 1907      H    -636.0673269400   -59.8394114500   -23.8328771600
 1908      C    -635.1519497400   -62.9223438800   -26.1649903900
 1909      H    -633.5906038400   -64.1703407400   -26.8727279600
 1910      H    -636.4574447900   -62.3480069100   -27.6589057800
 1911      H    -636.0839703800   -64.3305578600   -24.9923551600
 ----------------------------------------------------------------
 Nuclear Repulsion Energy =           0.00000000 hartrees
 There are       48 alpha and       48 beta electrons
 Total job time:  126.68s(wall), 250.06s(cpu) 
 Wed Jun 22 08:07:48 2022

        *************************************************************
        *                                                           *
        *  Thank you very much for using Q-Chem.  Have a nice day.  *
        *                                                           *
        *************************************************************


