                  Welcome to Q-Chem
     A Quantum Leap Into The Future Of Chemistry


 Q-Chem 5.4 (devel), Q-Chem, Inc., Pleasanton, CA (2021)

 E. Epifanovsky,  A. T. B. Gilbert,  Xintian Feng,  Joonho Lee,  Yuezhi Mao,  
 N. Mardirossian,  P. Pokhilko,  A. White,  M. Wormit,  M. P. Coons,  
 A. L. Dempwolff,  Zhengting Gan,  D. Hait,  P. R. Horn,  L. D. Jacobson,  
 I. Kaliman,  J. Kussmann,  A. W. Lange,  Ka Un Lao,  D. S. Levine,  Jie Liu,  
 S. C. McKenzie,  A. F. Morrison,  K. Nanda,  F. Plasser,  D. R. Rehn,  
 M. L. Vidal,  Zhi-Qiang You,  Ying Zhu,  B. Alam,  B. Albrecht,  
 A. Aldossary,  E. Alguire,  J. H. Andersen,  D. Barton,  K. Begam,  A. Behn,  
 Y. A. Bernard,  E. J. Berquist,  H. Burton,  A. Carreras,  K. Carter-Fenk,  
 R. Chakraborty,  A. D. Chien,  K. D. Closser,  V. Cofer-Shabica,  
 S. Dasgupta,  Jia Deng,  M. de Wergifosse,  M. Diedenhofen,  Hainam Do,  
 S. Ehlert,  Po-Tung Fang,  S. Fatehi,  Qingguo Feng,  T. Friedhoff,  
 J. Gayvert,  Qinghui Ge,  G. Gidofalvi,  M. Goldey,  J. Gomes,  
 C. Gonzalez-Espinoza,  S. Gulania,  A. Gunina,  M. W. D. Hanson-Heine,  
 P. H. P. Harbach,  A. W. Hauser,  M. F. Herbst,  M. Hernandez Vera,  
 M. Hodecker,  Z. C. Holden,  S. Houck,  Xunkun Huang,  Kerwin Hui,  
 B. C. Huynh,  M. Ivanov,  Hyunjun Ji,  Hanjie Jiang,  B. Kaduk,  S. Kaehler,  
 K. Khistyaev,  Jaehoon Kim,  P. Klunzinger,  Z. Koczor-Benda,  
 Joong Hoon Koh,  D. Kosenkov,  L. Koulias,  T. Kowalczyk,  C. M. Krauter,  
 K. Kue,  A. Kunitsa,  T. Kus,  A. Landau,  K. V. Lawler,  D. Lefrancois,  
 S. Lehtola,  Rain Li,  Yi-Pei Li,  Jiashu Liang,  M. Liebenthal,  
 Hung-Hsuan Lin,  You-Sheng Lin,  Fenglai Liu,  Kuan-Yu Liu,  
 M. Loipersberger,  A. Luenser,  A. Manjanath,  P. Manohar,  E. Mansoor,  
 S. F. Manzer,  Shan-Ping Mao,  A. V. Marenich,  T. Markovich,  S. Mason,  
 S. A. Maurer,  P. F. McLaughlin,  M. F. S. J. Menger,  J.-M. Mewes,  
 S. A. Mewes,  P. Morgante,  J. W. Mullinax,  K. J. Oosterbaan,  G. Paran,  
 Alexander C. Paul,  Suranjan K. Paul,  F. Pavosevic,  Zheng Pei,  S. Prager,  
 E. I. Proynov,  E. Ramos,  B. Rana,  A. E. Rask,  A. Rettig,  R. M. Richard,  
 F. Rob,  E. Rossomme,  T. Scheele,  M. Scheurer,  M. Schneider,  
 N. Sergueev,  S. M. Sharada,  W. Skomorowski,  D. W. Small,  C. J. Stein,  
 Yu-Chuan Su,  E. J. Sundstrom,  Zhen Tao,  J. Thirman,  T. Tsuchimochi,  
 N. M. Tubman,  S. P. Veccham,  O. Vydrov,  J. Wenzel,  J. Witte,  A. Yamada,  
 Kun Yao,  S. Yeganeh,  S. R. Yost,  A. Zech,  Igor Ying Zhang,  Xing Zhang,  
 Yu Zhang,  D. Zuev,  A. Aspuru-Guzik,  A. T. Bell,  N. A. Besley,  
 K. B. Bravaya,  B. R. Brooks,  D. Casanova,  Jeng-Da Chai,  S. Coriani,  
 C. J. Cramer,  A. E. DePrince, III,  R. A. DiStasio Jr.,  A. Dreuw,  
 B. D. Dunietz,  T. R. Furlani,  W. A. Goddard III,  S. Grimme,  
 S. Hammes-Schiffer,  T. Head-Gordon,  W. J. Hehre,  Chao-Ping Hsu,  
 T.-C. Jagau,  Yousung Jung,  A. Klamt,  Jing Kong,  D. S. Lambrecht,  
 WanZhen Liang,  N. J. Mayhall,  C. W. McCurdy,  J. B. Neaton,  
 C. Ochsenfeld,  J. A. Parkhill,  R. Peverati,  V. A. Rassolov,  Yihan Shao,  
 L. V. Slipchenko,  T. Stauch,  R. P. Steele,  J. E. Subotnik,  
 A. J. W. Thom,  A. Tkatchenko,  D. G. Truhlar,  T. Van Voorhis,  
 T. A. Wesolowski,  K. B. Whaley,  H. L. Woodcock III,  P. M. Zimmerman,  
 S. Faraji,  P. M. W. Gill,  M. Head-Gordon,  J. M. Herbert,  A. I. Krylov

 Additional authors for Version 5.4.1: 
 S. Kotaru,  Shaozhi Li,  Xiangyuan Li,  F. Matz,  A. Molle,  Haisheng Ren,  
 Yingli Su,  Hung-Yi Tsai,  C. Utku,  Fang Wang

 Contributors to earlier versions of Q-Chem not listed above: 
 R. D. Adamson,  B. Austin,  R. Baer,  J. Baker,  G. J. O. Beran,  
 K. Brandhorst,  S. T. Brown,  E. F. C. Byrd,  A. K. Chakraborty,  
 G. K. L. Chan,  Chun-Min Chang,  Yunqing Chen,  C.-L. Cheng,  
 Siu Hung Chien,  D. M. Chipman,  D. L. Crittenden,  H. Dachsel,  
 R. J. Doerksen,  A. D. Dutoi,  R. G. Edgar,  J. Fosso-Tande,  
 L. Fusti-Molnar,  D. Ghosh,  A. Ghysels,  A. Golubeva-Zadorozhnaya,  
 J. Gonthier,  M. S. Gordon,  S. R. Gwaltney,  G. Hawkins,  J. E. Herr,  
 A. Heyden,  S. Hirata,  E. G. Hohenstein,  G. Kedziora,  F. J. Keil,  
 C. Kelley,  Jihan Kim,  R. A. King,  R. Z. Khaliullin,  P. P. Korambath,  
 W. Kurlancheek,  A. Laurent,  A. M. Lee,  M. S. Lee,  S. V. Levchenko,  
 Ching Yeh Lin,  D. Liotard,  E. Livshits,  R. C. Lochan,  I. Lotan,  
 L. A. Martinez-Martinez,  P. E. Maslen,  N. Nair,  D. P. O'Neill,  
 D. Neuhauser,  E. Neuscamman,  C. M. Oana,  R. Olivares-Amaya,  R. Olson,  
 T. M. Perrine,  B. Peters,  P. A. Pieniazek,  A. Prociuk,  Y. M. Rhee,  
 J. Ritchie,  M. A. Rohrdanz,  E. Rosta,  N. J. Russ,  H. F. Schaefer III,  
 M. W. Schmidt,  N. E. Schultz,  S. Sharma,  N. Shenvi,  C. D. Sherrill,  
 A. C. Simmonett,  A. Sodt,  T. Stein,  D. Stuck,  K. S. Thanthiriwatte,  
 V. Vanovschi,  L. Vogt,  Tao Wang,  A. Warshel,  M. A. Watson,  
 C. F. Williams,  Q. Wu,  X. Xu,  Jun Yang,  W. Zhang,  Yan Zhao

 Please cite Q-Chem as follows:
 Y. Shao et al., Mol. Phys. 113, 184-215 (2015)
 DOI: 10.1080/00268976.2014.952696

 Q-Chem 5.4.1 for Intel X86 EM64T Linux

 Parts of Q-Chem use Armadillo 9.900.5 (Nocturnal Misbehaviour).
 http://arma.sourceforge.net/

 Q-Chem begins on Fri Jul  1 20:00:03 2022  

 Host: p09r14n09.grace.hpc.yale.internal
0

     Scratch files written to /home/tl686/scratch60/qchem_dev/scratch/qchem8515//
 Processing $rem in /home/tl686/qchem_dev/qchem/config/preferences:
 Processing $rem in /home/tl686/.qchemrc:
Applying user defined connections for MM calculations

 Checking the input file for inconsistencies... 	...done.

--------------------------------------------------------------
User input:
--------------------------------------------------------------
$molecule
0   1
 Fe -95.60080495 -56.55158575 -55.38496528    -1  0   0   0   0
C -92.36145738 -55.84107004 -55.02176957    -2  0   0   0   0 
C -98.92047258 -57.75198159 -55.46093062    -2  0   0   0   0
C -96.43202239 -53.19089110 -55.80506472    -2  0   0   0   0
C -94.97871670 -58.36820312 -58.28858991    -2  0   0   0   0
C -95.41051454 -58.07183212 -52.32984551    -2  0   0   0   0
O -90.13874852 -55.66396763 -54.83181188    -3  0   0   0   0
O -100.98649672 -58.58282400 -55.34537057    -3  0   0   0   0 
O -96.88713184 -51.07439347 -55.45525500    -3  0   0   0   0
O -94.46772347 -59.46469152 -60.16046028    -3  0   0   0   0 
O -95.19710267 -59.43995744 -50.59142407    -3  0   0   0   0
H -74.28791504 -44.25234192 -56.53845943      6     13    0    0    0 
C -73.57696485 -43.71601596 -58.42664059     1     12    14    15    16
H -72.33032739 -42.17827322 -58.00684246     6     13    0    0    0
H -72.42021775 -45.18650401 -59.21398251     6     13    0    0    0
C -75.48058079 -43.14183588 -60.36195230     2     13    17    18    19
H -76.77501734 -41.61413073 -59.98456311     6     16    0    0    0
H -74.71808062 -42.67380600 -62.25234597     6     16    0    0    0
C -77.23818404 -45.42944800 -60.90803588     2     16    20   21   22
H -75.95758225 -46.73522867 -61.87306209     6     19    0    0    0
H -78.12407778 -46.39153306 -59.37691269     6     19    0    0    0
C -79.29165281 -44.49787766 -62.79806247     2     19   23   24   25
H -80.35249348 -43.06540421 -61.72963648     6    22    0    0    0
H -78.55520748 -43.65140942 -64.47275311     6    22    0    0    0
C -80.97171420 -46.65287968 -63.62023056     2    22   26   27   28
H -80.21755940 -48.49882177 -62.88206346     6    25    0    0    0
H -82.69405312 -46.18572617 -62.56901330     6    25    0    0    0
C -81.67873946 -46.53613923 -66.46748016     2    25   29   30   31
H -82.84848071 -44.85439008 -66.73451862     6    28    0    0    0
H -79.98944384 -46.12787099 -67.61377059     6    28    0    0    0
C -82.74970629 -49.10063480 -67.42928751     2    28   32   33   34
H -81.50019797 -50.71538312 -66.72808329     6    31    0    0    0
H -84.54289209 -49.54378142 -66.57585236     6    31    0    0    0
C -82.85240178 -49.33513608 -70.38870020     2    31   35   36   37
H -84.51201716 -48.25277574 -70.73577190     6    34    0    0    0
H -81.18683782 -48.45183253 -71.34539373     6    34    0    0    0
C -83.52106691 -51.85861209 -71.54496778     2    34   38   39   40
H -82.10772372 -53.28056647 -71.08115198     6    37    0    0    0
H -85.30151690 -52.70183098 -70.77694171     6    37    0    0    0
C -83.74989780 -51.63442794 -74.52167546     2    37   41   42   43
H -85.38112225 -50.59738018 -75.12510753     6    40    0    0    0
H -82.14563153 -50.49234974 -75.11285299     6    40    0    0    0
C -83.76866305 -54.21140602 -75.76534524     2    40   44   45   46
H -81.87069641 -55.04059782 -75.23528668     6    43    0    0    0
H -85.26876553 -55.52419925 -75.15409437     6    43    0    0    0
C -83.99977826 -54.32875529 -78.70572751     1    43   47   48   49
H -85.83385897 -53.85013529 -79.21734484     6    46    0    0    0
H -83.73569596 -56.29462896 -79.47642631     6    46    0    0    0
H -82.75709850 -52.92683534 -79.74756255     6    46    0    0    0
H -87.06681802 -58.08819267 -60.21624059     6     51    0    0    0 
C -87.35853319 -58.75083900 -62.20589160     1     50    52    53    54
H -87.16715154 -60.72201914 -62.65565719     6     51    0    0    0
H -89.39536811 -58.50749634 -62.53546703     6     51    0    0    0
C -85.93301994 -57.01833730 -63.98550359     2     51    55    56    57
H -86.38958511 -55.05264509 -63.31895805     6     54    0    0    0
H -83.93411204 -57.24858941 -63.60229286     6     54    0    0    0
C -86.43882025 -57.16449902 -66.87655926     2     54    58   59   60
H -88.30765668 -57.57515176 -67.53164016     6     57    0    0    0
H -85.86701707 -55.19731670 -67.33530620     6     57    0    0    0
C -84.82983469 -59.11269797 -68.23160586     2     57   61   62   63
H -82.89010757 -58.50171636 -67.94118803     6    60    0    0    0
H -85.01062018 -60.91598090 -67.01033636     6    60    0    0    0
C -85.35519013 -59.80364652 -70.99125714     2    60   64   65   66
H -87.13551033 -60.62863519 -70.87835399     6    63    0    0    0
H -85.31824001 -58.05412251 -72.05509429     6    63    0    0    0
C -83.55297376 -61.85904689 -72.09583814     2    63   67   68   69
H -84.16048752 -62.43109683 -73.99332335     6    66    0    0    0
H -81.73394515 -61.08698735 -72.61683377     6    66    0    0    0
C -83.37012617 -64.29128843 -70.48981321     2    66   70   71   72
H -82.19006017 -64.00597866 -68.79789854     6    69    0    0    0
H -85.07191095 -64.98193279 -69.76791226     6    69    0    0    0
C -81.90328310 -66.48506107 -71.78978879     2    69   73   74   75
H -82.72727186 -67.16162035 -73.68204961     6    72    0    0    0
H -80.02330294 -65.88108651 -72.14435028     6    72    0    0    0
C -81.83930610 -68.90415399 -70.19667375     2    72   76   77   78
H -81.53973850 -68.41629710 -68.22632354     6    75    0    0    0
H -83.54558319 -70.02535438 -70.28665834     6    75    0    0    0
C -79.55586079 -70.64269708 -71.02120461     2    75   79   80   81
H -80.05116022 -71.43622694 -72.93715493     6    78    0    0    0
H -77.84532131 -69.50989745 -71.12837239     6    78    0    0    0
C -79.45800934 -73.16812502 -69.48897687     2    78   82   83   84
H -79.06766921 -72.44825530 -67.56311206     6    81    0    0    0
H -81.35813313 -74.02339515 -69.45656737     6    81    0    0    0
C -77.42626437 -74.86534115 -70.51713196     1    81   85   86   87
H -77.34297607 -76.61210805 -69.52365802     6    84    0    0    0
H -75.55201303 -74.18602745 -70.00872947     6    84    0    0    0
H -77.58430217 -75.14125300 -72.69519558     6    84    0    0    0
H -84.01316619 -31.28039207 -82.72428613     6     89    0    0    0 
C -82.66717251 -31.74967695 -84.26348336     1     88    90    91    92
H -83.28777368 -30.85553613 -86.12497008     6     89    0    0    0
H -80.61927682 -30.98913128 -84.05499481     6     89    0    0    0
C -82.92989453 -34.61661475 -84.50264712     2     89    93    94    95
H -82.47003891 -35.74402923 -82.83514637     6     92    0    0    0
H -84.80566975 -35.24675573 -85.10105212     6     92    0    0    0
C -81.22287662 -35.67672607 -86.54045881     2     92    96   97   98
H -81.33142702 -34.81312759 -88.44331321     6     95    0    0    0
H -79.28665372 -35.33677695 -86.08531871     6     95    0    0    0
C -81.58819111 -38.60675459 -86.70706238     2     95   99   100   101
H -81.51947716 -39.47121261 -84.82189070     6    98    0    0    0
H -83.46511092 -39.03853651 -87.40833604     6    98    0    0    0
C -79.59219333 -39.91672131 -88.36084021     2    98   102   103   104
H -80.00719701 -39.44209000 -90.33158426     6    101    0    0    0
H -77.71005707 -39.11055515 -88.12801590     6    101    0    0    0
C -79.79121809 -42.74009901 -87.81231639     2    101   105   106   107
H -80.01338063 -43.02954935 -85.77964961     6    104    0    0    0
H -81.61472533 -43.29200027 -88.48522436     6    104    0    0    0
C -77.68965035 -44.41265579 -88.86193895     2    104   108   109   110
H -76.91464306 -43.77901906 -90.64553758     6    107    0    0    0
H -75.96289431 -44.12868141 -87.86155713     6    107    0    0    0
C -78.20580968 -47.35036581 -89.17222577     2    107   111   112   113
H -78.67331743 -48.42138657 -87.43291375     6    110    0    0    0
H -79.76368863 -47.48978951 -90.46347867     6    110    0    0    0
C -75.97128589 -48.64146973 -90.50726144     2    110   114   115   116
H -76.20961281 -48.52126445 -92.47922985     6    113    0    0    0
H -74.06874551 -47.80670095 -90.12416917     6    113    0    0    0
C -76.07443041 -51.46909389 -89.83308364     2    113   117   118   119
H -75.33211026 -51.80859331 -87.98610856     6    116    0    0    0
H -77.99965414 -52.02738840 -89.85116242     6    116    0    0    0
C -74.51251419 -52.88468532 -91.86168601     2    116   120   121   122
H -75.45724551 -52.64414851 -93.73549023     6    119    0    0    0
H -72.65186350 -52.08164519 -92.36602800     6    119    0    0    0
C -73.70832120 -55.74674832 -91.13873773     1    119   123   124   125
H -73.49546221 -57.21836658 -92.71533461     6    122    0    0    0
H -75.21240900 -56.33985576 -89.83007883     6    122    0    0    0
H -71.88023596 -55.83991461 -90.19718752     6    122    0    0    0
H -111.14402294 -37.39221827 -78.74854719     6     127    0    0    0 
C -110.71614774 -39.06436251 -77.60380117     1     126    128    129    130
H -112.36079226 -40.09229084 -76.98518259     6     127    0    0    0
H -109.33313644 -40.34385546 -78.63055119     6     127    0    0    0
C -109.31755384 -37.92989320 -75.34012144     2     127    131    132    133
H -107.52625217 -37.07859942 -75.97140762     6     130    0    0    0
H -110.54906755 -36.20395527 -74.89974285     6     130    0    0    0
C -108.80068875 -40.00791217 -73.34232329     2     130    134   135   136
H -110.60562849 -40.91017958 -72.63249138     6     133    0    0    0
H -107.65442771 -41.41341756 -74.33487333     6     133    0    0    0
C -107.33140016 -39.00214881 -70.96460266     2     133   137   138   139
H -105.52721991 -38.14329081 -71.48556508     6    136    0    0    0
H -108.22214947 -37.31505257 -70.20051625     6    136    0    0    0
C -107.15513616 -41.08051107 -68.82657711     2    136   140   141   142
H -109.03645642 -41.74301005 -68.21674708     6    139    0    0    0
H -106.27914996 -42.83057117 -69.58541598     6    139    0    0    0
C -106.05482496 -40.16007335 -66.27794326     2    139   143   144   145
H -104.03255459 -39.37102933 -66.32447641     6    142    0    0    0
H -107.36186292 -38.55305206 -65.65706208     6    142    0    0    0
C -106.17016791 -42.17866729 -64.14919825     2    142   146   147   148
H -108.12870757 -42.20215820 -63.56356042     6    145    0    0    0
H -106.10571863 -44.03185117 -64.90935383     6    145    0    0    0
C -104.63041734 -41.50234630 -61.81676231     2    145   149   150   151
H -102.61261533 -41.13524272 -62.36674061     6    148    0    0    0
H -105.19935176 -39.67092189 -61.17289732     6    148    0    0    0
C -104.74024682 -43.55727428 -59.63014863     2    148   152   153   154
H -106.59911151 -43.54674855 -58.66284135     6    151    0    0    0
H -104.48418643 -45.43096472 -60.36503276     6    151    0    0    0
C -102.62623630 -43.16448888 -57.66831075     2    151   155   156   157
H -102.40019991 -44.67937644 -56.27896951     6    154    0    0    0
H -100.76754262 -43.35969832 -58.69358009     6    154    0    0    0
C -102.98206865 -40.80168510 -56.12530554     2    154   158   159   160
H -103.41354941 -39.20382469 -57.41819791     6    157    0    0    0
H -104.48068475 -40.81025579 -54.79220680     6    157    0    0    0
C -100.70634812 -40.13542781 -54.55642173     1    157   161   162   163
H -100.45098233 -41.55899488 -53.03458399     6    160    0    0    0
H -101.20454671 -38.38868250 -53.64562117     6    160    0    0    0
H -98.93851163 -40.24039492 -55.57314759     6    160    0    0    0
H -105.79489815 -60.28208565 -87.97504712     6     165    0    0    0 
C -107.68574653 -59.83836359 -87.36706914     1     164    166    167    168
H -108.96746878 -61.21746446 -88.24141139     6     165    0    0    0
H -107.29957830 -59.99167777 -85.40896563     6     165    0    0    0
C -108.45647468 -57.21117204 -88.35884129     2     165    169    170    171
H -106.80920551 -55.86627318 -88.54669019     6     168    0    0    0
H -109.44563263 -57.48734302 -90.06630343     6     168    0    0    0
C -110.29140745 -55.81186828 -86.59191339     2     168    172   173   174
H -112.17855718 -56.55700531 -86.61509922     6     171    0    0    0
H -109.57174778 -55.94502143 -84.65463658     6     171    0    0    0
C -110.76875145 -52.98287291 -87.35616136     2     171   175   176   177
H -108.85998844 -52.13068425 -87.30970769     6    174    0    0    0
H -111.18603222 -53.01787420 -89.31787081     6    174    0    0    0
C -112.36743467 -51.44238909 -85.69073814     2    174   178   179   180
H -114.26737046 -52.26870381 -85.27780018     6    177    0    0    0
H -111.57916783 -51.35973050 -83.79578882     6    177    0    0    0
C -112.67741263 -48.70267419 -86.48928794     2    177   181   182   183
H -110.94629326 -48.02604096 -87.34215496     6    180    0    0    0
H -114.02091264 -48.46957367 -87.88024929     6    180    0    0    0
C -113.51499990 -46.95728518 -84.36265365     2    180   184   185   186
H -114.92813377 -48.02863780 -83.29554035     6    183    0    0    0
H -112.14907673 -46.68329798 -82.98457390     6    183    0    0    0
C -114.70522337 -44.40714898 -85.02145079     2    183   187   188   189
H -113.45115622 -43.42790169 -86.36614398     6    186    0    0    0
H -116.33735200 -44.76123649 -86.37563048     6    186    0    0    0
C -115.33551008 -42.64619089 -82.90127561     2    186   190   191   192
H -116.80795329 -43.66473294 -81.73592387     6    189    0    0    0
H -113.68015357 -42.25003885 -81.64842542     6    189    0    0    0
C -116.27205310 -39.98906854 -83.87466711     2    189   193   194   195
H -114.88659303 -39.37908466 -85.13495178     6    192    0    0    0
H -117.98234634 -40.10630435 -84.92960668     6    192    0    0    0
C -116.80194985 -37.96356387 -81.86499805     2    192   196   197   198
H -115.20081893 -37.07164900 -81.16024442     6    195    0    0    0
H -117.88643386 -36.40549527 -82.73181826     6    195    0    0    0
C -118.54751736 -39.16640582 -79.86813839     1    195   199   200   201
H -119.24036324 -37.67380608 -78.65508338     6    198    0    0    0
H -117.78722634 -40.57639783 -78.57255282     6    198    0    0    0
H -120.01874113 -40.16295253 -80.78768728     6    198    0    0    0
H -103.61223509 -64.84000168 -76.95187325     6     203    0    0    0 
C -102.97402580 -64.08582413 -78.83400065     1     202    204    205    206
H -103.35937892 -62.01773948 -78.98544701     6     203    0    0    0
H -100.89417136 -64.44086968 -78.78014539     6     203    0    0    0
C -104.02133258 -65.55396043 -81.17421707     2     203    207    208    209
H -105.96083174 -65.01198510 -81.39297577     6     206    0    0    0
H -103.04573834 -64.78792903 -82.84102850     6     206    0    0    0
C -103.73011377 -68.38722901 -80.90221705     2     206    210   211   212
H -104.43076696 -69.18996921 -82.52676430     6     209    0    0    0
H -101.90299078 -69.20561739 -80.41503498     6     209    0    0    0
C -105.59337810 -69.62426058 -78.93384957     2     209   213   214   215
H -104.88100726 -69.23982355 -77.15275414     6    212    0    0    0
H -107.54868424 -68.84129678 -79.05811329     6    212    0    0    0
C -105.62002581 -72.60281490 -78.92055689     2    212   216   217   218
H -106.06205203 -73.04655890 -80.79744166     6    215    0    0    0
H -103.61998877 -73.38711676 -78.78545976     6    215    0    0    0
C -107.45743919 -73.76757392 -77.00640325     2    215   219   220   221
H -107.10480998 -73.24111113 -75.07871905     6    218    0    0    0
H -109.14324170 -72.97623987 -77.73491289     6    218    0    0    0
C -107.90257580 -76.66443877 -77.07516424     2    218   222   223   224
H -108.91888544 -77.22059413 -78.74951237     6    221    0    0    0
H -106.20670397 -77.77893470 -76.76488572     6    221    0    0    0
C -109.86292535 -77.56051553 -75.00893706     2    221   225   226   227
H -109.36052059 -76.70826575 -73.11711773     6    224    0    0    0
H -111.78455629 -76.79945878 -75.36561042     6    224    0    0    0
C -110.24743251 -80.54518692 -74.72826799     2    224   228   229   230
H -111.37117659 -81.08427450 -76.40621753     6    227    0    0    0
H -108.44615429 -81.42032149 -75.24433345     6    227    0    0    0
C -111.57789233 -81.69975097 -72.43720096     2    227   231   232   233
H -110.63170390 -81.28384625 -70.64548122     6    230    0    0    0
H -113.45604491 -80.92527692 -72.41593820     6    230    0    0    0
C -111.62968240 -84.63166634 -72.31833251     2    230   234   235   236
H -112.82751140 -85.46918312 -73.68082836     6    233    0    0    0
H -109.72973100 -85.28275084 -72.66455517     6    233    0    0    0
C -112.68488066 -85.48983622 -69.70376901     1    233   237   238   239
H -112.43727854 -87.55731297 -69.61527209     6    236    0    0    0
H -114.70962842 -84.96726145 -69.41755974     6    236    0    0    0
H -111.51780040 -84.72120729 -68.06646015     6    236    0    0    0
H -80.71750035 -69.25606963 -78.13890907     6     241    0    0    0 
C -79.76196523 -69.81678715 -79.82739511     1     240    242    243    244
H -81.21332774 -70.23940703 -81.20197200     6     241    0    0    0
H -78.52738581 -68.17939927 -80.26737025     6     241    0    0    0
C -78.47309831 -72.16321265 -78.89934416     2     241    245    246    247
H -77.58255488 -71.80500633 -77.07233434     6     244    0    0    0
H -80.06180269 -73.44985662 -78.38601612     6     244    0    0    0
C -76.82561962 -73.58484520 -80.84559749     2     244    248   249   250
H -77.94112318 -74.00983037 -82.44869273     6     247    0    0    0
H -75.34116848 -72.36656763 -81.49267173     6     247    0    0    0
C -75.65610021 -76.03307860 -79.90030908     2     247   251   252   253
H -77.05754591 -77.27543127 -79.09754468     6    250    0    0    0
H -75.09204673 -77.27267607 -81.52482116     6    250    0    0    0
C -73.39009322 -75.64150486 -78.22001719     2    250   254   255   256
H -71.93127225 -74.76852875 -79.25797693     6    253    0    0    0
H -73.91502038 -74.28061392 -76.67556193     6    253    0    0    0
C -72.31671992 -77.95460618 -77.16530687     2    253   257   258   259
H -73.27515798 -78.21531840 -75.29458343     6    256    0    0    0
H -72.81629850 -79.53473574 -78.30711765     6    256    0    0    0
C -69.44071266 -77.74840079 -76.60943782     2    256   260   261   262
H -68.61780389 -76.26655044 -77.85721478     6    259    0    0    0
H -69.52654039 -77.39047859 -74.57782817     6    259    0    0    0
C -67.97862236 -80.24564255 -76.78430370     2    259   263   264   265
H -68.32389833 -81.25773174 -74.96825333     6    262    0    0    0
H -68.63536223 -81.45490382 -78.19818397     6    262    0    0    0
C -65.12363701 -79.90025432 -76.81127261     2    262   266   267   268
H -64.49461917 -79.00647634 -78.65964980     6    265    0    0    0
H -64.54988393 -78.51594057 -75.46447627     6    265    0    0    0
C -63.62565269 -82.26726281 -75.98066697     2    265   269   270   271
H -63.61595503 -82.40721381 -73.82031353     6    268    0    0    0
H -64.55607574 -83.98019867 -76.42486789     6    268    0    0    0
C -60.93996899 -82.55110976 -76.87357399     2    268   272   273   274
H -61.09547743 -83.27773496 -78.93223814     6    271    0    0    0
H -60.10928557 -80.65341725 -76.93468380     6    271    0    0    0
C -59.22032819 -84.43629118 -75.29829811     1    271   275   276   277
H -59.25566090 -83.79517203 -73.30434344     6    274    0    0    0
H -57.21859943 -84.38462317 -75.88134164     6    274    0    0    0
H -60.06125920 -86.28109291 -75.55649884     6    274    0    0    0
H -100.74922876 -63.04200630 -91.14241554     6     279    0    0    0 
C -99.52709693 -64.59925429 -90.55824285     1     278    280    281    282
H -100.93441534 -65.89038600 -89.98691850     6     279    0    0    0
H -98.58661185 -65.45402185 -92.11683193     6     279    0    0    0
C -98.19164517 -64.03446064 -88.06879540     2     279    283    284    285
H -96.73845298 -62.51188165 -88.20546112     6     282    0    0    0
H -99.35131411 -63.18235277 -86.65402428     6     282    0    0    0
C -96.89339093 -66.40988283 -86.92355644     2     282    286   287   288
H -98.11362865 -68.05940856 -86.92489598     6     285    0    0    0
H -95.64733635 -67.09083042 -88.39668341     6     285    0    0    0
C -95.71913893 -65.85650904 -84.37798966     2     285   289   290   291
H -94.36052703 -64.34665200 -84.70592433     6    288    0    0    0
H -96.96749455 -65.16427269 -82.97081164     6    288    0    0    0
C -94.09340197 -67.97083606 -83.40434232     2    288   292   293   294
H -92.91216588 -68.51113406 -84.94804848     6    291    0    0    0
H -92.86508798 -67.28854489 -81.88856949     6    291    0    0    0
C -95.33459821 -70.29198003 -82.22275293     2    291   295   296   297
H -96.64713032 -69.49079125 -80.77739294     6    294    0    0    0
H -96.17311500 -71.32503573 -83.72751223     6    294    0    0    0
C -93.56870335 -72.14362838 -80.77764531     2    294   298   299   300
H -91.59885585 -72.04999334 -81.27489065     6    297    0    0    0
H -93.40762827 -71.55323498 -78.90863772     6    297    0    0    0
C -94.20158986 -74.96656916 -81.04144717     2    297   301   302   303
H -96.21926124 -75.10734038 -81.08521396     6    300    0    0    0
H -93.67420816 -75.73483594 -82.95579162     6    300    0    0    0
C -92.93640066 -76.55389064 -78.99555344     2    300   304   305   306
H -91.05308125 -76.85014324 -79.62241277     6    303    0    0    0
H -93.07470344 -75.51181227 -77.21080651     6    303    0    0    0
C -93.79119001 -79.39403271 -78.56682939     2    303   307   308   309
H -95.91624961 -79.22257016 -78.47347494     6    306    0    0    0
H -93.41387019 -80.56853777 -80.15561836     6    306    0    0    0
C -92.60566173 -80.57374062 -76.18572401     2    306   310   311   312
H -90.51405590 -80.87480208 -76.12591229     6    309    0    0    0
H -92.84041283 -79.13634452 -74.64840530     6    309    0    0    0
C -93.60706745 -83.16962085 -75.64495165     1    309   313   314   315
H -92.31890293 -84.36701175 -74.55260364     6    312    0    0    0
H -93.97563395 -84.08248399 -77.37679083     6    312    0    0    0
H -95.16139739 -83.35166276 -74.39485070     6    312    0    0    0
H -96.81518610 -43.28052581 -81.04975559     6     317    0    0    0 
C -96.14767796 -41.42622329 -80.38620664     1     316    318    319    320
H -94.07781781 -41.49252424 -80.12424225     6     317    0    0    0
H -96.62903350 -40.13590677 -81.81581593     6     317    0    0    0
C -97.57206517 -40.88881981 -77.75904860     2     317    321    322    323
H -96.92744250 -38.99283337 -77.13566651     6     320    0    0    0
H -99.66959893 -40.74579093 -78.32520376     6     320    0    0    0
C -97.07640968 -42.82154715 -75.66170551     2     320    324   325   326
H -97.95491818 -44.62782967 -76.13117678     6     323    0    0    0
H -94.99094938 -43.16424216 -75.64289811     6     323    0    0    0
C -97.93275565 -41.58898796 -73.18041299     2     323   327   328   329
H -96.39636419 -40.47353039 -72.66202539     6    326    0    0    0
H -99.56301584 -40.47101912 -73.72442538     6    326    0    0    0
C -98.38284883 -43.53661005 -71.02895456     2    326   330   331   332
H -99.88056393 -44.87474920 -71.65799247     6    329    0    0    0
H -96.59797203 -44.47903693 -70.85817314     6    329    0    0    0
C -98.82293680 -42.28084559 -68.45454966     2    329   333   334   335
H -97.36396005 -41.00346281 -67.82762457     6    332    0    0    0
H -100.60256006 -41.08620618 -68.64804359     6    332    0    0    0
C -99.32766733 -44.29954665 -66.33947948     2    332   336   337   338
H -101.30351726 -44.20733743 -65.63810315     6    335    0    0    0
H -98.80398109 -46.11512182 -67.20335042     6    335    0    0    0
C -97.41953415 -44.03465991 -64.16146163     2    335   339   340   341
H -95.47735172 -43.93781105 -64.73246365     6    338    0    0    0
H -98.07418829 -42.52636688 -62.89394418     6    338    0    0    0
C -97.63840908 -46.38282427 -62.46666935     2    338   342   343   344
H -99.44313331 -46.33488626 -61.47824456     6    341    0    0    0
H -97.65510903 -48.10598193 -63.74509962     6    341    0    0    0
C -95.49273825 -46.70263765 -60.64587271     2    341   345   346   347
H -95.37825996 -48.63858007 -60.01557611     6    344    0    0    0
H -93.63989955 -46.67813509 -61.63864417     6    344    0    0    0
C -95.54937996 -44.91096801 -58.31693283     2    344   348   349   350
H -95.94288619 -42.89233565 -58.77404061     6    347    0    0    0
H -97.17867659 -45.37979535 -57.25004329     6    347    0    0    0
C -93.15178045 -44.93089106 -56.60627325     1    347   351   352   353
H -92.68339234 -46.98577656 -56.46066727     6    350    0    0    0
H -93.61779171 -44.32002609 -54.77157388     6    350    0    0    0
H -91.52263977 -43.65338157 -57.20910097     6    350    0    0    0
H -82.27367574 -63.23413769 -81.57987668     6     355    0    0    0 
C -83.39187561 -64.97261213 -81.94653989     1     354    356    357    358
H -82.75171087 -66.18716654 -83.46042301     6     355    0    0    0
H -82.88354747 -66.26229434 -80.41592250     6     355    0    0    0
C -86.22954259 -64.54580291 -82.21731275     2     355    359    360    361
H -87.24159162 -65.94484826 -83.14218655     6     358    0    0    0
H -87.30585430 -64.68835067 -80.41787286     6     358    0    0    0
C -86.48940900 -62.05242361 -83.81254293     2     358    362   363   364
H -85.50961749 -60.60146227 -82.93925822     6     361    0    0    0
H -85.66674471 -62.51025963 -85.66628962     6     361    0    0    0
C -89.16061214 -61.29507537 -83.99531183     2     361   365   366   367
H -90.30970874 -62.88559397 -84.54567097     6    364    0    0    0
H -90.05972317 -60.91121110 -82.22058156     6    364    0    0    0
C -89.65838305 -59.18666130 -85.92554231     2    364   368   369   370
H -88.40693099 -57.68873321 -85.39641735     6    367    0    0    0
H -89.21451496 -59.48125697 -87.90772451     6    367    0    0    0
C -92.32769853 -58.09963955 -85.77705253     2    367   371   372   373
H -93.79874263 -58.96202598 -86.82054279     6    370    0    0    0
H -92.70733453 -58.49389067 -83.87753881     6    370    0    0    0
C -92.09511958 -55.20264699 -86.04703626     2    370   374   375   376
H -90.92632148 -54.58266275 -84.49538324     6    373    0    0    0
H -91.19595917 -54.64162252 -87.95180771     6    373    0    0    0
C -94.71330206 -53.91722902 -86.11710956     2    373   377   378   379
H -95.71942605 -54.52786480 -87.92249148     6    376    0    0    0
H -96.11133728 -54.53809960 -84.74973510     6    376    0    0    0
C -94.65371643 -50.98829423 -86.27905086     2    376   380   381   382
H -93.80433305 -50.13109137 -84.70856703     6    379    0    0    0
H -93.73753727 -50.45453000 -87.90523631     6    379    0    0    0
C -97.37338819 -50.01392512 -86.33808773     2    379   383   384   385
H -98.38355400 -50.86159552 -87.87857688     6    382    0    0    0
H -98.36729698 -50.66104632 -84.65215394     6    382    0    0    0
C -97.65481503 -47.11667975 -86.78489644     2    382   386   387   388
H -99.47117761 -46.54867014 -86.07915064     6    385    0    0    0
H -96.34953423 -45.91738323 -85.63597949     6    385    0    0    0
C -97.52873035 -46.27734441 -89.50626577     1    385   389   390   391
H -98.72449846 -47.41457394 -90.61662899     6    388    0    0    0
H -95.70347831 -46.63240829 -90.41207511     6    388    0    0    0
H -98.07403403 -44.24059386 -89.80195905     6    388    0    0    0
H -90.99443756 -47.11666486 -33.48979460     6     393    0    0    0 
C -91.37263555 -48.90289758 -34.43718656     1     392    394    395    396
H -91.74277483 -50.67159919 -33.41722641     6     393    0    0    0
H -93.14427247 -48.60577306 -35.51976727     6     393    0    0    0
C -89.10189263 -49.50357150 -36.06448412     2     393    397    398    399
H -89.54513955 -48.83472002 -37.86517900     6     396    0    0    0
H -87.23378861 -48.62134084 -35.52214475     6     396    0    0    0
C -88.65474485 -52.44282208 -36.55118494     2     396    400   401   402
H -87.84254333 -53.27442069 -34.77317523     6     399    0    0    0
H -90.45927105 -53.30584787 -36.79038383     6     399    0    0    0
C -86.84608535 -52.73738293 -38.80647864     2     399   403   404   405
H -88.04693441 -52.38847574 -40.43264403     6    402    0    0    0
H -85.36661035 -51.39647473 -38.87488986     6    402    0    0    0
C -85.81031474 -55.42997409 -38.82200330     2    402   406   407   408
H -84.66824995 -55.51334650 -37.02162429     6    405    0    0    0
H -87.25206914 -56.94713522 -38.80132706     6    405    0    0    0
C -84.14063515 -56.08013198 -41.17585381     2    405   409   410   411
H -85.21418525 -55.89397205 -42.81883915     6    408    0    0    0
H -82.37217931 -54.83750683 -41.29357437     6    408    0    0    0
C -83.39506404 -59.03018086 -41.12263239     2    408   412   413   414
H -82.63813772 -59.55373343 -39.32463933     6    411    0    0    0
H -85.21863818 -59.90039428 -41.36394147     6    411    0    0    0
C -81.60402809 -59.69710057 -43.37858901     2    411   415   416   417
H -82.34862365 -59.22535043 -45.16652398     6    414    0    0    0
H -79.90074136 -58.48866511 -43.22629543     6    414    0    0    0
C -80.87339102 -62.46559258 -43.64583573     2    414   418   419   420
H -80.30340808 -63.24142483 -41.75358999     6    417    0    0    0
H -82.40429508 -63.76631319 -43.98068442     6    417    0    0    0
C -78.67391632 -62.79804478 -45.48180505     2    417   421   422   423
H -79.10947647 -61.90072662 -47.37004932     6    420    0    0    0
H -77.01620602 -61.71501347 -44.78277698     6    420    0    0    0
C -77.69153854 -65.49120752 -45.58520380     2    420   424   425   426
H -75.74816479 -65.49741511 -46.30579477     6    423    0    0    0
H -77.56027093 -66.05411086 -43.55892672     6    423    0    0    0
C -79.19292735 -67.10607913 -47.35674237     1    423   427   428   429
H -78.23059075 -68.90764600 -47.49238356     6    426    0    0    0
H -79.32090758 -66.32340258 -49.30932182     6    426    0    0    0
H -81.06572467 -67.39779627 -46.53771513     6    426    0    0    0
H -63.07840162 -55.59871132 -56.91350767     6     431    0    0    0 
C -64.34038887 -53.93526690 -57.15872473     1     430    432    433    434
H -63.17769263 -52.12095851 -56.93602131     6     431    0    0    0
H -64.92503406 -53.67477206 -59.10346862     6     431    0    0    0
C -66.69843706 -54.01482195 -55.49288476     2     431    435    436    437
H -68.00065433 -55.46702762 -55.96245287     6     434    0    0    0
H -65.96128603 -54.69208383 -53.67048503     6     434    0    0    0
C -68.16042825 -51.50318494 -55.30261636     2     434    438   439   440
H -67.02907396 -50.00851061 -54.47401859     6     437    0    0    0
H -68.89823186 -51.05690698 -57.16311943     6     437    0    0    0
C -70.29362837 -51.83361734 -53.53712809     2     437   441   442   443
H -71.69568189 -50.24157000 -53.64864336     6    440    0    0    0
H -71.34606374 -53.52745060 -54.15960025     6    440    0    0    0
C -69.56097960 -51.73141942 -50.82816118     2    440   444   445   446
H -68.41423495 -53.49626300 -50.51699299     6    443    0    0    0
H -68.44258810 -50.06073017 -50.63431060     6    443    0    0    0
C -71.91035679 -51.52088470 -49.22404509     2    443   447   448   449
H -73.10379600 -49.90135453 -49.67946262     6    446    0    0    0
H -72.83587715 -53.28765735 -49.69818572     6    446    0    0    0
C -71.06810245 -51.27902733 -46.44798525     2    446   450   451   452
H -69.89335050 -52.93971890 -46.23206696     6    449    0    0    0
H -69.86998919 -49.59683860 -46.02237706     6    449    0    0    0
C -73.24808014 -51.91764836 -44.45789040     2    449   453   454   455
H -74.54443214 -50.32075311 -44.27727397     6    452    0    0    0
H -74.50515564 -53.39725860 -45.27061159     6    452    0    0    0
C -72.21642952 -52.46531772 -41.84580542     2    452   456   457   458
H -70.84724902 -53.89620665 -41.85381319     6    455    0    0    0
H -71.38018677 -50.73420402 -41.16796053     6    455    0    0    0
C -74.08285116 -53.13673444 -39.65590556     2    455   459   460   461
H -72.96301391 -53.61038603 -38.06826984     6    458    0    0    0
H -75.22237958 -51.56725553 -39.22986824     6    458    0    0    0
C -75.97375350 -55.30561374 -40.03620628     2    458   462   463   464
H -77.37930215 -54.68105657 -41.57536487     6    461    0    0    0
H -75.11674915 -57.03059360 -40.53954573     6    461    0    0    0
C -77.61474251 -55.68993422 -37.69441679     1    461   465   466   467
H -78.75310023 -54.01551052 -37.42611842     6    464    0    0    0
H -76.55091210 -56.05609123 -35.89810911     6    464    0    0    0
H -79.05035603 -57.25483125 -37.73474856     6    464    0    0    0
H -91.44268714 -40.70176448 -88.22375007     6     469    0    0    0 
C -89.73651255 -40.14913090 -87.13681404     1     468    470    471    472
H -88.61315490 -39.30090885 -88.64384675     6     469    0    0    0
H -90.33123076 -38.53493721 -85.92151622     6     469    0    0    0
C -88.87022544 -42.44266154 -85.44589515     2     469    473    474    475
H -87.35039132 -41.87291383 -84.22392086     6     472    0    0    0
H -90.49360224 -43.03740734 -84.34294666     6     472    0    0    0
C -88.05655173 -44.70074109 -86.97508112     2     472    476   477   478
H -89.65662060 -45.41890388 -88.00764691     6     475    0    0    0
H -86.62459454 -44.27773845 -88.37982121     6     475    0    0    0
C -86.99394643 -46.92867025 -85.56113616     2     475   479   480   481
H -85.51471200 -45.94462196 -84.34241828     6    478    0    0    0
H -88.47973024 -47.93480680 -84.46659970     6    478    0    0    0
C -85.88231896 -48.81407345 -87.57053629     2    478   482   483   484
H -87.05931691 -49.38613602 -89.23951619     6    481    0    0    0
H -84.38234706 -47.89655159 -88.69623947     6    481    0    0    0
C -84.81365663 -51.10853822 -86.20817453     2    481   485   486   487
H -83.19413513 -50.60680200 -85.19185582     6    484    0    0    0
H -86.10753187 -52.16120039 -84.95773401     6    484    0    0    0
C -83.78432220 -53.10057964 -88.00065098     2    484   488   489   490
H -85.27482253 -53.72518071 -89.27615174     6    487    0    0    0
H -82.39791079 -52.23842342 -89.15999010     6    487    0    0    0
C -82.59660407 -55.44378451 -86.58127541     2    487   491   492   493
H -81.26803210 -54.81877804 -85.21443298     6    490    0    0    0
H -84.02431316 -56.53992917 -85.48581512     6    490    0    0    0
C -81.46777167 -57.40432081 -88.52854077     2    490   494   495   496
H -82.91760002 -57.81423734 -90.02283375     6    493    0    0    0
H -79.86728232 -56.47892639 -89.49297269     6    493    0    0    0
C -80.49909177 -59.79080950 -87.14261519     2    493   497   498   499
H -80.12442669 -59.35324703 -85.17253302     6    496    0    0    0
H -82.06816857 -61.11750265 -87.13475834     6    496    0    0    0
C -78.11393060 -61.05407806 -88.36384220     2    496   500   501   502
H -78.39428951 -61.49937842 -90.35807820     6    499    0    0    0
H -76.60729204 -59.62364029 -88.13748526     6    499    0    0    0
C -77.11957438 -63.53855097 -87.11810840     1    499   503   504   505
H -75.26555665 -63.95546295 -87.90562846     6    502    0    0    0
H -78.48874545 -65.05500929 -87.46387786     6    502    0    0    0
H -76.87715320 -63.28066713 -85.15836691     6    502    0    0    0
H -67.21452173 -61.84707607 -69.28210759     6     507    0    0    0 
C -68.67549086 -61.20993545 -67.92595717     1     506    508    509    510
H -69.52092097 -59.54093565 -68.82323949     6     507    0    0    0
H -69.93052990 -62.85758397 -67.96467917     6     507    0    0    0
C -67.39115266 -60.59199580 -65.37586397     2     507    511    512    513
H -66.64248361 -62.31809440 -64.72605236     6     510    0    0    0
H -66.01644311 -59.13700767 -65.88603481     6     510    0    0    0
C -69.22950812 -59.68714191 -63.40795952     2     510    514   515   516
H -69.89878653 -57.87548648 -63.94232060     6     513    0    0    0
H -70.76100629 -60.98398383 -63.46932446     6     513    0    0    0
C -67.88847539 -59.62894714 -60.78441073     2     513   517   518   519
H -66.83156965 -61.40964155 -60.48012082     6    516    0    0    0
H -66.63943227 -57.91242998 -60.89049829     6    516    0    0    0
C -69.73073314 -59.56240201 -58.51112813     2    516   520   521   522
H -70.17051943 -57.48952809 -58.65585913     6    519    0    0    0
H -71.48604230 -60.49200509 -59.03358098     6    519    0    0    0
C -68.55513553 -60.56749820 -56.03398646     2    519   523   524   525
H -68.15204985 -62.59052710 -56.35485883     6    522    0    0    0
H -66.65388948 -59.91180055 -55.67576001     6    522    0    0    0
C -70.24000829 -60.15445659 -53.64472552     2    522   526   527   528
H -70.77573967 -58.13377169 -53.54684069     6    525    0    0    0
H -72.15388528 -61.11605782 -53.81776732     6    525    0    0    0
C -68.80297174 -60.89671131 -51.15852011     2    525   529   530   531
H -69.02926052 -62.95984462 -51.05104452     6    528    0    0    0
H -66.78789714 -60.57179556 -51.55050822     6    528    0    0    0
C -69.78269530 -59.60680790 -48.82213065     2    528   532   533   534
H -70.37699748 -57.70524395 -49.40363570     6    531    0    0    0
H -71.53330800 -60.58624945 -48.20267535     6    531    0    0    0
C -67.98114611 -59.24746385 -46.68527053     2    531   535   536   537
H -66.83904525 -60.96400372 -46.51640726     6    534    0    0    0
H -66.63373277 -57.78902485 -47.26103263     6    534    0    0    0
C -69.37463922 -58.48971905 -44.25473812     2    534   538   539   540
H -70.39499850 -56.74364951 -44.70467061     6    537    0    0    0
H -70.70497908 -59.97581245 -43.73351336     6    537    0    0    0
C -67.52530677 -58.15266224 -42.01728696     1    537   541   542   543
H -68.70653431 -57.83007014 -40.16381265     6    540    0    0    0
H -66.47327457 -56.58334872 -42.29236260     6    540    0    0    0
H -66.44091239 -59.83136422 -41.58014999     6    540    0    0    0
H -91.17721058 -52.75212754 -47.92780970     6     545    0    0    0 
C -93.08905716 -53.14090016 -48.29883125     1     544    546    547    548
H -93.32465583 -54.71923461 -49.63740413     6     545    0    0    0
H -93.85398704 -53.89344607 -46.51855882     6     545    0    0    0
C -94.46638940 -50.62553514 -48.88001475     2     545    549    550    551
H -94.16416257 -49.41911943 -47.29001779     6     548    0    0    0
H -93.88090734 -49.70288852 -50.60166085     6     548    0    0    0
C -97.42165304 -50.93337133 -48.85740174     2     548    552   553   554
H -98.01105489 -52.14246386 -50.48988341     6     551    0    0    0
H -98.12569790 -52.17614363 -47.29191298     6     551    0    0    0
C -98.86810841 -48.39610225 -48.84528417     2     551   555   556   557
H -98.43842279 -47.16655286 -47.12660676     6    554    0    0    0
H -98.20945101 -47.11008349 -50.20268814     6    554    0    0    0
C -101.72920047 -48.92133630 -48.98975734     2    554   558   559   560
H -102.11338424 -50.34935112 -50.43672515     6    557    0    0    0
H -102.24453307 -49.88491052 -47.25394852     6    557    0    0    0
C -103.22198068 -46.46722091 -49.08183785     2    557   561   562   563
H -103.47826360 -45.80052705 -47.14071069     6    560    0    0    0
H -101.92124664 -45.09764005 -50.13828546     6    560    0    0    0
C -105.83853523 -46.74638087 -50.56647320     2    560   564   565   566
H -105.76157761 -47.46367335 -52.51480780     6    563    0    0    0
H -107.05240655 -48.07224440 -49.58493953     6    563    0    0    0
C -107.17419221 -44.14754458 -50.68673353     2    563   567   568   569
H -107.44901757 -43.37665839 -48.72717505     6    566    0    0    0
H -105.74558901 -42.82780022 -51.49285454     6    566    0    0    0
C -109.58256586 -43.89593508 -52.30674694     2    566   570   571   572
H -109.34297692 -44.18449828 -54.51871940     6    569    0    0    0
H -110.73602413 -45.35407674 -51.57699908     6    569    0    0    0
C -110.77948777 -41.26648413 -52.01706296     2    569   573   574   575
H -111.06304478 -40.78060213 -50.07268897     6    572    0    0    0
H -109.52608375 -39.70117114 -52.63338264     6    572    0    0    0
C -113.34686648 -41.01563082 -53.41476568     2    572   576   577   578
H -114.63807003 -42.53996864 -53.16799533     6    575    0    0    0
H -114.29301691 -39.22763137 -52.75541487     6    575    0    0    0
C -112.74519505 -40.42090660 -56.25924332     1    575   579   580   581
H -111.43061477 -38.81288011 -56.56555823     6    578    0    0    0
H -114.42476574 -40.08887454 -57.43763768     6    578    0    0    0
H -112.02216848 -42.05847613 -57.32747054     6    578    0    0    0
H -98.84286777 -58.51498158 -84.05799992     6     583    0    0    0 
C -100.24728892 -58.63514538 -82.54143555     1     582    584    585    586
H -101.40785082 -60.15039622 -82.87656786     6     583    0    0    0
H -99.39340285 -59.04610015 -80.71491597     6     583    0    0    0
C -101.55627919 -55.96295589 -82.48642747     2     583    587    588    589
H -100.25424002 -54.51230050 -81.91103974     6     586    0    0    0
H -102.13948834 -55.53146959 -84.39065409     6     586    0    0    0
C -104.02352933 -55.76864749 -80.94294267     2     586    590   591   592
H -105.41995256 -57.27701285 -81.49758779     6     589    0    0    0
H -103.36108179 -56.20861662 -78.95044927     6     589    0    0    0
C -105.48896488 -53.30345273 -81.24537883     2     589   593   594   595
H -104.24065360 -51.86729277 -80.38441490     6    592    0    0    0
H -105.97588931 -52.79704863 -83.21962152     6    592    0    0    0
C -107.99996505 -53.27460018 -79.57272068     2    592   596   597   598
H -109.54019089 -54.33718065 -80.51969277     6    595    0    0    0
H -107.54945837 -54.08040511 -77.77243297     6    595    0    0    0
C -108.81876290 -50.55609892 -79.08597709     2    595   599   600   601
H -107.30083195 -49.57425854 -77.88680814     6    598    0    0    0
H -109.14974928 -49.50410638 -80.79512022     6    598    0    0    0
C -111.42917663 -50.51157877 -77.55178527     2    598   602   603   604
H -112.85383291 -51.12999598 -78.79506599     6    601    0    0    0
H -111.65007985 -51.68188092 -75.81393925     6    601    0    0    0
C -112.16359499 -47.73405659 -76.83236924     2    601   605   606   607
H -110.66416330 -46.96732858 -75.56196610     6    604    0    0    0
H -112.19131343 -46.39510201 -78.40204623     6    604    0    0    0
C -114.53004468 -47.44429764 -75.23446491     2    604   608   609   610
H -116.13066868 -48.30763062 -76.15940205     6    607    0    0    0
H -114.39854556 -48.47096623 -73.53992697     6    607    0    0    0
C -115.29322612 -44.64711306 -74.78197543     2    607   611   612   613
H -114.17474122 -44.23918881 -73.09592866     6    610    0    0    0
H -114.68447265 -43.16798566 -76.13360147     6    610    0    0    0
C -117.87586211 -44.39358215 -73.61044216     2    610   614   615   616
H -119.31112687 -44.25488621 -75.09659999     6    613    0    0    0
H -118.39209755 -46.06708127 -72.59126520     6    613    0    0    0
C -118.43065049 -42.21153792 -71.70242542     1    613   617   618   619
H -120.53060403 -42.08580626 -71.43511808     6    616    0    0    0
H -117.87619023 -40.40320568 -72.31308097     6    616    0    0    0
H -117.36706160 -42.41266523 -69.85061396     6    616    0    0    0
H -98.08443292 -80.03061239 -46.89694265     6     621    0    0    0 
C -96.84293274 -80.62999675 -48.38767439     1     620    622    623    624
H -95.72168313 -79.04027774 -48.98585681     6     621    0    0    0
H -95.81638864 -82.28999873 -47.78677412     6     621    0    0    0
C -98.36984155 -81.50618905 -50.66345330     2     621    625    626    627
H -99.10529344 -79.87397111 -51.68023593     6     624    0    0    0
H -97.10257655 -82.39403031 -51.92736700     6     624    0    0    0
C -100.55659712 -83.28792221 -49.90651995     2     624    628   629   630
H -99.76181554 -85.04279951 -49.09083388     6     627    0    0    0
H -101.60537610 -82.28271882 -48.45140927     6     627    0    0    0
C -102.14563875 -83.66778799 -52.16925870     2     627   631   632   633
H -103.15230230 -81.83600851 -52.40455645     6    630    0    0    0
H -100.88681174 -83.96947504 -53.77863953     6    630    0    0    0
C -104.04776253 -85.86323358 -51.95403405     2    630   634   635   636
H -103.25534389 -87.68134709 -51.89625301     6    633    0    0    0
H -105.06992578 -85.61068692 -50.21527496     6    633    0    0    0
C -106.01750403 -85.87174553 -53.90470818     2    633   637   638   639
H -107.01552256 -84.09560295 -53.53758202     6    636    0    0    0
H -105.39539375 -85.49882198 -55.92652982     6    636    0    0    0
C -107.86988200 -88.11198015 -53.72525309     2    636   640   641   642
H -106.86981366 -89.81060137 -54.39894553     6    639    0    0    0
H -108.34692717 -88.47231819 -51.78093706     6    639    0    0    0
C -110.29560232 -87.53605301 -55.27086138     2    639   643   644   645
H -111.23092123 -85.96735069 -54.49325575     6    642    0    0    0
H -109.86517196 -87.04024885 -57.18827165     6    642    0    0    0
C -112.13717170 -89.85720737 -55.38045384     2    642   646   647   648
H -111.85971074 -90.92980079 -53.63851195     6    645    0    0    0
H -114.04981922 -88.95770915 -55.47040892     6    645    0    0    0
C -111.82640319 -91.70791092 -57.71080436     2    645   649   650   651
H -112.41152735 -90.58132840 -59.39110603     6    648    0    0    0
H -109.98299366 -92.41509339 -57.94706388     6    648    0    0    0
C -113.61979950 -93.87619658 -57.72649261     2    648   652   653   654
H -113.07394702 -95.43201895 -56.47032207     6    651    0    0    0
H -115.42952279 -93.18720240 -56.89714183     6    651    0    0    0
C -113.98016908 -95.10867929 -60.25361752     1    651   655   656   657
H -115.52510488 -93.99756889 -61.11707923     6    654    0    0    0
H -114.73607721 -97.07355350 -60.07073119     6    654    0    0    0
H -112.45335185 -94.88529399 -61.55953404     6    654    0    0    0
H -104.24607920 -62.11694093 -72.33585051     6     659    0    0    0 
C -103.21363184 -60.50072814 -73.03494767     1     658    660    661    662
H -101.60950790 -60.01140836 -71.87371526     6     659    0    0    0
H -102.18243596 -61.18843023 -74.77586839     6     659    0    0    0
C -105.01665576 -58.14636043 -73.41412158     2     659    663    664    665
H -104.21334022 -56.75317603 -74.75700453     6     662    0    0    0
H -106.60419896 -58.75935910 -74.45423114     6     662    0    0    0
C -105.43821503 -56.88003842 -70.90772142     2     662    666   667   668
H -106.40868687 -58.17969031 -69.67004684     6     665    0    0    0
H -103.73842028 -56.39770521 -69.82279047     6     665    0    0    0
C -107.00332292 -54.42345720 -71.13295719     2     665   669   670   671
H -106.15024728 -53.02402185 -72.23747385     6    668    0    0    0
H -108.62652693 -54.86579789 -72.28647418     6    668    0    0    0
C -107.91285075 -53.39218667 -68.69354429     2    668   672   673   674
H -109.01473643 -54.78669842 -67.98940849     6    671    0    0    0
H -106.24480596 -52.85186081 -67.46122191     6    671    0    0    0
C -109.63097244 -51.06224397 -68.91681755     2    671   675   676   677
H -108.77810957 -49.65287408 -70.13520456     6    674    0    0    0
H -111.58150602 -51.46221235 -69.49782649     6    674    0    0    0
C -109.99158519 -50.09617460 -66.20651540     2    674   678   679   680
H -110.40524282 -51.65476770 -64.96860371     6    677    0    0    0
H -108.18931395 -49.18526518 -65.36003432     6    677    0    0    0
C -112.18524172 -48.17750083 -66.00822270     2    677   681   682   683
H -111.86063195 -46.75980754 -67.36925800     6    680    0    0    0
H -113.95186656 -49.04076496 -66.66779668     6    680    0    0    0
C -112.62256340 -46.74185169 -63.40583461     2    680   684   685   686
H -110.96976835 -45.92462010 -62.64070377     6    683    0    0    0
H -113.86497196 -45.07468036 -63.56302897     6    683    0    0    0
C -113.46131825 -48.72229462 -61.36119979     2    683   687   688   689
H -115.14965687 -49.85966206 -61.67296637     6    686    0    0    0
H -111.99458063 -50.18832138 -61.48905472     6    686    0    0    0
C -113.49052379 -47.83652991 -58.56481387     2    686   690   691   692
H -111.59237908 -47.24042835 -58.07393583     6    689    0    0    0
H -114.52786756 -46.07230709 -58.31251592     6    689    0    0    0
C -114.25388450 -49.97417127 -56.67744232     1    689   693   694   695
H -116.27153830 -50.46135504 -56.76433819     6    692    0    0    0
H -113.95884989 -49.36728862 -54.80330312     6    692    0    0    0
H -112.96114423 -51.60962884 -56.84446931     6    692    0    0    0
H -106.19562366 -46.82091676 -43.16511986     6     697    0    0    0 
C -107.39901528 -45.87371940 -41.73098296     1     696    698    699    700
H -108.41577241 -44.17372540 -42.52346107     6     697    0    0    0
H -108.94524034 -47.23460797 -41.72369034     6     697    0    0    0
C -106.03274304 -45.34360619 -39.25184757     2     697    701    702    703
H -107.27267290 -44.35789979 -37.90456120     6     700    0    0    0
H -105.38420789 -47.16905034 -38.48192272     6     700    0    0    0
C -103.93655001 -43.29145636 -39.51339802     2     700    704   705   706
H -104.68948858 -41.46384693 -40.26843762     6     703    0    0    0
H -103.21684477 -42.96863048 -37.55372742     6     703    0    0    0
C -101.58500754 -44.16251993 -40.97792883     2     703   707   708   709
H -101.29361240 -46.23903538 -40.49429423     6    706    0    0    0
H -101.99852509 -44.08616575 -42.91773393     6    706    0    0    0
C -99.07277680 -42.84660595 -40.31701740     2    706   710   711   712
H -99.29215964 -40.87701882 -40.87245002     6    709    0    0    0
H -98.64290887 -42.97724268 -38.25329170     6    709    0    0    0
C -96.83168101 -43.98607293 -41.58905539     2    709   713   714   715
H -96.79627693 -46.01404460 -41.53912061     6    712    0    0    0
H -96.84525048 -43.69744075 -43.63641463     6    712    0    0    0
C -94.50200254 -43.21186666 -40.15713974     2    712   716   717   718
H -94.46387559 -41.22449942 -40.06300887     6    715    0    0    0
H -94.52373441 -44.03281881 -38.21563867     6    715    0    0    0
C -92.07305178 -43.93620548 -41.56049017     2    715   719   720   721
H -91.82880148 -45.87687424 -41.88758892     6    718    0    0    0
H -92.45399389 -43.35744472 -43.57184795     6    718    0    0    0
C -89.83892528 -42.53776426 -40.65233825     2    718   722   723   724
H -89.88019339 -40.63355695 -40.92480535     6    721    0    0    0
H -89.86213002 -42.85005190 -38.67673618     6    721    0    0    0
C -87.29721438 -43.54903135 -41.89088769     2    721   725   726   727
H -87.00968047 -45.57849103 -41.38031675     6    724    0    0    0
H -87.54520168 -43.53892068 -43.96979554     6    724    0    0    0
C -84.83903692 -42.11018534 -41.21962284     2    724   728   729   730
H -84.52213549 -42.34005505 -39.16969349     6    727    0    0    0
H -83.23136032 -43.13840518 -42.28716961     6    727    0    0    0
C -84.72040620 -39.33591518 -41.97938414     1    727   731   732   733
H -82.84419338 -38.52581728 -41.49322914     6    730    0    0    0
H -86.25282010 -38.30055608 -41.02437977     6    730    0    0    0
H -85.16912482 -39.20416330 -44.04988999     6    730    0    0    0
H -88.79508097 -35.34734850 -64.80221980     6     735    0    0    0 
C -89.45044824 -33.73353974 -65.99567897     1     734    736    737    738
H -90.57496088 -32.37012275 -64.99459845     6     735    0    0    0
H -87.57756759 -32.95742516 -66.39558412     6     735    0    0    0
C -90.88172938 -34.67153392 -68.18531676     2     735    739    740    741
H -92.79688513 -35.53846540 -67.68522450     6     738    0    0    0
H -91.00978655 -32.97888510 -69.29856127     6     738    0    0    0
C -89.42304933 -36.70060542 -69.59866650     2     738    742   743   744
H -87.54476276 -36.13027169 -70.08332472     6     741    0    0    0
H -89.13293941 -38.34871155 -68.35631545     6     741    0    0    0
C -90.86918594 -37.42243243 -71.95853268     2     741   745   746   747
H -92.87377755 -37.49391849 -71.47660352     6    744    0    0    0
H -90.50770438 -35.92784236 -73.39232543     6    744    0    0    0
C -89.99866470 -40.10471461 -72.83922708     2    744   748   749   750
H -90.20269824 -41.62345619 -71.43085618     6    747    0    0    0
H -91.18978351 -40.55645142 -74.37287560     6    747    0    0    0
C -87.42011401 -39.94081338 -73.98944257     2    747   751   752   753
H -87.40954058 -38.49716301 -75.37050753     6    750    0    0    0
H -86.20160123 -39.12489413 -72.49189214     6    750    0    0    0
C -86.10250037 -42.42002144 -75.04163983     2    750   754   755   756
H -86.36362421 -43.95135661 -73.75078192     6    753    0    0    0
H -87.08061895 -43.06532630 -76.63928837     6    753    0    0    0
C -83.41090576 -42.16363596 -75.72392500     2    753   757   758   759
H -82.85034759 -40.57656460 -76.86009738     6    756    0    0    0
H -82.46575664 -42.05379836 -73.79774878     6    756    0    0    0
C -82.52011669 -44.55577925 -77.15164278     2    756   760   761   762
H -82.63916363 -46.11772412 -75.90637020     6    759    0    0    0
H -83.99823786 -44.75159820 -78.68519906     6    759    0    0    0
C -79.83968000 -44.36083001 -78.46117318     2    759   763   764   765
H -79.88994592 -42.73078593 -79.59434020     6    762    0    0    0
H -78.42219734 -44.21307257 -76.98482782     6    762    0    0    0
C -79.32354644 -46.57591644 -80.19663393     2    762   766   767   768
H -79.85509891 -48.38356883 -79.21193969     6    765    0    0    0
H -80.78884828 -46.45742443 -81.65005402     6    765    0    0    0
C -76.60676044 -46.33029768 -81.05400595     1    765   769   770   771
H -76.02702429 -44.60494896 -82.01312728     6    768    0    0    0
H -76.01505553 -47.71830418 -82.38250922     6    768    0    0    0
H -75.44714576 -46.68435621 -79.29362025     6    768    0    0    0
H -90.81652816 -80.61714117 -58.67227869     6     773    0    0    0 
C -90.14062956 -82.36231218 -57.69065452     1     772    774    775    776
H -91.78219682 -83.21622830 -56.80933219     6     773    0    0    0
H -89.49135281 -83.58761007 -59.18357419     6     773    0    0    0
C -87.84094224 -81.70781042 -56.07821113     2     773    777    778    779
H -86.90163703 -83.32354771 -55.37877860     6     776    0    0    0
H -86.47516792 -80.92884531 -57.50332470     6     776    0    0    0
C -88.49329770 -79.95330520 -53.99158364     2     776    780   781   782
H -88.97591569 -78.19794487 -54.75504181     6     779    0    0    0
H -90.07688862 -80.72622688 -52.98891831     6     779    0    0    0
C -86.18844724 -79.46130111 -52.22531643     2     779   783   784   785
H -85.66788810 -81.47121039 -51.85758421     6    782    0    0    0
H -84.77541833 -78.56321252 -53.42361697     6    782    0    0    0
C -86.76581523 -77.80322916 -49.93885154     2    782   786   787   788
H -87.63135126 -75.99712395 -50.54819700     6    785    0    0    0
H -88.18335511 -78.66257010 -48.66677080     6    785    0    0    0
C -84.32714124 -77.04601956 -48.39711027     2    785   789   790   791
H -83.40569527 -78.65555241 -47.76447465     6    788    0    0    0
H -82.96187074 -76.10550929 -49.58980747     6    788    0    0    0
C -84.99910034 -75.29875584 -46.27463906     2    788   792   793   794
H -85.94220003 -73.56354651 -47.04230737     6    791    0    0    0
H -86.50021709 -76.18350526 -45.12726501     6    791    0    0    0
C -82.78771107 -74.42072055 -44.61715191     2    791   795   796   797
H -82.34105466 -76.05036416 -43.26612795     6    794    0    0    0
H -81.06826218 -73.79205856 -45.47868724     6    794    0    0    0
C -83.60590935 -72.04216933 -42.97076390     2    794   798   799   800
H -84.60435671 -70.57221745 -44.08118151     6    797    0    0    0
H -85.13375649 -72.78736811 -41.70596030     6    797    0    0    0
C -81.58579584 -70.87000330 -41.30876635     2    797   801   802   803
H -80.52529770 -72.27171637 -40.20874327     6    800    0    0    0
H -80.38906932 -70.08986038 -42.73317749     6    800    0    0    0
C -82.37678248 -68.57847500 -39.73271985     2    800   804   805   806
H -82.98409924 -67.17917052 -41.20039500     6    803    0    0    0
H -83.76900490 -69.09912554 -38.28685368     6    803    0    0    0
C -79.99397589 -67.70594307 -38.16092912     1    803   807   808   809
H -79.93262601 -68.56037351 -36.25791794     6    806    0    0    0
H -79.88641445 -65.65113075 -37.84399601     6    806    0    0    0
H -78.18830008 -68.18627546 -39.09654598     6    806    0    0    0
H -91.71034918 -56.69926834 -77.17502125     6     811    0    0    0 
C -92.98802519 -57.23619732 -78.69386608     1     810    812    813    814
H -94.69141774 -56.12669763 -78.90640482     6     811    0    0    0
H -92.02287493 -56.90013881 -80.35183811     6     811    0    0    0
C -93.48889961 -60.16497443 -78.27758706     2     811    815    816    817
H -95.16436380 -60.34323749 -77.06458477     6     814    0    0    0
H -94.24751621 -60.94666776 -80.10032867     6     814    0    0    0
C -91.18358128 -61.67432535 -77.26892815     2     814    818   819   820
H -89.54744006 -61.35833571 -78.46473841     6     817    0    0    0
H -90.50869414 -60.88435372 -75.49962253     6     817    0    0    0
C -91.55927548 -64.56414406 -76.50621354     2     817   821   822   823
H -93.13350737 -64.73957918 -75.23938472     6    820    0    0    0
H -92.14105328 -65.92610774 -77.99022257     6    820    0    0    0
C -89.18862322 -65.40350090 -75.30584756     2    820   824   825   826
H -87.62318450 -65.05207162 -76.58724426     6    823    0    0    0
H -88.97581713 -64.39602831 -73.62225118     6    823    0    0    0
C -89.08789448 -68.33690900 -74.54249531     2    823   827   828   829
H -88.81342741 -68.31762255 -72.56213808     6    826    0    0    0
H -90.82171143 -69.18933821 -74.59934969     6    826    0    0    0
C -87.25296853 -69.90108236 -76.06405943     2    826   830   831   832
H -87.79329536 -70.05161933 -77.98893240     6    829    0    0    0
H -85.34327055 -68.99595469 -76.32938503     6    829    0    0    0
C -87.09997358 -72.58595834 -75.06746797     2    829   833   834   835
H -86.78828907 -72.56195031 -73.06601557     6    832    0    0    0
H -88.89519966 -73.65758732 -75.21667188     6    832    0    0    0
C -84.83262693 -74.01647563 -76.07711551     2    832   836   837   838
H -85.20996410 -73.95427692 -78.12007640     6    835    0    0    0
H -83.19834905 -72.82339091 -75.67290078     6    835    0    0    0
C -84.52563339 -76.62704397 -74.80432382     2    835   839   840   841
H -84.33714885 -76.57217096 -72.78483797     6    838    0    0    0
H -86.46793429 -77.37229739 -75.20814716     6    838    0    0    0
C -82.25018429 -78.10662623 -75.95266838     2    838   842   843   844
H -82.71577543 -78.02148258 -78.01269248     6    841    0    0    0
H -80.56402553 -77.02608088 -75.81288396     6    841    0    0    0
C -82.00799325 -80.84625970 -75.02262060     1    841   845   846   847
H -80.92622084 -80.72359210 -73.22234122     6    844    0    0    0
H -81.09875038 -82.02548723 -76.44257195     6    844    0    0    0
H -83.85967055 -81.78908803 -74.73038477     6    844    0    0    0
H -125.67133474 -40.94486331 -59.26138376     6     849    0    0    0 
C -123.81476873 -41.32547356 -58.37569499     1     848    850    851    852
H -123.46983653 -39.61004319 -57.44066780     6     849    0    0    0
H -123.92852702 -42.75910957 -56.92120553     6     849    0    0    0
C -121.93084289 -42.02317691 -60.45900676     2     849    853    854    855
H -121.69569160 -40.26268155 -61.62828144     6     852    0    0    0
H -120.03541350 -42.39638807 -59.57417742     6     852    0    0    0
C -122.76116606 -44.14875446 -62.07982803     2     852    856   857   858
H -123.82581153 -45.56935813 -60.99592017     6     855    0    0    0
H -124.17434952 -43.40559435 -63.25092831     6     855    0    0    0
C -120.73290965 -45.31537600 -63.78735627     2     855   859   860   861
H -119.93504167 -43.80462331 -64.93889856     6    858    0    0    0
H -119.22429268 -46.03735965 -62.38319929     6    858    0    0    0
C -121.74941493 -47.38452631 -65.53640752     2    858   862   863   864
H -122.38369832 -48.73770623 -64.21036358     6    861    0    0    0
H -123.45443904 -46.74943179 -66.56949389     6    861    0    0    0
C -119.76700930 -48.37451609 -67.27217103     2    861   865   866   867
H -119.22928674 -46.60269756 -68.31964207     6    864    0    0    0
H -118.20916607 -48.84298084 -66.06568072     6    864    0    0    0
C -120.29309640 -50.58156147 -69.03815343     2    864   868   869   870
H -121.60173543 -51.94587488 -68.09752140     6    867    0    0    0
H -121.59780166 -50.07850807 -70.50853465     6    867    0    0    0
C -117.87347112 -51.87270192 -70.01642607     2    867   871   872   873
H -116.86450820 -50.30448352 -70.62131387     6    870    0    0    0
H -116.74408370 -52.57207214 -68.33270744     6    870    0    0    0
C -117.87852674 -54.04969535 -71.81035457     2    870   874   875   876
H -115.91939455 -54.11748171 -72.51257398     6    873    0    0    0
H -118.21935461 -55.87486671 -70.83969675     6    873    0    0    0
C -119.64074627 -53.76825348 -74.16767886     2    873   877   878   879
H -121.58152084 -54.11094320 -73.52366161     6    876    0    0    0
H -119.66206941 -51.74574932 -74.75578032     6    876    0    0    0
C -118.63369565 -54.86086389 -76.64308645     2    876   880   881   882
H -116.80399925 -54.16568553 -77.03247343     6    879    0    0    0
H -118.25288970 -56.86192872 -76.25649410     6    879    0    0    0
C -120.57418865 -54.65917219 -78.92790516     1    879   883   884   885
H -119.51276445 -55.74577352 -80.46736467     6    882    0    0    0
H -121.04400560 -52.87212886 -79.40702447     6    882    0    0    0
H -122.40408821 -55.57105606 -78.72869225     6    882    0    0    0
H -90.02708976 -70.00312355 -64.91027056     6     887    0    0    0 
C -88.83512454 -68.30539014 -64.45562085     1     886    888    889    890
H -87.92484006 -68.80576132 -62.68562080     6     887    0    0    0
H -87.53082418 -67.85053034 -66.05960352     6     887    0    0    0
C -90.37060879 -65.80887169 -64.19300248     2     887    891    892    893
H -91.84349728 -65.90388225 -62.87515042     6     890    0    0    0
H -88.89003844 -64.63605262 -63.29023625     6     890    0    0    0
C -91.24299866 -64.96742314 -66.71160573     2     890    894   895   896
H -89.76748002 -64.41956321 -68.00533268     6     893    0    0    0
H -92.09022066 -66.55525121 -67.67582432     6     893    0    0    0
C -93.17945947 -62.80543243 -66.90086427     2     893   897   898   899
H -94.96476172 -63.64974378 -66.30820417     6    896    0    0    0
H -92.62126888 -61.42142774 -65.47284584     6    896    0    0    0
C -93.26863845 -61.46539484 -69.57722884     2    896   900   901   902
H -91.43172265 -61.25944936 -70.25851015     6    899    0    0    0
H -94.23633730 -62.89664440 -70.86207259     6    899    0    0    0
C -94.48825707 -58.70010807 -69.53854064     2    899   903   904   905
H -96.39587141 -59.08366803 -69.01739525     6    902    0    0    0
H -93.54998739 -57.50043936 -68.10685236     6    902    0    0    0
C -94.60712703 -57.56394455 -72.25858823     2    902   906   907   908
H -92.72619515 -56.99265866 -73.22168036     6    905    0    0    0
H -95.28947771 -58.95327811 -73.53223713     6    905    0    0    0
C -96.53887445 -55.39597791 -72.00017982     2    905   909   910   911
H -98.27395038 -56.23487500 -71.26094795     6    908    0    0    0
H -95.83674989 -54.05005606 -70.65186831     6    908    0    0    0
C -97.16311812 -54.08017355 -74.47493561     2    908   912   913   914
H -95.35663264 -53.61664106 -75.27285992     6    911    0    0    0
H -97.92399125 -55.53225031 -75.72563514     6    911    0    0    0
C -99.19783981 -52.06318522 -74.05541931     2    911   915   916   917
H -101.01263306 -52.83018433 -73.26655397     6    914    0    0    0
H -98.51774663 -50.59966286 -72.70447544     6    914    0    0    0
C -99.73949370 -50.36678421 -76.44806208     2    914   918   919   920
H -98.09237783 -49.23246807 -76.90000604     6    917    0    0    0
H -100.16921935 -51.57922162 -77.93475914     6    917    0    0    0
C -101.90956971 -48.46201961 -75.92916453     1    917   921   922   923
H -102.16148393 -47.09779506 -77.32263042     6    920    0    0    0
H -101.37405734 -47.32365986 -74.27908847     6    920    0    0    0
H -103.61002121 -49.41384463 -75.26999935     6    920    0    0    0
H -111.23703449 -66.63371036 -63.22073853     6     925    0    0    0 
C -113.10979013 -67.32704957 -64.07013091     1     924    926    927    928
H -113.71891521 -69.06801343 -63.04091092     6     925    0    0    0
H -114.41034445 -65.99957271 -63.17856131     6     925    0    0    0
C -113.34440874 -67.69550169 -66.87757375     2     925    929    930    931
H -112.32057369 -69.37790530 -67.56674511     6     928    0    0    0
H -115.33601805 -68.30467637 -67.22304033     6     928    0    0    0
C -112.43221418 -65.35959423 -68.33687660     2     928    932   933   934
H -113.51058150 -63.84097247 -67.47991105     6     931    0    0    0
H -110.51370970 -64.90196006 -67.95351881     6     931    0    0    0
C -112.83935080 -65.41805241 -71.20579822     2     931   935   936   937
H -111.37875534 -66.60622223 -71.95825257     6    934    0    0    0
H -114.46238189 -66.71143719 -71.79741833     6    934    0    0    0
C -112.65008645 -62.74633096 -72.43825427     2    934   938   939   940
H -114.20151190 -61.69578806 -71.86918309     6    937    0    0    0
H -110.99292241 -61.72373001 -71.94472651     6    937    0    0    0
C -112.70391264 -62.79066103 -75.32883560     2    937   941   942   943
H -111.45390105 -64.23727813 -75.99941019     6    940    0    0    0
H -114.51557989 -63.74564358 -75.64699013     6    940    0    0    0
C -112.52110290 -60.21555142 -76.53395380     2    940   944   945   946
H -114.41040169 -59.24859647 -76.26421243     6    943    0    0    0
H -110.86325031 -59.44857763 -75.64636853     6    943    0    0    0
C -111.73464298 -60.19134983 -79.39712294     2    943   947   948   949
H -111.57357866 -58.27533583 -80.25268558     6    946    0    0    0
H -109.75761817 -60.80762405 -79.49391577     6    946    0    0    0
C -113.56422793 -61.81671295 -81.04118098     2    946   950   951   952
H -112.74743003 -63.74351229 -81.25939995     6    949    0    0    0
H -115.33632977 -62.01566059 -80.16046034     6    949    0    0    0
C -114.00916426 -60.68161554 -83.63073878     2    949   953   954   955
H -114.73341218 -58.75118756 -83.54980963     6    952    0    0    0
H -112.28127853 -60.42703525 -84.60602995     6    952    0    0    0
C -115.66907726 -62.40527257 -85.31950556     2    952   956   957   958
H -114.90279645 -64.31630056 -85.53793439     6    955    0    0    0
H -117.51666725 -62.57325451 -84.47442870     6    955    0    0    0
C -115.92993879 -61.29786544 -87.94025856     1    955   959   960   961
H -117.47874026 -62.01500150 -88.92435100     6    958    0    0    0
H -114.36165292 -61.98577119 -89.07934858     6    958    0    0    0
H -116.15344536 -59.21022372 -87.83499724     6    958    0    0    0
H -72.65828033 -51.71098211 -66.41595286     6     963    0    0    0 
C -74.47615195 -52.17646477 -65.52877084     1     962    964    965    966
H -75.43778285 -50.39472954 -65.24776513     6     963    0    0    0
H -75.65579194 -53.15460748 -66.92899654     6     963    0    0    0
C -74.12391704 -53.64853155 -63.00779246     2     963    967    968    969
H -73.69255647 -55.59586082 -63.39172757     6     966    0    0    0
H -72.50682975 -53.07503900 -61.93983893     6     966    0    0    0
C -76.32983441 -53.76481943 -61.28076899     2     966    970   971   972
H -76.79311226 -51.80050254 -60.74626232     6     969    0    0    0
H -77.90618676 -54.64032686 -62.25311530     6     969    0    0    0
C -76.04030825 -55.40752937 -58.80430681     2     969   973   974   975
H -75.64906659 -57.28691256 -59.37620723     6    972    0    0    0
H -74.26301772 -54.71394458 -57.83907881     6    972    0    0    0
C -78.44984115 -54.88575065 -56.85563657     2    972   976   977   978
H -78.67709322 -52.86600434 -56.94858466     6    975    0    0    0
H -80.35260619 -55.73884882 -57.36432749     6    975    0    0    0
C -77.73047991 -55.70945194 -54.13325303     2    975   979   980   981
H -78.41674103 -57.65084229 -54.02237896     6    978    0    0    0
H -75.62460398 -55.86737782 -53.89402805     6    978    0    0    0
C -78.84017583 -54.12133594 -52.04190729     2    978   982   983   984
H -77.61574753 -52.36658142 -52.03369767     6    981    0    0    0
H -80.71611577 -53.29452606 -52.42443959     6    981    0    0    0
C -79.16601094 -55.55315741 -49.50052386     2    981   985   986   987
H -80.58064849 -57.09538265 -49.72075053     6    984    0    0    0
H -77.38865982 -56.44276767 -48.82116983     6    984    0    0    0
C -80.06562012 -53.50774459 -47.53533698     2    984   988   989   990
H -79.56387610 -54.32276927 -45.71393665     6    987    0    0    0
H -78.90860734 -51.79746144 -47.78763290     6    987    0    0    0
C -82.98017394 -52.70038324 -47.63213943     2    987   991   992   993
H -83.38486597 -51.95071937 -49.52247984     6    990    0    0    0
H -84.25136375 -54.32499021 -47.54643241     6    990    0    0    0
C -83.72625694 -50.62902783 -45.64469559     2    990   994   995   996
H -83.78375889 -51.62914275 -43.82052397     6    993    0    0    0
H -82.26098352 -49.24585877 -45.26914588     6    993    0    0    0
C -86.31651041 -49.39893911 -46.14778000     1    993   997   998   999
H -86.23626104 -48.25916347 -47.85668926     6    996    0    0    0
H -86.95484108 -48.18247868 -44.59221491     6    996    0    0    0
H -87.77703548 -50.82546732 -46.40557434     6    996    0    0    0
H -76.52119917 -58.07085240 -80.72828611     6     1001    0    0    0 
C -77.22527274 -56.51791119 -79.61560993     1     1000    1002    1003    1004
H -78.20621443 -55.65679087 -81.06111874     6     1001    0    0    0
H -78.69883835 -57.04559922 -78.36185526     6     1001    0    0    0
C -75.06239103 -55.12698371 -78.24238423     2     1001    1005    1006    1007
H -73.85303812 -56.33012748 -77.21728905     6     1004    0    0    0
H -73.94108657 -54.30626958 -79.90084884     6     1004    0    0    0
C -76.13358184 -52.98760695 -76.28217813     2     1004    1008   1009   1010
H -76.80261823 -51.44398818 -77.42803849     6     1007    0    0    0
H -77.65321679 -53.49083321 -75.14699144     6     1007    0    0    0
C -73.98960720 -51.87531197 -74.56751545     2     1007   1011   1012   1013
H -73.30772603 -53.49843717 -73.53072867     6    1010    0    0    0
H -72.30959549 -51.08117346 -75.53602550     6    1010    0    0    0
C -75.15590638 -49.75013477 -72.83934940     2    1010   1014   1015   1016
H -76.23887189 -48.55433175 -74.03489533     6    1013    0    0    0
H -76.46038209 -50.66372565 -71.41563743     6    1013    0    0    0
C -72.89054934 -48.22902630 -71.64105001     2    1013   1017   1018   1019
H -71.50495446 -49.57208507 -70.77940772     6    1016    0    0    0
H -71.82343982 -47.38635019 -73.17496554     6    1016    0    0    0
C -73.66077532 -45.93435178 -69.85815487     2    1016   1020   1021   1022
H -74.52713928 -44.42922507 -71.01620580     6    1019    0    0    0
H -75.14314087 -46.57368950 -68.60068509     6    1019    0    0    0
C -71.39529514 -44.66166381 -68.50368730     2    1019   1023   1024   1025
H -70.71071001 -43.10778771 -69.60965664     6    1022    0    0    0
H -71.99351029 -43.70717568 -66.83253004     6    1022    0    0    0
C -69.57832345 -46.76856689 -67.47102652     2    1022   1026   1027   1028
H -70.82789784 -48.23405671 -66.72878810     6    1025    0    0    0
H -68.61465597 -47.53299157 -69.01579525     6    1025    0    0    0
C -67.80676149 -45.74156045 -65.23870246     2    1025   1029   1030   1031
H -66.81319983 -43.82897328 -65.49112435     6    1028    0    0    0
H -69.02895321 -45.33644447 -63.56902358     6    1028    0    0    0
C -65.84479902 -47.89750850 -64.58689895     2    1028   1032   1033   1034
H -66.78145210 -49.68969311 -64.27286787     6    1031    0    0    0
H -64.80001852 -48.23630168 -66.31997781     6    1031    0    0    0
C -64.23239066 -47.30461163 -62.31702336     1    1031   1035   1036   1037
H -63.05584731 -45.60716811 -62.52067896     6    1034    0    0    0
H -63.11187070 -49.02787714 -62.00112127     6    1034    0    0    0
H -65.43855632 -47.12904390 -60.59470269     6    1034    0    0    0
H -79.04555205 -81.07259314 -63.85931874     6     1039    0    0    0 
C -80.34926982 -82.40011733 -64.77095041     1     1038    1040    1041    1042
H -80.08173825 -82.27066434 -66.81926237     6     1039    0    0    0
H -79.63246829 -84.24232138 -64.26942968     6     1039    0    0    0
C -83.09014154 -82.00114594 -63.76079693     2     1039    1043    1044    1045
H -83.11199187 -82.13153675 -61.59943139     6     1042    0    0    0
H -83.54460432 -80.14726125 -64.14456884     6     1042    0    0    0
C -84.83626855 -83.92434190 -65.00013584     2     1042    1046   1047   1048
H -84.54639874 -83.84230454 -67.04773026     6     1045    0    0    0
H -84.17371251 -85.76886250 -64.66569418     6     1045    0    0    0
C -87.75949683 -83.39865474 -64.66012896     2     1045   1049   1050   1051
H -88.41415891 -83.92524595 -62.78383281     6    1048    0    0    0
H -88.16611890 -81.37130014 -65.08998988     6    1048    0    0    0
C -89.26022137 -85.01634967 -66.57610062     2    1048   1052   1053   1054
[...]
 1803      H    -109.9552770300   -78.6610368300   -49.0928833000
 1804      H    -107.9063591600   -80.5431487100   -50.6611361700
 1805      C    -111.8179023700   -80.0477032200   -52.3278894600
 1806      H    -111.8780702800   -81.7222084200   -53.5931313100
 1807      H    -113.7156321100   -79.7524793800   -51.5876673500
 1808      C    -111.0682172100   -77.5953544400   -53.6867676500
 1809      H    -112.7451398000   -77.1799380000   -54.9110632100
 1810      H    -110.8210469200   -76.0115475500   -52.4012944800
 1811      C    -108.8360708400   -78.0338592700   -55.5623009900
 1812      H    -107.2365467200   -78.5921719400   -54.4383320200
 1813      H    -109.4558604100   -79.5213792800   -56.8530531600
 1814      C    -108.2121414800   -75.6194393800   -57.0173768500
 1815      H    -109.9559777100   -74.7603404000   -57.7088291200
 1816      H    -107.5611414800   -74.3336239600   -55.5566672500
 1817      C    -106.4146222700   -75.8022297400   -59.2481247800
 1818      H    -104.5862293000   -76.7924447200   -58.6241971900
 1819      H    -107.2518820300   -77.0490260200   -60.5919076800
 1820      C    -105.7798010200   -73.2772322800   -60.4063062400
 1821      H    -107.1256538100   -72.6824718300   -61.8480796500
 1822      H    -105.9187070400   -71.7881706200   -59.1848007800
 1823      C    -102.9844424400   -72.9647181100   -61.0181184900
 1824      H    -101.7962827300   -73.4841218700   -59.4643018800
 1825      H    -102.8408538300   -74.4384374500   -62.4130016700
 1826      C    -102.2422246900   -70.3942474600   -62.1473780500
 1827      H    -103.5758405500   -69.7657374400   -63.5025090500
 1828      H    -102.0405247600   -68.8901740100   -60.7521721300
 1829      C     -99.5817325600   -70.7271949000   -63.2852910400
 1830      H     -98.4792959400   -71.1076439600   -61.5443220400
 1831      H     -99.4737898300   -72.4971651800   -64.5317204900
 1832      C     -98.3141320900   -68.3875675100   -64.6233852600
 1833      H     -96.2151292800   -68.4864501700   -65.1584540500
 1834      H     -98.5874247400   -66.7118727300   -63.3905179400
 1835      H     -99.2815191100   -68.0931088500   -66.3916572300
 1836      H     -99.7062111800   -60.1798149700   -63.1847452000
 1837      C    -100.4335630700   -61.1856412500   -64.9085119900
 1838      H    -100.2042815700   -60.1934405900   -66.6849363600
 1839      H     -99.1828628700   -62.8507785300   -64.9752434800
 1840      C    -103.1242016300   -61.8782962500   -64.4516924600
 1841      H    -103.9045880900   -63.1947259300   -65.8794921500
 1842      H    -103.1241180300   -63.0356933000   -62.6554361000
 1843      C    -104.8761519000   -59.6276366000   -64.0920419800
 1844      H    -103.9515495700   -58.4454050100   -62.6250330600
 1845      H    -104.9833143600   -58.3720362900   -65.7186364400
 1846      C    -107.4856109100   -60.4227853600   -63.0236824600
 1847      H    -108.5519317500   -61.7120948500   -64.2255683900
 1848      H    -107.1828351300   -61.2177123400   -61.1549042900
 1849      C    -109.2400690300   -57.9703615900   -62.7468541000
 1850      H    -108.5952366300   -56.5976826100   -61.4534239000
 1851      H    -109.0950570200   -57.2085786000   -64.5503838000
 1852      C    -111.9441702000   -58.7903051000   -62.0234564100
 1853      H    -112.5684437000   -60.0129503900   -63.5874043900
 1854      H    -111.8176843400   -59.9924801900   -60.4470049200
 1855      C    -113.6691587200   -56.6491319000   -61.2642010800
 1856      H    -112.9510397100   -56.0425433200   -59.4653643600
 1857      H    -113.5145863700   -55.1730129100   -62.7772667600
 1858      C    -116.4152583700   -57.4072393000   -61.1232031000
 1859      H    -116.8585021600   -58.4592872400   -62.8697502200
 1860      H    -116.6808891600   -58.6818360400   -59.4689244600
 1861      C    -118.3912482300   -55.2657555500   -61.0242799200
 1862      H    -118.1066844700   -54.3750330500   -59.1863144500
 1863      H    -117.9972514200   -54.1345377800   -62.7119866400
 1864      C    -121.1577996300   -56.5191627000   -61.0881521000
 1865      H    -121.3502915000   -58.2596744600   -62.1995546100
 1866      H    -121.4728689300   -57.0164078500   -59.0344638400
 1867      C    -123.1539888800   -54.5208334100   -61.8090222800
 1868      H    -122.4056928800   -52.7141569300   -61.3033485300
 1869      H    -123.1849617400   -54.5077736400   -63.9785382700
 1870      C    -125.8176134000   -54.9227308100   -60.8001617300
 1871      H    -125.5272249900   -55.5825414600   -58.8476743200
 1872      H    -126.9288485500   -56.3589853800   -61.8764518900
 1873      H    -127.2070811800   -53.2740233100   -60.8629837400
 1874      H     -98.4907812900   -45.8744532600   -33.9104007700
 1875      C    -100.2856161100   -46.9125999800   -33.8663774100
 1876      H    -101.0132180000   -46.3775329900   -31.9906166500
 1877      H    -101.6312469900   -46.4095798200   -35.2880355200
 1878      C     -99.7424320200   -49.6718872600   -33.9035270200
 1879      H     -98.1343130000   -49.8685104000   -32.5314112600
 1880      H    -101.3894913600   -50.7649405800   -33.4404462000
 1881      C     -98.7016707200   -50.4827596000   -36.4494995600
 1882      H    -100.2352104300   -50.3396296100   -37.8687797300
 1883      H     -97.3819357000   -49.1071011600   -37.2059774900
 1884      C     -97.3223306800   -53.0688351700   -36.8048005400
 1885      H     -95.8307251500   -53.3865827000   -35.3430098400
 1886      H     -98.6520930100   -54.5632787500   -36.4828478400
 1887      C     -96.2564873800   -53.6491780800   -39.3528058800
 1888      H     -97.5241365300   -53.1927439600   -40.9509568500
 1889      H     -94.7316321400   -52.3408897200   -39.4109032100
 1890      C     -95.2760523400   -56.3232698800   -39.5320325900
 1891      H     -93.9857205000   -56.4040747300   -37.8653000900
 1892      H     -96.7653769700   -57.7147684100   -39.0914794600
 1893      C     -93.8368878300   -56.9274767000   -42.0760148300
 1894      H     -95.2538851500   -57.0301959400   -43.5270634300
 1895      H     -92.4725618200   -55.4259075800   -42.7635076600
 1896      C     -92.3458293100   -59.3776175700   -42.0568760800
 1897      H     -90.8867981500   -59.4836170200   -40.4848677000
 1898      H     -93.8522843500   -60.7067235800   -42.1657085700
 1899      C     -90.7519564500   -59.4951643000   -44.4712436600
 1900      H     -92.0457529000   -58.6551541300   -45.9686543100
 1901      H     -89.3311904300   -58.1121854200   -44.3007721600
 1902      C     -89.8998928900   -62.0894440500   -45.3836809300
 1903      H     -88.2343705100   -62.4329403500   -44.3868496500
 1904      H     -91.1866409700   -63.5579376200   -44.8788431600
 1905      C     -89.0090033900   -62.2324811200   -48.1897810500
 1906      H     -90.4684310900   -61.4809139000   -49.5142904100
 1907      H     -87.6007764300   -60.8495983200   -48.4232163600
 1908      C     -88.0603857600   -64.8822066800   -48.8590930700
 1909      H     -87.3027683800   -64.9387674500   -50.6696582800
 1910      H     -89.6826050200   -66.1251156600   -48.8637388400
 1911      H     -86.5277728700   -65.1954392300   -47.5260595300
 ----------------------------------------------------------------
 Nuclear Repulsion Energy =           0.00000000 hartrees
 There are     2498 alpha and     2498 beta electrons

 Total QAlloc Memory Limit   2000 MB
 Mega-Array Size       204 MB
 MEM_STATIC part       192 MB
   **** Step 1: MM calculation on the entire system **** 
 OPLSAA force field loaded.
Reading user-defined FF parameters...
 Reading user defined atom types.
 Found 3 user defined AtomTypes
finished.
Determining angles, torsions, etc. from user defined input
Determining VDW/Coulomb pairs... (useList = 0)

 Time req'd to get MM system information: 0.2 s (CPU) 0.3 s (wall)

 ------ MM Energies ------
   Ebond:           576.389439793774
   Eangle:          884.537498421378
   EUreyBrad:         0.000000000000
   Eimptors:          0.000000000000
   Etorsion:        220.590551462165
   Evdw:         996742.525716105127
   Ecoulomb:        187.729293138540
   Etot:         998611.772498920909 Kcal/mol (   1591.389164067168 hartree)
 -------------------------
 Time req'd to calc MM energy: 0.1 s (CPU) 0.1 s (wall)
 OPLSAA force field loaded.
Reading user-defined FF parameters...
 Reading user defined atom types.
 Found 3 user defined AtomTypes
finished.
 Time req'd to get MM system information: 0.0 s (CPU) 0.0 s (wall)
 Time req'd to calc MM gradient: 0.2 s (CPU) 0.2 s (wall)
   **** Step 2: MM calculation on the model system **** 
 Reading user defined atom types.
 Found 3 user defined AtomTypes
 ----------------------------------------------------------------
             Standard Nuclear Orientation (Bohr)
    I     Atom           X                Y                Z
 ----------------------------------------------------------------
    1      Fe    -95.6008049500   -56.5515857500   -55.3849652800
    2      C     -92.3614573800   -55.8410700400   -55.0217695700
    3      C     -98.9204725800   -57.7519815900   -55.4609306200
    4      C     -96.4320223900   -53.1908911000   -55.8050647200
    5      C     -94.9787167000   -58.3682031200   -58.2885899100
    6      C     -95.4105145400   -58.0718321200   -52.3298455100
    7      O     -90.1387485200   -55.6639676300   -54.8318118800
    8      O    -100.9864967200   -58.5828240000   -55.3453705700
    9      O     -96.8871318400   -51.0743934700   -55.4552550000
   10      O     -94.4677234700   -59.4646915200   -60.1604602800
   11      O     -95.1971026700   -59.4399574400   -50.5914240700
 ----------------------------------------------------------------
 Nuclear Repulsion Energy =         793.24677678 hartrees
 There are       48 alpha and       48 beta electrons
 OPLSAA force field loaded.
Reading user-defined FF parameters...
 Reading user defined atom types.
 Found 3 user defined AtomTypes
finished.
Determining VDW/Coulomb pairs... (useList = 0)

 No MM bonds in system. Return all possible pairs.
 Time req'd to get MM system information: 0.0 s (CPU) 0.0 s (wall)

 ------ MM Energies ------
   Ebond:             0.000000000000
   Eangle:            0.000000000000
   EUreyBrad:         0.000000000000
   Eimptors:          0.000000000000
   Etorsion:          0.000000000000
   Evdw:         997187.762462831335
   Ecoulomb:         -6.438575776263
   Etot:         997181.323887055041 Kcal/mol (   1589.109599091701 hartree)
 -------------------------
 Eold: 1591.3891641 mm_energy: 1589.1095991 Enew:    2.2795650
 Time req'd to calc MM energy: 0.0 s (CPU) 0.0 s (wall)
 OPLSAA force field loaded.
Reading user-defined FF parameters...
 Reading user defined atom types.
 Found 3 user defined AtomTypes
finished.
Determining VDW/Coulomb pairs... (useList = 0)

 No MM bonds in system. Return all possible pairs.
 Time req'd to get MM system information: 0.0 s (CPU) 0.0 s (wall)
 Number of fixed atoms: 0
 Time req'd to calc MM gradient: 0.0 s (CPU) 0.0 s (wall)
   **** Step 3: QM calculation on the model system **** 
 Requested basis set is def2-mSVP
 There are 80 shells and 174 basis functions

                       Distance Matrix (Bohrs)
             Fe(  1)   C (  2)   C (  3)   C (  4)   C (  5)   C (  6)
   C (  2)  3.336183
   C (  3)  3.530852  6.845811
   C (  4)  3.487359  4.920010  5.207145
   C (  5)  3.481110  4.889638  4.890074  5.923222
   C (  6)  3.417765  4.638912  4.714425  6.078175  5.981715
   O (  7)  5.561286  2.237830  9.048440  6.831444  6.533567  6.312619
   O (  8)  5.756142  9.056116  2.229823  7.073012  6.693431  6.359723
   O (  9)  5.626652  6.587173  6.980307  2.192955  8.054160  7.804661
   O ( 10)  5.707487  6.631224  6.696710  7.885969  2.228744  8.009210
   O ( 11)  5.611034  6.373448  6.358053  8.231519  7.774491  2.222481
             O (  7)   O (  8)   O (  9)   O ( 10)
   O (  8) 11.245315
   O (  9)  8.184959  8.555314
   O ( 10)  7.847294  8.152128  9.919153
   O ( 11)  7.604337  7.540011  9.823223  9.596826

 A cutoff of  1.0D-11 yielded   2476 shell pairs
 There are     12732 function pairs (     14561 Cartesian)
 Smallest overlap matrix eigenvalue = 2.73E-03
 Guess MOs from SCF MO coefficient file
 Reading MOs from coefficient file
 Reading MOs from coefficient file
 A restricted Kohn-Sham SCF calculation will be
 performed using Pulay DIIS extrapolation
 Exchange:  B88      Correlation:  P86
 Using SG-1 standard quadrature grid
 SCF converges when DIIS error is below 1.0E-08
 Using Q-Chem read-in guess as SCF_GUESS READ specified.

 using 2 threads for integral computing
 -------------------------------------------------------
 OpenMP Integral computing Module                
 Release: version 1.0, May 2013, Q-Chem Inc. Pittsburgh 
 -------------------------------------------------------
 ---------------------------------------
  Cycle       Energy         DIIS Error
 ---------------------------------------
    1   -1830.5189655467      3.17E-09
    2   -1830.5189655468      3.86E-08
    3   -1830.5189655466      2.18E-09 Convergence criterion met
 ---------------------------------------
 SCF time:  CPU 3.77 s  wall 2.11 s
 E(QM + QM/MM):    -1830.5189655466 E(MM):    2.2795650 E(Tot): -1828.239400571104 
 SCF   energy in the final basis set = -1828.23940057
 Total energy in the final basis set = -1828.23940057

 --------------------------------------------------------------

                    Orbital Energies (a.u.)
 --------------------------------------------------------------

 Alpha MOs
 -- Occupied --
******** -29.6362 -25.5968 -25.5832 -25.5793 -18.8942 -18.8802 -18.8797
-18.8797 -18.8748 -10.0645 -10.0529 -10.0482 -10.0454 -10.0434  -3.3200
 -2.1567  -2.1308  -2.1219  -1.0564  -1.0534  -1.0431  -1.0423  -1.0411
 -0.5736  -0.5287  -0.5205  -0.5183  -0.5133  -0.4549  -0.4403  -0.4349
 -0.4304  -0.4301  -0.4276  -0.4211  -0.4184  -0.4135  -0.4080  -0.4070
 -0.4030  -0.3955  -0.3918  -0.3799  -0.2771  -0.2717  -0.2308  -0.2237
 -- Virtual --
 -0.1087  -0.0976  -0.0909  -0.0857  -0.0831  -0.0729  -0.0717  -0.0554
 -0.0534  -0.0414  -0.0294   0.0131   0.1883   0.2039   0.2201   0.2465
  0.2962   0.3248   0.3419   0.3910   0.4098   0.4143   0.4306   0.4356
  0.4396   0.4779   0.4973   0.5029   0.5175   0.5569   0.5633   0.5881
  0.6006   0.6120   0.6156   0.6299   0.7397   0.7568   0.7588   0.7712
  0.7792   0.8236   0.8367   0.8530   0.8709   0.8990   0.9430   0.9510
  0.9638   0.9691   0.9862   0.9916   1.0096   1.0133   1.0252   1.0614
  1.2016   1.2253   1.2671   1.3170   1.4044   1.4084   1.4137   1.4175
  1.4192   1.4216   1.4250   1.4318   1.4469   1.4629   1.4751   1.4824
  1.5088   1.5221   1.5284   1.5457   1.5783   1.6327   1.6601   1.6615
  1.6767   1.8200   1.8278   1.8353   1.8362   1.8419   1.8450   1.8470
  1.8571   1.8631   1.8734   1.8812   1.8841   1.8981   1.9064   1.9415
  2.3402   2.3982   2.4143   2.4397   2.4530   2.4590   2.4663   2.4744
  2.4889   2.5011   2.6254   2.6334   2.6342   2.6481   2.6521   2.7995
  2.8057   2.8745   2.8835   2.9402  13.2484  13.2767  13.2919  13.3388
 13.4437  24.9118  24.9293  24.9326  24.9774  24.9987
 --------------------------------------------------------------

          Ground-State Mulliken Net Atomic Charges

     Atom                 Charge (a.u.)
  ----------------------------------------
      1 Fe                   -0.454090
      2 C                     0.181256
      3 C                     0.219272
      4 C                     0.217505
      5 C                     0.229538
      6 C                     0.207401
      7 O                    -0.134713
      8 O                    -0.113217
      9 O                    -0.104808
     10 O                    -0.122970
     11 O                    -0.125176
  ----------------------------------------
  Sum of atomic charges =     0.000000

 -----------------------------------------------------------------
                    Cartesian Multipole Moments
 -----------------------------------------------------------------
    Charge (ESU x 10^10)
                -0.0000
    Dipole Moment (Debye)
         X      -0.4626511352      Y       0.2241904141      Z      -0.2570505235
       Tot       0.5747889928
    Quadrupole Moments (Debye-Ang)
        XX     -22.8664     XY       2.8937     YY     -83.4767
        XZ      26.9475     YZ       1.0275     ZZ     -54.7267
    Octopole Moments (Debye-Ang^2)
       XXX    7016.8290    XXY    1225.2155    XYY    3787.2128
       YYY    6901.3470    XXZ     -29.1135    XYZ    -481.4038
       YYZ    2219.0828    XZZ    2345.4207    YZZ    1850.5805
       ZZZ    5469.9214
    Hexadecapole Moments (Debye-Ang^3)
      XXXX -830026.2309   XXXY -237068.6231   XXYY -232585.9168
      XYYY -335869.7246   YYYY -402302.8668   XXXZ -169035.0748
      XXYZ  -15151.9176   XYYZ  -99100.3284   YYYZ -195367.5340
      XXZZ -157173.6887   XYZZ  -80581.8464   YYZZ -121985.6910
      XZZZ -263792.2223   YZZZ -170871.9387   ZZZZ -333971.7977
 -----------------------------------------------------------------
 Calculating MO derivatives via CPSCF
 Full subspace dimension requested for CIS/TDDFT
 MAX_CIS_SUBSPACE fits in available memory
    1     0    36    0.0415022  
    2     0    36    0.0069396  
    3     0    36    0.0006480  
    4     0    36    0.0000535  
    5    34     2    0.0000017  
    6    36     0    0.0000000  Converged
 Time for AOints: 6.5 s (CPU) 3.3 s (wall)
 ------------------------------------------------------------------------------
                     AOints        : Timing summary (seconds)
 ------------------------------------------------------------------------------
     job step          cpu (% of tot)      sys (% of tot)     wall (% of tot)
 ------------------------------------------------------------------------------
  AOints            0.6547E+01 ( 3.7)   0.1300E-04 (11.5)   0.3334E+01 ( 3.7)
 ------------------------------------------------------------------------------
   Grand Totals     0.1785E+03          0.1130E-03          0.8985E+02
 ------------------------------------------------------------------------------
 Polarizability Matrix (a.u.)
            1           2           3
    1-101.0588181  -4.1615041   0.1017429
    2  -4.1615041 -91.7429539   0.0493467
    3   0.1017429   0.0493467 -87.8820394
 Derivative of Dipole Moment Matrix (a.u.)
            1           2           3
    1  -1.8722265   0.0037577   0.0420934
    2  -0.0350973  -1.8004283  -0.0617816
    3  -0.0324256   0.0376580  -1.7899260
    4   2.1689257   0.3848561   0.1416568
    5   0.2144742   0.4606267   0.0612568
    6   0.1981168   0.0196768   0.4459411
    7   1.9883952   0.5056713  -0.0004921
    8   0.6567959   0.6143469   0.0451555
    9  -0.0568348  -0.0406912   0.3963173
   10   0.5118731  -0.3934872   0.0212377
   11  -0.4789985   2.3206647  -0.0973611
   12  -0.0366483   0.1667543   0.4251298
   13   0.4516230  -0.2575729  -0.3890472
   14  -0.2200423   0.9349647   0.7997451
   15  -0.3530091   0.8677133   1.7329895
   16   0.3405563  -0.0983146   0.1707917
   17  -0.0793424   0.8673146  -0.9873275
   18   0.1051909  -0.6950765   1.7636338
   19  -1.5590414  -0.3024404  -0.1301935
   20  -0.1142091  -0.1890506  -0.0193213
   21  -0.1393253  -0.0289702  -0.1729096
   22  -1.4320982  -0.4314708  -0.0182043
   23  -0.5407696  -0.3311047  -0.0185939
   24   0.0758818   0.0260595  -0.1412295
   25  -0.2300505   0.3158796  -0.0146666
   26   0.3705582  -1.7013633   0.0790869
   27   0.0623749  -0.2548436  -0.1632866
   28  -0.2185925   0.1919210   0.3136514
   29   0.1556079  -0.5631435  -0.6454470
   30   0.2551648  -0.6535077  -1.2683045
   31  -0.1493642   0.0812003  -0.1368273
   32   0.0710232  -0.6128274   0.8445882
   33  -0.0784863   0.5552274  -1.2283553
 -----------------------------------------
 Net:  -0.00000  -0.00000  -0.00000
 -----------------------------------------

 Calculating analytic Hessian of the SCF energy
