                  Welcome to Q-Chem
     A Quantum Leap Into The Future Of Chemistry


 Q-Chem 5.4 (devel), Q-Chem, Inc., Pleasanton, CA (2021)

 E. Epifanovsky,  A. T. B. Gilbert,  Xintian Feng,  Joonho Lee,  Yuezhi Mao,  
 N. Mardirossian,  P. Pokhilko,  A. White,  M. Wormit,  M. P. Coons,  
 A. L. Dempwolff,  Zhengting Gan,  D. Hait,  P. R. Horn,  L. D. Jacobson,  
 I. Kaliman,  J. Kussmann,  A. W. Lange,  Ka Un Lao,  D. S. Levine,  Jie Liu,  
 S. C. McKenzie,  A. F. Morrison,  K. Nanda,  F. Plasser,  D. R. Rehn,  
 M. L. Vidal,  Zhi-Qiang You,  Ying Zhu,  B. Alam,  B. Albrecht,  
 A. Aldossary,  E. Alguire,  J. H. Andersen,  D. Barton,  K. Begam,  A. Behn,  
 Y. A. Bernard,  E. J. Berquist,  H. Burton,  A. Carreras,  K. Carter-Fenk,  
 R. Chakraborty,  A. D. Chien,  K. D. Closser,  V. Cofer-Shabica,  
 S. Dasgupta,  Jia Deng,  M. de Wergifosse,  M. Diedenhofen,  Hainam Do,  
 S. Ehlert,  Po-Tung Fang,  S. Fatehi,  Qingguo Feng,  T. Friedhoff,  
 J. Gayvert,  Qinghui Ge,  G. Gidofalvi,  M. Goldey,  J. Gomes,  
 C. Gonzalez-Espinoza,  S. Gulania,  A. Gunina,  M. W. D. Hanson-Heine,  
 P. H. P. Harbach,  A. W. Hauser,  M. F. Herbst,  M. Hernandez Vera,  
 M. Hodecker,  Z. C. Holden,  S. Houck,  Xunkun Huang,  Kerwin Hui,  
 B. C. Huynh,  M. Ivanov,  Hyunjun Ji,  Hanjie Jiang,  B. Kaduk,  S. Kaehler,  
 K. Khistyaev,  Jaehoon Kim,  P. Klunzinger,  Z. Koczor-Benda,  
 Joong Hoon Koh,  D. Kosenkov,  L. Koulias,  T. Kowalczyk,  C. M. Krauter,  
 K. Kue,  A. Kunitsa,  T. Kus,  A. Landau,  K. V. Lawler,  D. Lefrancois,  
 S. Lehtola,  Rain Li,  Yi-Pei Li,  Jiashu Liang,  M. Liebenthal,  
 Hung-Hsuan Lin,  You-Sheng Lin,  Fenglai Liu,  Kuan-Yu Liu,  
 M. Loipersberger,  A. Luenser,  A. Manjanath,  P. Manohar,  E. Mansoor,  
 S. F. Manzer,  Shan-Ping Mao,  A. V. Marenich,  T. Markovich,  S. Mason,  
 S. A. Maurer,  P. F. McLaughlin,  M. F. S. J. Menger,  J.-M. Mewes,  
 S. A. Mewes,  P. Morgante,  J. W. Mullinax,  K. J. Oosterbaan,  G. Paran,  
 Alexander C. Paul,  Suranjan K. Paul,  F. Pavosevic,  Zheng Pei,  S. Prager,  
 E. I. Proynov,  E. Ramos,  B. Rana,  A. E. Rask,  A. Rettig,  R. M. Richard,  
 F. Rob,  E. Rossomme,  T. Scheele,  M. Scheurer,  M. Schneider,  
 N. Sergueev,  S. M. Sharada,  W. Skomorowski,  D. W. Small,  C. J. Stein,  
 Yu-Chuan Su,  E. J. Sundstrom,  Zhen Tao,  J. Thirman,  T. Tsuchimochi,  
 N. M. Tubman,  S. P. Veccham,  O. Vydrov,  J. Wenzel,  J. Witte,  A. Yamada,  
 Kun Yao,  S. Yeganeh,  S. R. Yost,  A. Zech,  Igor Ying Zhang,  Xing Zhang,  
 Yu Zhang,  D. Zuev,  A. Aspuru-Guzik,  A. T. Bell,  N. A. Besley,  
 K. B. Bravaya,  B. R. Brooks,  D. Casanova,  Jeng-Da Chai,  S. Coriani,  
 C. J. Cramer,  A. E. DePrince, III,  R. A. DiStasio Jr.,  A. Dreuw,  
 B. D. Dunietz,  T. R. Furlani,  W. A. Goddard III,  S. Grimme,  
 S. Hammes-Schiffer,  T. Head-Gordon,  W. J. Hehre,  Chao-Ping Hsu,  
 T.-C. Jagau,  Yousung Jung,  A. Klamt,  Jing Kong,  D. S. Lambrecht,  
 WanZhen Liang,  N. J. Mayhall,  C. W. McCurdy,  J. B. Neaton,  
 C. Ochsenfeld,  J. A. Parkhill,  R. Peverati,  V. A. Rassolov,  Yihan Shao,  
 L. V. Slipchenko,  T. Stauch,  R. P. Steele,  J. E. Subotnik,  
 A. J. W. Thom,  A. Tkatchenko,  D. G. Truhlar,  T. Van Voorhis,  
 T. A. Wesolowski,  K. B. Whaley,  H. L. Woodcock III,  P. M. Zimmerman,  
 S. Faraji,  P. M. W. Gill,  M. Head-Gordon,  J. M. Herbert,  A. I. Krylov

 Additional authors for Version 5.4.1: 
 S. Kotaru,  Shaozhi Li,  Xiangyuan Li,  F. Matz,  A. Molle,  Haisheng Ren,  
 Yingli Su,  Hung-Yi Tsai,  C. Utku,  Fang Wang

 Contributors to earlier versions of Q-Chem not listed above: 
 R. D. Adamson,  B. Austin,  R. Baer,  J. Baker,  G. J. O. Beran,  
 K. Brandhorst,  S. T. Brown,  E. F. C. Byrd,  A. K. Chakraborty,  
 G. K. L. Chan,  Chun-Min Chang,  Yunqing Chen,  C.-L. Cheng,  
 Siu Hung Chien,  D. M. Chipman,  D. L. Crittenden,  H. Dachsel,  
 R. J. Doerksen,  A. D. Dutoi,  R. G. Edgar,  J. Fosso-Tande,  
 L. Fusti-Molnar,  D. Ghosh,  A. Ghysels,  A. Golubeva-Zadorozhnaya,  
 J. Gonthier,  M. S. Gordon,  S. R. Gwaltney,  G. Hawkins,  J. E. Herr,  
 A. Heyden,  S. Hirata,  E. G. Hohenstein,  G. Kedziora,  F. J. Keil,  
 C. Kelley,  Jihan Kim,  R. A. King,  R. Z. Khaliullin,  P. P. Korambath,  
 W. Kurlancheek,  A. Laurent,  A. M. Lee,  M. S. Lee,  S. V. Levchenko,  
 Ching Yeh Lin,  D. Liotard,  E. Livshits,  R. C. Lochan,  I. Lotan,  
 L. A. Martinez-Martinez,  P. E. Maslen,  N. Nair,  D. P. O'Neill,  
 D. Neuhauser,  E. Neuscamman,  C. M. Oana,  R. Olivares-Amaya,  R. Olson,  
 T. M. Perrine,  B. Peters,  P. A. Pieniazek,  A. Prociuk,  Y. M. Rhee,  
 J. Ritchie,  M. A. Rohrdanz,  E. Rosta,  N. J. Russ,  H. F. Schaefer III,  
 M. W. Schmidt,  N. E. Schultz,  S. Sharma,  N. Shenvi,  C. D. Sherrill,  
 A. C. Simmonett,  A. Sodt,  T. Stein,  D. Stuck,  K. S. Thanthiriwatte,  
 V. Vanovschi,  L. Vogt,  Tao Wang,  A. Warshel,  M. A. Watson,  
 C. F. Williams,  Q. Wu,  X. Xu,  Jun Yang,  W. Zhang,  Yan Zhao

 Please cite Q-Chem as follows:
 Y. Shao et al., Mol. Phys. 113, 184-215 (2015)
 DOI: 10.1080/00268976.2014.952696

 Q-Chem 5.4.1 for Intel X86 EM64T Linux

 Parts of Q-Chem use Armadillo 9.900.5 (Nocturnal Misbehaviour).
 http://arma.sourceforge.net/

 Q-Chem begins on Fri Jul  1 20:00:03 2022  

 Host: p09r14n09.grace.hpc.yale.internal
0

     Scratch files written to /home/tl686/scratch60/qchem_dev/scratch/qchem8791//
 Processing $rem in /home/tl686/qchem_dev/qchem/config/preferences:
 Processing $rem in /home/tl686/.qchemrc:
Applying user defined connections for MM calculations

 Checking the input file for inconsistencies... 	...done.

--------------------------------------------------------------
User input:
--------------------------------------------------------------
$molecule
0   1
 Fe -23.17661984 18.53510279 39.41391983    -1  0   0   0   0
C -22.06712951 15.38476192 40.07250213    -2  0   0   0   0 
C -24.14065467 21.90989356 39.01603983    -2  0   0   0   0
C -23.47727729 18.96273986 42.76127327    -2  0   0   0   0
C -20.03913501 18.82231584 37.35695151    -2  0   0   0   0
C -25.75782465 17.41411170 37.60267050    -2  0   0   0   0
O -21.39387332 13.24495816 40.24308450    -3  0   0   0   0
O -24.78905427 24.04902397 39.02767802    -3  0   0   0   0 
O -23.58079116 19.24305609 44.93210168    -3  0   0   0   0
O -18.17886213 19.23000142 36.35866488    -3  0   0   0   0 
O -27.45540851 16.47133137 36.45114543    -3  0   0   0   0
H 3.31060084 3.61621213 44.99153464      6     13    0    0    0 
C 2.07375637 2.26088155 46.10129460     1     12    14    15    16
H 3.24426148 1.02304108 47.03000241     6     13    0    0    0
H 1.02106636 3.19504267 47.53168641     6     13    0    0    0
C 0.38493654 0.82155007 44.25525623     2     13    17    18    19
H 1.75547912 0.03999414 42.82804958     6     16    0    0    0
H -0.39596007 -0.83756358 45.05344627     6     16    0    0    0
C -1.73520826 2.44628760 43.03086915     2     16    20   21   22
H -3.42420968 2.39434792 44.38736097     6     19    0    0    0
H -1.29106795 4.42490907 43.19963877     6     19    0    0    0
C -2.34542803 1.85698477 40.16552680     2     19   23   24   25
H -0.74275018 2.07631516 38.94985117     6    22    0    0    0
H -2.97668462 -0.13704802 39.99156101     6    22    0    0    0
C -4.53939572 3.57277784 39.18074265     2    22   26   27   28
H -6.15336341 3.12721757 40.24356795     6    25    0    0    0
H -4.19316910 5.62193584 39.44513067     6    25    0    0    0
C -5.00415941 3.15461646 36.37089407     2    25   29   30   31
H -3.22749388 3.66366405 35.38801492     6    28    0    0    0
H -5.43508259 1.21158792 36.05861652     6    28    0    0    0
C -7.02792551 4.91801489 35.27545086     2    28   32   33   34
H -8.71723118 4.67074072 36.36198216     6    31    0    0    0
H -6.41282523 6.82305124 35.75368336     6    31    0    0    0
C -7.49716790 4.75742066 32.45447220     2    31   35   36   37
H -6.00429887 5.72989034 31.58838183     6    34    0    0    0
H -7.09440483 2.90095317 31.56899095     6    34    0    0    0
C -10.09529063 5.75905677 31.62513036     2    34   38   39   40
H -11.44615768 4.65465287 32.67646643     6    37    0    0    0
H -10.56903705 7.73778652 32.23491614     6    37    0    0    0
C -10.63055568 5.52372491 28.82790249     2    37   41   42   43
H -9.39904858 6.89951203 27.77677602     6    40    0    0    0
H -10.04113150 3.60659249 28.32008235     6    40    0    0    0
C -13.39224255 6.10848799 28.27630910     2    40   44   45   46
H -14.62472010 4.76412220 29.32634113     6    43    0    0    0
H -13.88907250 7.87846204 29.14550218     6    43    0    0    0
C -14.16200669 6.15955895 25.49442610     1    43   47   48   49
H -12.93016694 7.30223139 24.41179902     6    46    0    0    0
H -16.03364549 7.01186883 25.40100794     6    46    0    0    0
H -14.36577533 4.30266938 24.82106582     6    46    0    0    0
H -21.74820678 11.47998164 31.90755279     6     51    0    0    0 
C -21.05866607 11.76191659 33.82036329     1     50    52    53    54
H -21.43773403 13.72561565 34.58435783     6     51    0    0    0
H -22.17042925 10.41471514 35.05137105     6     51    0    0    0
C -18.28887878 11.07952416 33.61145765     2     51    55    56    57
H -17.62737997 11.29079315 35.58304772     6     54    0    0    0
H -17.86829486 9.16242664 33.20898043     6     54    0    0    0
C -16.87566978 12.72727334 31.71186637     2     54    58   59   60
H -16.93064654 14.76498187 32.22508781     6     57    0    0    0
H -14.81938883 12.19511483 31.81863378     6     57    0    0    0
C -17.57349322 12.42154766 28.99387009     2     57   61   62   63
H -17.82229751 10.46684148 28.51864321     6    60    0    0    0
H -19.50550484 13.16927308 28.64053188     6    60    0    0    0
C -15.77713676 13.53840278 26.90789675     2    60   64   65   66
H -15.91519814 15.57032524 27.02512971     6    63    0    0    0
H -13.76020575 12.79761006 27.31779184     6    63    0    0    0
C -16.29957941 12.95381661 24.06650749     2    63   67   68   69
H -14.99210674 14.01871230 22.93435874     6    66    0    0    0
H -15.58125412 11.12257949 23.55206986     6    66    0    0    0
C -19.06731068 12.77175128 23.20849679     2    66   70   71   72
H -20.15153524 11.63036704 24.55316024     6    69    0    0    0
H -19.81318731 14.69911681 23.42721812     6    69    0    0    0
C -19.38315185 11.53119694 20.55044621     2    69   73   74   75
H -18.76562232 13.02411804 19.23844272     6    72    0    0    0
H -18.17366314 9.85091036 20.37097075     6    72    0    0    0
C -22.02851196 10.77636284 20.04169989     2    72   76   77   78
H -22.45164016 9.28743685 21.41700864     6    75    0    0    0
H -23.28111673 12.18781029 20.80193515     6    75    0    0    0
C -22.42390082 9.80369640 17.16619217     2    75   79   80   81
H -22.56411538 11.35579408 15.70912212     6    78    0    0    0
H -20.80414838 8.83604389 16.55163958     6    78    0    0    0
C -24.86725141 8.27604589 16.65543991     2    78   82   83   84
H -24.45835652 6.27415624 17.49836851     6    81    0    0    0
H -26.35198969 9.01391765 17.83407106     6    81    0    0    0
C -25.74740915 8.26270180 13.92807519     1    81   85   86   87
H -27.32072909 6.93766175 13.50552720     6    84    0    0    0
H -24.23355133 8.07273012 12.54289414     6    84    0    0    0
H -26.66637498 10.01750754 13.57844190     6    84    0    0    0
H 10.33826196 13.11786841 31.21799108     6     89    0    0    0 
C 10.26452223 13.00519172 29.18310942     1     88    90    91    92
H 10.98172132 14.86555670 28.73165366     6     89    0    0    0
H 11.60029455 11.42782698 28.75495912     6     89    0    0    0
C 7.46628010 12.67768380 28.36753844     2     89    93    94    95
H 7.08800140 10.76181407 29.04337215     6     92    0    0    0
H 5.97372500 13.80410247 29.13693568     6     92    0    0    0
C 7.34169323 12.82023792 25.49779255     2     92    96   97   98
H 7.64359414 14.84371394 24.82796826     6     95    0    0    0
H 8.86132634 11.57953140 24.60491202     6     95    0    0    0
C 4.79554269 11.90713843 24.59902985     2     95   99   100   101
H 4.25890019 10.10763306 25.33401549     6    98    0    0    0
H 3.34003078 13.10385848 25.56108910     6    98    0    0    0
C 4.21389765 12.15349305 21.71585291     2    98   102   103   104
H 2.86409814 13.62934110 21.89027045     6    101    0    0    0
H 5.70011721 12.88660260 20.68021810     6    101    0    0    0
C 3.14547407 9.79708824 20.47287511     2    101   105   106   107
H 4.71992562 8.40932674 20.31966028     6    104    0    0    0
H 1.59767872 9.04353156 21.48666978     6    104    0    0    0
C 2.56902525 10.17315021 17.74500530     2    104   108   109   110
H 2.38235514 12.18260706 17.43557572     6    107    0    0    0
H 4.24338301 9.76116377 16.60169118     6    107    0    0    0
C 0.15047513 8.99007066 16.80546542     2    107   111   112   113
H -0.41860908 7.34606561 17.94059216     6    110    0    0    0
H -1.40918337 10.51080359 17.19845838     6    110    0    0    0
C 0.53207230 8.03682933 14.19640814     2    110   114   115   116
H 0.50479813 9.74010840 13.02526343     6    113    0    0    0
H 2.41813476 7.17014359 13.98831425     6    113    0    0    0
C -1.34929892 5.95374428 13.36395109     2    113   117   118   119
H -0.77234545 4.22369284 14.46973775     6    116    0    0    0
H -3.34085113 6.31277521 13.75214796     6    116    0    0    0
C -0.88607247 5.20864618 10.58019318     2    116   120   121   122
H -2.11001694 3.56816018 10.21569147     6    119    0    0    0
H -1.53295149 6.89547617 9.56044628     6    119    0    0    0
C 1.80000346 4.52895051 9.74782767     1    119   123   124   125
H 2.08477040 4.35368189 7.68495973     6    122    0    0    0
H 2.17065448 2.79044591 10.47139941     6    122    0    0    0
H 3.22807250 5.72291757 10.47669437     6    122    0    0    0
H 2.37968691 32.67948158 40.01803077     6     127    0    0    0 
C 3.81647139 32.17220144 41.45246734     1     126    128    129    130
H 5.51946352 31.13205258 40.71746467     6     127    0    0    0
H 4.58845903 33.88039504 42.14879987     6     127    0    0    0
C 2.38952833 30.56042376 43.55471597     2     127    131    132    133
H 1.35523557 29.03638920 42.51000639     6     130    0    0    0
H 4.01686985 30.01849271 44.53787609     6     130    0    0    0
C 0.73773485 31.98344936 45.35292812     2     130    134   135   136
H 1.77854524 33.39689480 46.52061471     6     133    0    0    0
H -0.69501882 32.93374412 44.19409933     6     133    0    0    0
C -0.87086349 30.24858927 46.97608101     2     133   137   138   139
H -1.57720718 28.63306021 45.82915648     6    136    0    0    0
H 0.26900081 29.39793416 48.59194820     6    136    0    0    0
C -3.31672786 31.51882268 48.06420812     2    136   140   141   142
H -2.58231415 33.09833312 48.94694091     6    139    0    0    0
H -4.68410988 32.03321779 46.63065447     6    139    0    0    0
C -4.60119724 29.78264834 49.99665628     2    139   143   144   145
H -5.23351889 28.00478351 49.05701976     6    142    0    0    0
H -3.24533120 29.22811827 51.45533966     6    142    0    0    0
C -6.87867477 30.95296921 51.32448631     2    142   146   147   148
H -6.37319089 32.84559942 51.87249224     6    145    0    0    0
H -8.37155039 31.15976908 49.92662189     6    145    0    0    0
C -7.99803526 29.24471822 53.42595127     2    145   149   150   151
H -8.37380778 27.37631048 52.58056036     6    148    0    0    0
H -6.56281162 28.82442617 54.90376466     6    148    0    0    0
C -10.40617987 30.35389771 54.54924590     2    148   152   153   154
H -9.85936956 32.22768984 55.37461281     6    151    0    0    0
H -11.79802404 30.82889764 53.07868862     6    151    0    0    0
C -12.11427260 29.10425910 56.52402349     2    151   155   156   157
H -13.92960891 30.00524135 56.53139423     6    154    0    0    0
H -12.74811171 27.38694528 55.82038908     6    154    0    0    0
C -10.80429217 28.70710934 59.09952400     2    154   158   159   160
H -9.43366723 27.25329730 58.94148435     6    157    0    0    0
H -9.58224225 30.41294775 59.34499704     6    157    0    0    0
C -12.64907081 28.50836017 61.38085906     1    157   161   162   163
H -11.68487440 28.59556680 63.22306819     6    160    0    0    0
H -13.62235978 26.79607311 61.75581362     6    160    0    0    0
H -13.84604387 30.17477955 61.35928952     6    160    0    0    0
H 2.15050967 48.17952737 34.69581490     6     165    0    0    0 
C 3.20990988 46.84321000 35.93989816     1     164    166    167    168
H 3.01133212 44.76843907 35.59648442     6     165    0    0    0
H 5.28492514 47.22892958 35.76948330     6     165    0    0    0
C 2.50689098 47.06613261 38.72559276     2     165    169    170    171
H 2.92479352 48.87531917 39.39189459     6     168    0    0    0
H 0.40218232 46.78301969 38.83450586     6     168    0    0    0
C 3.99304282 45.00363341 40.38493685     2     168    172   173   174
H 4.02872312 43.01964296 39.65850496     6     171    0    0    0
H 5.89393306 45.35429518 40.31821037     6     171    0    0    0
C 3.00552707 45.00498891 43.06065153     2     171   175   176   177
H 3.58494430 46.62536097 44.24706062     6    174    0    0    0
H 0.96328663 45.05881839 42.82522473     6    174    0    0    0
C 3.56427866 42.35015162 44.27990209     2    174   178   179   180
H 2.59590258 40.93279296 43.29660233     6    177    0    0    0
H 5.66316707 41.81531846 44.27316845     6    177    0    0    0
C 2.73535721 42.26613666 46.98589875     2    177   181   182   183
H 3.26418297 43.70906748 48.15385527     6    180    0    0    0
H 0.75927394 42.50440148 46.64743703     6    180    0    0    0
C 3.52953386 39.66423063 48.19688502     2    180   184   185   186
H 3.00576866 37.98009487 47.13465983     6    183    0    0    0
H 5.65501497 39.45801744 48.41616167     6    183    0    0    0
C 2.28600028 39.27472722 50.77838023     2    183   187   188   189
H 2.55734301 40.71308666 52.40231471     6    186    0    0    0
H 0.31179028 39.32299920 50.40136438     6    186    0    0    0
C 3.01095678 36.83066913 51.98604576     2    186   190   191   192
H 2.37811654 35.23074862 50.98688849     6    189    0    0    0
H 5.02776004 37.02735303 51.89746772     6    189    0    0    0
C 2.19506581 36.55348986 54.82094012     2    189   193   194   195
H 3.13860017 38.04109254 56.15674720     6    192    0    0    0
H 0.15994986 36.90889829 54.89281849     6    192    0    0    0
C 2.46714239 33.85308992 55.76822574     2    192   196   197   198
H 1.65565011 32.67477617 54.44790958     6    195    0    0    0
H 4.42748775 33.32986144 55.93986524     6    195    0    0    0
C 1.44335925 33.74464228 58.49764839     1    195   199   200   201
H 2.28526136 32.22422051 59.76737443     6    198    0    0    0
H -0.60486143 33.72455643 58.61184326     6    198    0    0    0
H 2.08488446 35.52824853 59.32517724     6    198    0    0    0
H -12.73682630 29.14181767 22.91417892     6     203    0    0    0 
C -11.18175515 30.35114253 23.37483095     1     202    204    205    206
H -12.07359568 32.16961848 23.70379611     6     203    0    0    0
H -10.04896113 29.86966906 25.07773371     6     203    0    0    0
C -9.21805618 30.53008189 21.18070983     2     203    207    208    209
H -7.83321857 31.89134360 21.70710553     6     206    0    0    0
H -8.25405134 28.82993042 20.81643254     6     206    0    0    0
C -10.39539456 31.53852054 18.77459108     2     206    210   211   212
H -8.95836959 31.32969108 17.40223479     6     209    0    0    0
H -12.06489406 30.62142371 18.07632223     6     209    0    0    0
C -11.04946336 34.42741396 18.74816159     2     209   213   214   215
H -12.34807846 35.09382477 20.21784713     6    212    0    0    0
H -9.54130621 35.72100128 18.98639392     6    212    0    0    0
C -12.04833813 35.36586261 16.27825915     2    212   216   217   218
H -10.34302882 35.41635761 14.99664120     6    215    0    0    0
H -13.22855279 33.96276613 15.36953444     6    215    0    0    0
C -13.51347427 37.97376576 16.12322041     2    215   219   220   221
H -15.18302268 37.94086617 17.26961838     6    218    0    0    0
H -12.50974805 39.54261096 17.01493125     6    218    0    0    0
C -13.99563460 38.70872886 13.36040054     2    218   222   223   224
H -12.24172399 39.90880057 12.81285919     6    221    0    0    0
H -13.71623241 37.13769593 11.92649140     6    221    0    0    0
C -16.47588136 40.19127633 13.09137231     2    221   225   226   227
H -18.15966371 39.05899265 13.47220798     6    224    0    0    0
H -16.81337949 41.69751129 14.47751268     6    224    0    0    0
C -16.69112436 40.95281447 10.23739342     2    224   228   229   230
H -15.19061426 42.41099665 9.80176488     6    227    0    0    0
H -16.46524561 39.37634895 8.92329411     6    227    0    0    0
C -19.18554759 42.21912671 9.62477527     2    227   231   232   233
H -20.78520170 40.97680544 9.87070467     6    230    0    0    0
H -19.64885822 43.83796829 11.00388365     6    230    0    0    0
C -19.03883408 43.49047259 6.91746673     2    230   234   235   236
H -17.29848308 44.69154639 6.64365225     6    233    0    0    0
H -18.92327050 42.05584219 5.44659949     6    233    0    0    0
C -21.34689523 45.16397753 6.20766475     1    233   237   238   239
H -22.00424070 45.00794430 4.32025625     6    236    0    0    0
H -20.90403360 47.13522597 6.70054695     6    236    0    0    0
H -22.97292059 44.67712159 7.43312106     6    236    0    0    0
H -10.62389019 5.55048221 19.85841896     6     241    0    0    0 
C -10.73340257 6.70550087 18.24351466     1     240    242    243    244
H -11.17493949 8.66148977 18.80640303     6     241    0    0    0
H -8.78020456 7.06012851 17.48177044     6     241    0    0    0
C -12.61366259 5.69393167 16.09026976     2     241    245    246    247
H -14.50199304 5.79733864 16.98238090     6     244    0    0    0
H -12.70671133 7.17669005 14.61429457     6     244    0    0    0
C -12.05783781 3.01902773 15.25495101     2     244    248   249   250
H -10.24734263 2.94437205 14.18825865     6     247    0    0    0
H -11.84729322 1.73344965 16.92389498     6     247    0    0    0
C -14.04099178 2.10434551 13.45661562     2     247   251   252   253
H -13.57814169 0.19051843 12.80074479     6    250    0    0    0
H -15.73816885 1.92371619 14.74479713     6    250    0    0    0
C -14.32836661 3.68872278 11.02985255     2    250   254   255   256
H -14.62601631 5.68944195 11.46048221     6    253    0    0    0
H -12.50356679 3.64195401 9.96179396     6    253    0    0    0
C -16.40689647 2.62471594 9.30698888     2    253   257   258   259
H -16.18261533 3.69593045 7.61841610     6    256    0    0    0
H -16.40319791 0.60523677 9.07647771     6    256    0    0    0
C -19.10394853 3.17828732 10.26704163     2    256   260   261   262
H -19.32969691 2.10919972 12.04256731     6    259    0    0    0
H -19.57582518 5.19515709 10.86601739     6    259    0    0    0
C -21.25344180 2.30382888 8.47625628     2    259   263   264   265
H -20.99292701 2.84052862 6.51173563     6    262    0    0    0
H -21.17972213 0.28002035 8.35879543     6    262    0    0    0
C -23.89138457 3.01883458 9.34310942     2    262   266   267   268
H -24.37670848 2.32847404 11.32051956     6    265    0    0    0
H -23.90233409 5.12474291 9.38758060     6    265    0    0    0
C -26.02727435 2.19382714 7.42604118     2    265   269   270   271
H -26.00082961 3.43579414 5.83522622     6    268    0    0    0
H -25.60247727 0.26624714 6.86951704     6    268    0    0    0
C -28.57364641 2.53342048 8.59736139     2    268   272   273   274
H -28.71050012 1.06409202 10.10197813     6    271    0    0    0
H -28.62604621 4.35811063 9.76165501     6    271    0    0    0
C -30.75352642 2.18470429 6.79271162     1    271   275   276   277
H -30.81232540 3.58848158 5.37611193     6    274    0    0    0
H -32.53159138 2.15342542 7.73615306     6    274    0    0    0
H -30.57213034 0.39287427 5.81188595     6    274    0    0    0
H -1.17976189 27.58012915 21.63191214     6     279    0    0    0 
C -1.91566438 27.01279375 19.67758925     1     278    280    281    282
H -3.00189325 28.55794711 18.77329700     6     279    0    0    0
H -0.27542220 26.69403093 18.35924850     6     279    0    0    0
C -3.23499999 24.59558199 19.83471025     2     279    283    284    285
H -1.81677989 22.97272782 20.03068386     6     282    0    0    0
H -4.60444995 24.59830631 21.40009119     6     282    0    0    0
C -4.44169887 23.94383685 17.30326107     2     282    286   287   288
H -2.94773321 24.27931355 15.81371493     6     285    0    0    0
H -4.91104497 21.88138870 17.31303049     6     285    0    0    0
C -6.83360917 25.34011105 16.91591609     2     285   289   290   291
H -8.01206698 25.17026187 18.61172321     6    288    0    0    0
H -6.24175926 27.28575057 16.71675547     6    288    0    0    0
C -8.64458633 24.32481862 14.83259937     2    288   292   293   294
H -7.72394045 24.67697504 12.93616422     6    291    0    0    0
H -8.66563792 22.18289637 15.18511858     6    291    0    0    0
C -11.27737538 25.46854073 14.97731290     2    291   295   296   297
H -12.19266520 24.66584455 16.71715514     6    294    0    0    0
H -10.94701756 27.46449456 14.95463331     6    294    0    0    0
C -13.00141662 24.76951931 12.74784110     2    294   298   299   300
H -12.32728179 25.82627187 11.07041697     6    297    0    0    0
H -12.97985777 22.81834685 12.34735132     6    297    0    0    0
C -15.67064898 25.53335866 13.44153917     2    297   301   302   303
H -16.58213924 24.46598353 14.98097757     6    300    0    0    0
H -15.63501921 27.34842529 14.32907867     6    300    0    0    0
C -17.49299645 25.49532265 11.24105698     2    300   304   305   306
H -16.72738963 26.55853252 9.65122625     6    303    0    0    0
H -17.39063105 23.53811303 10.53944806     6    303    0    0    0
C -20.17115880 26.53557107 11.79052044     2    303   307   308   309
H -20.84049526 25.55187985 13.47476491     6    306    0    0    0
H -19.96122925 28.56361005 12.04070157     6    306    0    0    0
C -22.03212929 25.85302481 9.77112542     2    306   310   311   312
H -21.45575984 26.65604609 7.98687003     6    309    0    0    0
H -22.18644652 23.77660508 9.68894407     6    309    0    0    0
C -24.61937059 26.81110560 10.26956353     1    309   313   314   315
H -24.66521975 28.81749295 10.34834119     6    312    0    0    0
H -25.53432006 25.98435208 11.91248588     6    312    0    0    0
H -25.80475988 26.01704437 8.74706907     6    312    0    0    0
H 1.29536643 21.20914949 32.78918300     6     317    0    0    0 
C 2.11328765 20.37451585 34.44777602     1     316    318    319    320
H 1.84708960 18.47978215 34.16010980     6     317    0    0    0
H 4.05724616 20.92970638 34.45800904     6     317    0    0    0
C 0.66554352 21.27075709 36.78900760     2     317    321    322    323
H 1.82088780 21.16569359 38.35861990     6     320    0    0    0
H 0.19422661 23.23414651 36.70353507     6     320    0    0    0
C -1.73741140 19.79357465 37.52846614     2     320    324   325   326
H -3.27837462 20.31278039 36.20506936     6     323    0    0    0
H -1.51758765 17.71485349 37.29940358     6     323    0    0    0
C -2.55541036 20.67581329 40.26119217     2     323   327   328   329
H -1.19451239 20.06436575 41.55039447     6    326    0    0    0
H -2.24895139 22.69816496 40.26257104     6    326    0    0    0
C -5.21489885 19.74960869 40.94211074     2    326   330   331   332
H -6.37531387 20.61083914 39.54061495     6    329    0    0    0
H -4.95342093 17.70725421 40.43572633     6    329    0    0    0
C -6.14168932 20.13864312 43.66553381     2    329   333   334   335
H -4.83620970 19.29054684 45.06472193     6    332    0    0    0
H -6.11615239 22.22374632 44.16898794     6    332    0    0    0
C -8.69534334 18.74035844 44.21001298     2    332   336   337   338
H -10.21492615 20.09339544 43.65953557     6    335    0    0    0
H -9.03030967 17.30294025 42.81655956     6    335    0    0    0
C -9.22852024 17.72578945 46.84536560     2    335   339   340   341
H -10.95873973 16.86102870 46.82333331     6    338    0    0    0
H -7.66936203 16.47860706 47.47504743     6    338    0    0    0
C -9.33635364 19.89165009 48.74859876     2    338   342   343   344
H -7.53486873 20.90483664 48.69753847     6    341    0    0    0
H -10.84426005 21.21800246 48.11434755     6    341    0    0    0
C -9.70889314 18.68139538 51.32533860     2    341   345   346   347
H -11.26080822 17.40782783 51.44313831     6    344    0    0    0
H -8.14923339 17.31753644 51.76256243     6    344    0    0    0
C -9.93131181 20.63765873 53.45068515     2    344   348   349   350
H -8.38036343 21.95136402 53.47679691     6    347    0    0    0
H -11.68502605 21.73539818 53.07848235     6    347    0    0    0
C -9.92052985 19.47064087 56.04644608     1    347   351   352   353
H -10.30647613 21.07029461 57.41198026     6    350    0    0    0
H -7.99088426 18.80743005 56.49353026     6    350    0    0    0
H -11.49717798 17.99146438 56.16818391     6    350    0    0    0
H -9.24112484 12.51879271 21.12236299     6     355    0    0    0 
C -8.31176037 13.58180960 22.59207491     1     354    356    357    358
H -9.79476537 14.97669400 23.11658874     6     355    0    0    0
H -7.98975321 12.05817357 24.04763432     6     355    0    0    0
C -5.79447495 14.82506875 21.86622298     2     355    359    360    361
H -4.42516195 13.40661082 21.25402524     6     358    0    0    0
H -5.99400553 16.16184300 20.36759500     6     358    0    0    0
C -4.60209587 16.33672782 24.05710325     2     358    362   363   364
H -5.39177616 18.30461626 24.28863920     6     361    0    0    0
H -4.98757429 15.46449807 25.91102377     6     361    0    0    0
C -1.77616717 16.77557643 23.75954148     2     361   365   366   367
H -0.95944917 14.95279936 23.57240180     6    364    0    0    0
H -1.63606163 17.49466132 21.83032389     6    364    0    0    0
C -0.67473527 18.42596030 25.94363464     2    364   368   369   370
H -1.90916548 20.04123534 26.07998456     6    367    0    0    0
H -0.79991476 17.41098946 27.72448708     6    367    0    0    0
C 2.11209683 19.32934252 25.46892029     2    367   371   372   373
H 3.21710988 18.02092727 24.37914023     6    370    0    0    0
H 2.04380325 20.80575771 24.11036085     6    370    0    0    0
C 3.70219960 20.10696266 27.75705490     2    370   374   375   376
H 2.62982276 21.70847651 28.56060457     6    373    0    0    0
H 3.58185072 18.78897204 29.21972428     6    373    0    0    0
C 6.38552890 20.88841811 26.84110458     2    373   377   378   379
H 7.17715709 19.20412398 26.02845991     6    376    0    0    0
H 6.25245485 22.49536873 25.49426010     6    376    0    0    0
C 8.11697963 21.82599278 29.04946048     2    376   380   381   382
H 8.50358357 20.19296553 30.29359410     6    379    0    0    0
H 9.98459734 22.12951298 28.28808129     6    379    0    0    0
C 6.95587452 24.03714077 30.53441462     2    379   383   384   385
H 6.63047444 25.59820145 29.24618929     6    382    0    0    0
H 5.28578530 23.54551522 31.50742323     6    382    0    0    0
C 8.91612302 25.13618603 32.52336765     2    382   386   387   388
H 8.08407365 26.65854583 33.67619206     6    385    0    0    0
H 9.39502847 23.80014703 34.06036267     6    385    0    0    0
C 11.42039915 26.03342493 31.52108609     1    385   389   390   391
H 12.35575752 24.43231582 30.80671406     6    388    0    0    0
H 12.61586505 26.61615441 33.14449950     6    388    0    0    0
H 11.14967279 27.38415372 29.89191899     6    388    0    0    0
H -35.76794348 13.13526228 58.96056468     6     393    0    0    0 
C -34.93699213 11.32532756 58.38327238     1     392    394    395    396
H -33.10274967 11.14256234 59.11917431     6     393    0    0    0
H -36.11941532 9.89575615 59.23172120     6     393    0    0    0
C -34.68467603 11.41764160 55.66676011     2     393    397    398    399
H -36.36038828 11.68874745 54.59653315     6     396    0    0    0
H -33.53709307 13.01427685 55.31779336     6     396    0    0    0
C -33.73354067 9.02511657 54.45336482     2     396    400   401   402
H -31.96589729 8.35246800 55.26086890     6     399    0    0    0
H -35.06003807 7.48614337 54.86071839     6     399    0    0    0
C -33.46960135 9.04053638 51.50792086     2     399   403   404   405
H -35.11586686 9.87957690 50.68157674     6    402    0    0    0
H -31.91194419 10.16195082 50.86263122     6    402    0    0    0
C -33.56368497 6.48100724 50.26778144     2    402   406   407   408
H -32.24344233 5.33796834 51.37581004     6    405    0    0    0
H -35.53822394 5.95963645 50.21567843     6    405    0    0    0
C -32.74260846 6.33703291 47.42622816     2    405   409   410   411
H -33.45149463 8.06526176 46.64772103     6    408    0    0    0
H -30.70387404 6.49560117 47.06669513     6    408    0    0    0
C -33.72038274 3.93711850 45.88895079     2    408   412   413   414
H -32.77715474 2.18120612 46.64350915     6    411    0    0    0
H -35.72331747 3.54082364 46.52842592     6    411    0    0    0
C -33.65328995 4.35631248 43.07999542     2    411   415   416   417
H -34.27813143 6.29463677 42.61842755     6    414    0    0    0
H -31.63036482 4.43943045 42.69576313     6    414    0    0    0
C -35.05458354 2.27517790 41.61452827     2    414   418   419   420
H -34.40621342 0.29573873 42.04932988     6    417    0    0    0
H -37.07631888 2.26140313 42.31607419     6    417    0    0    0
C -34.73388710 2.56037197 38.81710516     2    417   421   422   423
H -32.95203458 3.44190390 38.16403419     6    420    0    0    0
H -34.52394957 0.62871148 37.86937925     6    420    0    0    0
C -36.85837047 3.89275684 37.32226937     2    420   424   425   426
H -36.21687273 3.91650527 35.47545860     6    423    0    0    0
H -38.50207806 2.71219201 36.78857169     6    423    0    0    0
C -37.68968626 6.47603116 38.54435871     1    423   427   428   429
H -38.74941832 7.60494213 37.14125561     6    426    0    0    0
H -36.16139558 7.61576797 39.02865999     6    426    0    0    0
H -38.86163618 6.27239078 40.31145521     6    426    0    0    0
H -18.93301011 -8.13315359 31.34674736     6     431    0    0    0 
C -17.82973928 -9.36317050 32.68421567     1     430    432    433    434
H -19.11820739 -10.91678354 33.12336022     6     431    0    0    0
H -15.99419709 -9.96265466 31.95776363     6     431    0    0    0
C -17.59321487 -7.94715981 35.26748553     2     431    435    436    437
H -16.18449770 -6.38045097 34.98558447     6     434    0    0    0
H -19.37412498 -7.02560239 35.66688878     6     434    0    0    0
C -16.79850186 -9.49916838 37.71701814     2     434    438   439   440
H -17.80091641 -11.42560916 37.78271590     6     437    0    0    0
H -14.81412864 -9.97991779 37.43131294     6     437    0    0    0
C -17.33625315 -8.22387049 40.32653034     2     437   441   442   443
H -16.55884048 -9.16765135 41.90500404     6    440    0    0    0
H -16.58561664 -6.34334414 40.29863608     6    440    0    0    0
C -20.14948287 -7.83702203 40.93007261     2    440   444   445   446
H -21.07986256 -6.75371534 39.42335994     6    443    0    0    0
H -21.05773118 -9.75228414 41.11991957     6    443    0    0    0
C -20.56405534 -6.55720697 43.55167322     2    443   447   448   449
H -19.16246918 -7.13182551 45.02981127     6    446    0    0    0
H -20.35725886 -4.55395383 43.34098929     6    446    0    0    0
C -23.28693238 -7.12631609 44.56766803     2    446   450   451   452
H -24.66156312 -6.85695990 43.17666242     6    449    0    0    0
H -23.55105287 -9.04502374 44.81290591     6    449    0    0    0
C -23.97130073 -5.52410464 46.98007915     2    449   453   454   455
H -22.87068855 -6.01511419 48.72782176     6    452    0    0    0
H -23.38027509 -3.65705543 46.66998844     6    452    0    0    0
C -26.89083643 -5.64249987 47.45186967     2    452   456   457   458
H -27.92132403 -5.02991268 45.79116939     6    455    0    0    0
H -27.55406020 -7.58085837 47.90246835     6    455    0    0    0
C -27.54636144 -3.70055966 49.55118005     2    455   459   460   461
H -26.46757418 -4.02391011 51.26042246     6    458    0    0    0
H -26.84046686 -1.98650876 48.70330440     6    458    0    0    0
C -30.33194165 -3.44438967 50.31233016     2    458   462   463   464
H -31.38388210 -3.03005496 48.60317232     6    461    0    0    0
H -31.13762574 -5.24818669 51.01176911     6    461    0    0    0
C -30.70217997 -1.14098141 51.94372249     1    461   465   466   467
H -30.44816666 0.67002576 50.94391236     6    464    0    0    0
H -29.46019809 -1.31692634 53.45936602     6    464    0    0    0
H -32.58518384 -1.09361662 52.80968693     6    464    0    0    0
H 7.10915500 25.73138182 18.88487728     6     469    0    0    0 
C 7.63325650 23.76538611 19.05237229     1     468    470    471    472
H 8.75253459 23.14157505 17.33387201     6     469    0    0    0
H 9.07029694 23.57993838 20.52990027     6     469    0    0    0
C 5.47866641 21.85210744 19.49425397     2     469    473    474    475
H 6.57700009 20.20925597 19.51805675     6     472    0    0    0
H 4.67176846 22.27567658 21.30510370     6     472    0    0    0
C 3.57676711 21.59813063 17.24600801     2     472    476   477   478
H 2.70526296 23.37438988 17.00460136     6     475    0    0    0
H 4.53249832 21.37135008 15.46507946     6     475    0    0    0
C 1.59094180 19.50244079 17.51459328     2     475   479   480   481
H 2.40743186 17.72555698 18.13989866     6    478    0    0    0
H 0.23869735 19.96456567 18.97541392     6    478    0    0    0
C 0.26070223 19.03236443 15.09086751     2    478   482   483   484
H -0.82135201 20.83448182 14.77519343     6    481    0    0    0
H 1.57390650 18.46768056 13.63631652     6    481    0    0    0
C -1.58836716 16.87020096 15.55021912     2    481   485   486   487
H -0.45180141 15.14410675 15.47904807     6    484    0    0    0
H -2.55782227 16.74366317 17.46973371     6    484    0    0    0
C -3.57516305 16.65739241 13.47266602     2    484   488   489   490
H -4.57835673 18.40634540 12.84488656     6    487    0    0    0
H -2.31826804 16.14103458 11.90607604     6    487    0    0    0
C -5.42698595 14.52105531 14.01204874     2    487   491   492   493
H -4.40907325 12.85148893 14.57115218     6    490    0    0    0
H -6.56828106 15.04893364 15.71086360     6    490    0    0    0
C -6.96154183 14.04877619 11.66426491     2    490   494   495   496
H -8.81929338 15.11436797 11.51800875     6    493    0    0    0
H -5.78481244 14.60631778 10.08855802     6    493    0    0    0
C -7.44412451 11.22151631 11.15709038     2    493   497   498   499
H -5.63846729 10.33598836 11.04413427     6    496    0    0    0
H -8.30190928 10.30316391 12.86857730     6    496    0    0    0
C -9.09220221 10.58801151 8.70103504     2    496   500   501   502
H -11.13983589 10.80233679 8.99984494     6    499    0    0    0
H -8.78053937 11.85384712 7.06336568     6    499    0    0    0
C -9.02715041 7.73049751 8.02068782     1    499   503   504   505
H -10.67771714 7.46902134 6.76379569     6    502    0    0    0
H -9.40838893 6.67141087 9.70242661     6    502    0    0    0
H -7.40735088 7.09669765 7.03292453     6    502    0    0    0
H -21.18830587 -10.36986623 18.14290887     6     507    0    0    0 
C -22.21060520 -10.31879624 19.87398750     1     506    508    509    510
H -24.11112415 -10.36872440 19.13764281     6     507    0    0    0
H -21.83990998 -12.12930863 20.74830914     6     507    0    0    0
C -21.90337829 -7.91629718 21.58224475     2     507    511    512    513
H -19.88224063 -7.52575502 21.88514979     6     510    0    0    0
H -22.57351690 -6.27901655 20.42006789     6     510    0    0    0
C -23.21140088 -8.35944279 24.18133764     2     510    514   515   516
H -25.25234610 -8.49515814 23.87906275     6     513    0    0    0
H -22.55856379 -10.18141289 24.90455923     6     513    0    0    0
C -22.64390248 -6.17464931 26.13004387     2     513   517   518   519
H -20.64277454 -6.00505670 26.41308137     6    516    0    0    0
H -23.30171521 -4.47492988 25.24644316     6    516    0    0    0
C -24.01797732 -6.67901891 28.70244529     2    516   520   521   522
H -26.10767803 -6.74937656 28.53363953     6    519    0    0    0
H -23.54159318 -8.46590838 29.56842562     6    519    0    0    0
C -23.39626939 -4.70541565 30.66548191     2    519   523   524   525
H -21.42573322 -4.21852595 30.84066126     6    522    0    0    0
H -24.42513541 -3.08500669 29.94155605     6    522    0    0    0
C -24.71434938 -5.28882881 33.12669241     2    522   526   527   528
H -26.82674050 -5.59926974 32.76405727     6    525    0    0    0
H -23.97775013 -7.07052688 33.62345193     6    525    0    0    0
C -24.47961745 -3.22531416 35.12684397     2    525   529   530   531
H -22.66742960 -3.14591351 35.92340257     6    528    0    0    0
H -24.93678558 -1.51422250 34.09906316     6    528    0    0    0
C -26.26331235 -3.65054814 37.46200265     2    528   532   533   534
H -28.14168422 -3.68999709 36.50908853     6    531    0    0    0
H -25.70282888 -5.39042419 38.45535773     6    531    0    0    0
C -26.04674616 -1.42181306 39.21457619     2    531   535   536   537
H -24.14254517 -1.11510314 39.81935919     6    534    0    0    0
H -26.43211982 0.30293777 38.24583071     6    534    0    0    0
C -27.67697696 -1.63248488 41.47074042     2    534   538   539   540
H -29.67575861 -1.87340154 40.85712629     6    537    0    0    0
H -27.17842050 -3.14667379 42.59878522     6    537    0    0    0
C -27.23187185 0.80881426 42.98889920     1    537   541   542   543
H -27.53706251 0.26734901 44.96095271     6    540    0    0    0
H -28.37240396 2.38369936 42.50251327     6    540    0    0    0
H -25.14237846 1.23239462 42.95558881     6    540    0    0    0
H -21.04165802 15.31845172 54.33165576     6     545    0    0    0 
C -21.78628914 17.17810139 54.34617391     1     544    546    547    548
H -21.74302608 17.93629882 52.38514400     6     545    0    0    0
H -23.64589946 17.11598429 55.01346953     6     545    0    0    0
C -20.69985593 18.98567199 56.34362149     2     545    549    550    551
H -20.89501098 18.05905763 58.14940894     6     548    0    0    0
H -18.70997913 19.21586273 55.91501328     6     548    0    0    0
C -21.86454762 21.59444393 56.47639096     2     548    552   553   554
H -21.75561451 22.36262020 54.60020171     6     551    0    0    0
H -23.87493625 21.54741844 56.83048503     6     551    0    0    0
C -20.33606778 23.41497857 58.17150902     2     551   555   556   557
H -20.28365586 22.36641111 59.88364737     6    554    0    0    0
H -18.36167390 23.58655393 57.34351022     6    554    0    0    0
C -21.76689569 25.96825607 58.48153011     2    554   558   559   560
H -22.25578667 26.75624102 56.65744260     6    557    0    0    0
H -23.58096013 25.75185465 59.42457818     6    557    0    0    0
C -20.13797868 27.94278341 59.80414621     2    557   561   562   563
H -19.87297402 27.29688864 61.83575441     6    560    0    0    0
H -18.27992673 27.79478669 59.04671224     6    560    0    0    0
C -21.02656356 30.65706321 59.60516804     2    560   564   565   566
H -21.21445609 31.29718552 57.56727245     6    563    0    0    0
H -22.84877991 30.79794168 60.42254105     6    563    0    0    0
C -19.11947445 32.43004013 60.99401327     2    563   567   568   569
H -18.81505044 31.81903375 62.92468879     6    566    0    0    0
H -17.43637352 32.55008274 59.76190240     6    566    0    0    0
C -20.44552711 34.99171173 61.24120124     2    566   570   571   572
H -21.19838605 35.74942697 59.42984424     6    569    0    0    0
H -22.08579040 34.80061627 62.38686280     6    569    0    0    0
C -18.87764383 36.87181952 62.78299023     2    569   573   574   575
H -17.91489057 35.76802326 64.29058022     6    572    0    0    0
H -17.49657830 37.56156054 61.41629442     6    572    0    0    0
C -20.28267774 39.22567544 63.67288655     2    572   576   577   578
H -21.81804814 38.62339339 64.97144343     6    575    0    0    0
H -18.99662543 40.42580055 64.84609669     6    575    0    0    0
C -21.42626435 40.67455059 61.51505924     1    575   579   580   581
H -19.91589266 41.61348133 60.20042016     6    578    0    0    0
H -22.53198922 42.26610335 62.41354863     6    578    0    0    0
H -22.63542821 39.38179938 60.55417147     6    578    0    0    0
H -2.60966397 31.37343637 24.45424937     6     583    0    0    0 
C -1.59361188 32.81572251 25.67230451     1     582    584    585    586
H 0.38656276 32.66199992 25.35938343     6     583    0    0    0
H -2.08780508 34.65840286 24.95174700     6     583    0    0    0
C -2.54882513 32.37808123 28.47251886     2     583    587    588    589
H -4.57252522 32.01571064 28.41999876     6     586    0    0    0
H -1.54990755 30.73238266 29.22110867     6     586    0    0    0
C -2.15966015 34.74660636 30.03276625     2     586    590   591   592
H -0.14867051 35.37998719 29.71499203     6     589    0    0    0
H -3.32018953 36.39473077 29.45831406     6     589    0    0    0
C -2.55961320 34.17034124 32.93466654     2     589   593   594   595
H -4.55786540 33.98553052 33.18155346     6    592    0    0    0
H -1.73501588 32.36747000 33.77911570     6    592    0    0    0
C -2.04312095 36.53513062 34.47666243     2    592   596   597   598
H -0.37033477 37.51261966 33.78710150     6    595    0    0    0
H -3.84693636 37.61688570 34.27890292     6    595    0    0    0
C -1.79503636 36.46930079 37.33653935     2    595   599   600   601
H -3.45483796 35.46039103 37.95716184     6    598    0    0    0
H -0.18918825 35.49806520 38.15579011     6    598    0    0    0
C -2.07340308 39.04208102 38.86021434     2    598   602   603   604
H -0.19052794 40.02651221 39.22431402     6    601    0    0    0
H -3.13693130 40.40832984 37.70246143     6    601    0    0    0
C -3.33451707 38.59587984 41.43628085     2    601   605   606   607
H -5.09579871 37.57498017 41.09876635     6    604    0    0    0
H -2.26016324 37.34653000 42.54929483     6    604    0    0    0
C -3.85841869 41.01469816 43.04392738     2    604   608   609   610
H -2.35057941 42.36334674 42.84215097     6    607    0    0    0
H -5.52039816 41.95084021 42.43486663     6    607    0    0    0
C -4.22417313 40.49481502 45.86772421     2    607   611   612   613
H -5.71565770 39.06177270 46.06833899     6    610    0    0    0
H -2.67034078 39.60575579 46.80455723     6    610    0    0    0
C -5.24383249 42.83747955 47.38624330     2    610   614   615   616
H -3.93467254 44.29881833 46.98217429     6    613    0    0    0
H -6.80180393 43.54314180 46.60068848     6    613    0    0    0
C -5.60047472 42.42150696 50.20223817     1    613   617   618   619
H -6.22615993 44.02863222 51.35086845     6    616    0    0    0
H -3.68126738 41.81108488 50.75665126     6    616    0    0    0
H -7.03922590 40.92884496 50.51356614     6    616    0    0    0
H -36.81803935 23.97692591 36.10216089     6     621    0    0    0 
C -36.28914049 23.61525451 34.08766371     1     620    622    623    624
H -34.24981208 23.16626823 34.20804941     6     621    0    0    0
H -37.54010412 22.09652896 33.66715811     6     621    0    0    0
C -36.75604695 26.03094582 32.46501442     2     621    625    626    627
H -36.23368764 25.78148921 30.52510507     6     624    0    0    0
H -38.74251743 26.42981087 32.10069540     6     624    0    0    0
C -35.18418464 28.31273076 33.33336649     2     624    628   629   630
H -35.91594339 29.21318169 35.10239975     6     627    0    0    0
H -33.23289758 27.70780031 33.84723511     6     627    0    0    0
C -34.77727637 30.37287527 31.23997613     2     627   631   632   633
H -33.46999902 31.74005712 31.99350468     6    630    0    0    0
H -33.92256200 29.27834134 29.66546837     6    630    0    0    0
C -37.41323454 31.53703497 30.55296413     2    630   634   635   636
H -38.84599827 30.23716072 30.42527554     6    633    0    0    0
H -38.05855837 32.96264980 31.89583168     6    633    0    0    0
C -37.15667966 33.07369545 27.99835826     2    633   637   638   639
H -35.59045778 34.46381774 28.14569665     6    636    0    0    0
H -36.63440893 31.73511742 26.54615685     6    636    0    0    0
C -39.67578321 34.27839277 27.11652974     2    636   640   641   642
H -40.96192120 32.65808621 26.96914066     6    639    0    0    0
H -40.34188410 35.31883584 28.63670339     6    639    0    0    0
C -39.32588345 35.64798021 24.60382499     2    639   643   644   645
H -38.39576437 37.50632016 24.85527721     6    642    0    0    0
H -38.32703158 34.54147449 23.17650625     6    642    0    0    0
C -41.73461800 36.24526145 23.38248376     2    642   646   647   648
H -41.24456397 36.94965538 21.52548946     6    645    0    0    0
H -42.76407032 34.56362638 23.28070512     6    645    0    0    0
C -43.06285937 38.51596192 24.69868416     2    645   649   650   651
H -43.60842564 38.10032896 26.74821120     6    648    0    0    0
H -41.57767977 39.91958238 24.70640039     6    648    0    0    0
C -45.24143006 39.42644828 22.93628950     2    648   652   653   654
H -44.56745721 39.58155610 21.04458272     6    651    0    0    0
H -46.72071812 38.02563965 22.91758683     6    651    0    0    0
C -46.37695206 41.92108548 23.83433926     1    651   655   656   657
H -47.16036381 41.87317195 25.79171934     6    654    0    0    0
H -47.99112016 42.17921675 22.55299879     6    654    0    0    0
H -44.95743384 43.42362392 23.45642202     6    654    0    0    0
H -8.52941688 32.00676404 31.07810276     6     659    0    0    0 
C -9.44138454 32.13182711 32.93240893     1     658    660    661    662
H -10.95003242 30.77273275 32.59049509     6     659    0    0    0
H -8.05412546 31.42191355 34.40476578     6     659    0    0    0
C -10.28212613 34.94537532 33.10997960     2     659    663    664    665
H -8.66114347 36.10752088 33.23339492     6     662    0    0    0
H -11.20611795 35.28055907 31.38573194     6     662    0    0    0
C -12.33507203 35.20828449 35.17881178     2     662    666   667   668
H -13.37795501 37.03172737 35.15985051     6     665    0    0    0
H -13.65817444 33.75718301 34.74028596     6     665    0    0    0
C -11.16333160 34.76105985 37.86503555     2     665   669   670   671
H -9.99359647 33.05671947 38.12772275     6    668    0    0    0
H -9.51878472 35.99579415 37.93763276     6    668    0    0    0
C -12.87840797 35.36803647 40.08875933     2    668   672   673   674
H -13.66171054 37.30977299 40.37998877     6    671    0    0    0
H -14.42629185 34.07814142 39.70008058     6    671    0    0    0
C -11.46009543 34.67929172 42.63049197     2    671   675   676   677
H -11.19048962 32.56177330 42.57399734     6    674    0    0    0
H -9.65275501 35.64573219 42.48286576     6    674    0    0    0
C -12.69412084 35.51063811 45.05818992     2    674   678   679   680
H -11.54880221 34.86511184 46.59706580     6    677    0    0    0
H -12.27862580 37.58906618 45.14836503     6    677    0    0    0
C -15.42137881 34.84428977 45.58110542     2    677   681   682   683
H -16.76101746 35.41369973 44.04952803     6    680    0    0    0
H -15.37260271 32.85312675 45.71934925     6    680    0    0    0
C -16.43028702 36.04422475 48.04100990     2    680   684   685   686
H -15.69051156 38.02799040 48.32906112     6    683    0    0    0
H -18.50721138 36.06827339 47.99412078     6    683    0    0    0
C -15.78175985 34.56263270 50.48765907     2    683   687   688   689
H -16.91329632 32.79197262 50.37410414     6    686    0    0    0
H -13.77710793 34.00480273 50.23210621     6    686    0    0    0
C -16.52851402 36.13519874 52.68194400     2    686   690   691   692
H -14.99486895 37.59999089 52.80099267     6    689    0    0    0
H -18.46874851 36.52381430 52.38487956     6    689    0    0    0
C -16.43730779 34.93099652 55.30983734     1    689   693   694   695
H -16.68468996 36.35336985 56.79054066     6    692    0    0    0
H -14.65092865 34.25721190 55.66256751     6    692    0    0    0
H -17.87526673 33.50829878 55.44054741     6    692    0    0    0
H -28.69664303 38.34734423 70.44648559     6     697    0    0    0 
C -29.43704943 36.63040839 69.57151478     1     696    698    699    700
H -30.77658934 35.98053436 71.03212592     6     697    0    0    0
H -30.26706192 36.98834009 67.67303436     6     697    0    0    0
C -27.12939041 34.90383225 69.17829424     2     697    701    702    703
H -25.55588607 36.00973874 68.45008686     6     700    0    0    0
H -26.28421340 34.52826605 71.06779885     6     700    0    0    0
C -27.84976221 32.42358696 67.82526731     2     700    704   705   706
H -29.51048566 31.73256252 68.54992059     6     703    0    0    0
H -28.00243665 32.72742455 65.77056708     6     703    0    0    0
C -25.87736480 30.09481475 67.88180320     2     703   707   708   709
H -24.24814237 30.92968277 66.95511057     6    706    0    0    0
H -25.34751782 29.90253339 69.91698008     6    706    0    0    0
C -26.59925492 27.56791682 66.77157291     2    706   710   711   712
H -28.23056098 26.84841991 67.71717679     6    709    0    0    0
H -27.17848659 27.79391284 64.88209139     6    709    0    0    0
C -24.49185141 25.55939043 66.76207751     2    709   713   714   715
H -22.82792692 26.43566164 65.88247827     6    712    0    0    0
H -24.03567425 25.10763217 68.67319217     6    712    0    0    0
C -25.34069557 23.17711132 65.39722846     2    712   716   717   718
H -27.14379283 22.59469015 66.27339609     6    715    0    0    0
H -25.72020942 23.64968769 63.18292029     6    715    0    0    0
C -23.62077793 20.97806199 65.96534235     2    715   719   720   721
H -21.68178551 21.67208467 65.69461403     6    718    0    0    0
H -23.79073166 20.53400773 67.97446584     6    718    0    0    0
C -24.20711561 18.64429038 64.37310469     2    718   722   723   724
H -26.20133405 18.25596661 64.07072184     6    721    0    0    0
H -23.61514633 19.27560224 62.52735576     6    721    0    0    0
C -22.90193751 16.31292590 65.50151518     2    721   725   726   727
H -20.93582933 16.67750080 65.72919647     6    724    0    0    0
H -23.60563815 15.97549845 67.39245164     6    724    0    0    0
C -23.35296150 13.92466384 63.87864897     2    724   728   729   730
H -25.25833829 13.34307221 63.66001391     6    727    0    0    0
H -22.59412082 14.01459065 61.92119729     6    727    0    0    0
C -21.94213951 11.67207076 65.07074263     1    727   731   732   733
H -22.05456542 10.17223914 63.76284803     6    730    0    0    0
H -22.65010735 11.32812344 66.90397401     6    730    0    0    0
H -19.99188389 12.05386881 65.27073172     6    730    0    0    0
H -0.27201248 10.18838384 38.97503541     6     735    0    0    0 
C 1.58874502 9.68500799 38.27396155     1     734    736    737    738
H 2.95427668 10.42835460 39.57470479     6     735    0    0    0
H 1.67773716 7.65739615 38.14588742     6     735    0    0    0
C 2.26020075 10.52670234 35.50331759     2     735    739    740    741
H 2.15218809 12.55947639 35.27614717     6     738    0    0    0
H 4.40385262 10.36932060 35.25993526     6     738    0    0    0
C 1.03443261 9.11589490 33.14963994     2     738    742   743   744
H 1.99196823 7.47594628 32.44041739     6     741    0    0    0
H -0.76910601 8.38228868 33.57949118     6     741    0    0    0
C 0.58889359 10.91231428 30.87643817     2     741   745   746   747
H -0.10044180 12.76388174 31.68662011     6    744    0    0    0
H 2.21233176 11.34325910 29.91272844     6    744    0    0    0
C -1.59514477 9.95024279 29.23403344     2    744   748   749   750
H -3.19658703 9.47469220 30.30938810     6    747    0    0    0
H -1.99250483 11.49951672 27.92837913     6    747    0    0    0
C -0.91424839 7.75430720 27.45147196     2    747   751   752   753
H 0.33572644 8.36031762 25.90095086     6    750    0    0    0
H -0.01737003 6.31828234 28.66962358     6    750    0    0    0
C -3.12476583 6.60559441 25.95030619     2    750   754   755   756
H -4.28798178 5.65946874 27.25216414     6    753    0    0    0
H -4.29498640 8.07800884 25.05717646     6    753    0    0    0
C -2.37055590 4.91740503 23.65812026     2    753   757   758   759
H -0.71187144 5.71022297 22.68273064     6    756    0    0    0
H -1.71029244 3.14696657 24.39287035     6    756    0    0    0
C -4.35199473 4.49846292 21.61716356     2    756   760   761   762
H -6.22386332 4.07402759 22.24467171     6    759    0    0    0
H -4.81893904 6.27610701 20.78822242     6    759    0    0    0
C -3.39137352 2.62713808 19.59201192     2    759   763   764   765
H -1.65281074 2.92635356 18.52214619     6    762    0    0    0
H -2.85976088 0.85190993 20.60247080     6    762    0    0    0
C -5.40155345 2.03893588 17.57282820     2    762   766   767   768
H -7.07360735 1.03970283 18.12789551     6    765    0    0    0
H -5.90516324 3.76971967 16.64331626     6    765    0    0    0
C -4.31972248 0.19355461 15.59535787     1    765   769   770   771
H -2.74830235 1.11355935 14.68257260     6    768    0    0    0
H -5.55033309 -0.34814823 14.24951523     6    768    0    0    0
H -3.82076478 -1.55589959 16.67896653     6    768    0    0    0
H -42.35599198 19.21780792 28.33438959     6     773    0    0    0 
C -43.54744586 18.07366229 27.22138350     1     772    774    775    776
H -45.38528007 18.30854997 28.20244611     6     773    0    0    0
H -43.46829760 18.76399504 25.27406583     6     773    0    0    0
C -42.70536132 15.41936539 27.06250455     2     773    777    778    779
H -44.07137023 14.32771286 26.03268641     6     776    0    0    0
H -41.12547238 15.18070616 25.82408029     6     776    0    0    0
C -42.16426135 14.39045399 29.77660607     2     776    780   781   782
H -40.65398347 15.26399530 30.88475325     6     779    0    0    0
H -43.74086155 15.07840182 30.91397311     6     779    0    0    0
C -42.28802763 11.32357897 29.96433111     2     779   783   784   785
H -43.77088036 10.65420094 28.62359809     6    782    0    0    0
H -40.51133295 10.30798916 29.46294704     6    782    0    0    0
C -42.96083825 10.49457080 32.53572853     2    782   786   787   788
H -41.51960481 10.73777852 33.88200064     6    785    0    0    0
H -44.70802082 11.51214952 32.98786383     6    785    0    0    0
C -43.62300019 7.55368702 32.70840485     2    785   789   790   791
H -45.14061582 7.19010559 31.51221834     6    788    0    0    0
H -42.10352310 6.50703380 31.77603370     6    788    0    0    0
C -44.41905138 6.37508365 35.27583028     2    788   792   793   794
H -43.16065240 6.71438900 36.86750126     6    791    0    0    0
H -46.22671159 7.29153123 35.65167804     6    791    0    0    0
C -44.68502207 3.52711227 35.14300109     2    791   795   796   797
H -46.00258857 3.05262722 33.78624608     6    794    0    0    0
H -43.00838893 2.73490720 34.27317153     6    794    0    0    0
C -45.41040676 2.20086442 37.60981832     2    794   798   799   800
H -44.19664296 2.93910005 39.13889860     6    797    0    0    0
H -47.43730333 2.61131876 38.20060536     6    797    0    0    0
C -45.00677907 -0.68879024 37.44198007     2    797   801   802   803
H -45.47383209 -1.23967208 35.59431951     6    800    0    0    0
H -42.94897290 -0.85457057 37.93603946     6    800    0    0    0
C -46.66102654 -2.22187955 39.30184872     2    800   804   805   806
H -46.12727531 -1.37409071 41.10722370     6    803    0    0    0
H -48.61193375 -2.76174813 38.91307048     6    803    0    0    0
C -45.76203470 -5.09574063 39.52071887     1    803   807   808   809
H -46.96447915 -6.01301552 40.78778968     6    806    0    0    0
H -43.85789916 -5.17392149 40.50889545     6    806    0    0    0
H -45.62325324 -6.24405798 37.90104520     6    806    0    0    0
H -4.05131233 24.06467075 31.02772546     6     811    0    0    0 
C -4.10498804 25.14484887 29.29403482     1     810    812    813    814
H -3.74357424 26.94084066 30.08779344     6     811    0    0    0
H -2.56621190 24.42340034 28.07138965     6     811    0    0    0
C -6.59018996 25.37073058 27.89240227     2     811    815    816    817
H -8.03849667 25.81480932 29.08812303     6     814    0    0    0
H -6.54964947 26.82256056 26.51543296     6     814    0    0    0
C -7.28686347 23.06721675 26.30242928     2     814    818   819   820
H -5.76174849 22.80038737 25.00404001     6     817    0    0    0
H -7.45759158 21.50175636 27.61611210     6     817    0    0    0
C -9.98593890 23.28207175 25.24793870     2     817   821   822   823
H -11.36953996 23.34087374 26.80207519     6    820    0    0    0
H -10.12707064 24.89317968 24.02094243     6    820    0    0    0
C -10.67035720 21.01727761 23.45061495     2    820   824   825   826
H -9.41560313 20.83753392 21.88963620     6    823    0    0    0
H -10.92440706 19.17719548 24.22493900     6    823    0    0    0
C -13.08259217 21.67141770 22.07883956     2    823   827   828   829
H -14.49923705 22.23892130 23.59068252     6    826    0    0    0
H -12.87276492 23.24237043 20.94762219     6    826    0    0    0
C -13.92711595 19.60093326 20.26273757     2    826   830   831   832
H -12.74160428 19.77581258 18.56502446     6    829    0    0    0
H -13.59775425 17.70810746 20.98539473     6    829    0    0    0
C -16.79746232 20.07276312 19.47532859     2    829   833   834   835
H -17.94235857 19.18566431 20.97521904     6    832    0    0    0
H -17.01209855 22.15259801 19.28856340     6    832    0    0    0
C -17.41173871 18.63349703 16.85631727     2    832   836   837   838
H -16.58859248 19.59248233 15.22458998     6    835    0    0    0
H -16.34073323 16.91585718 16.52360988     6    835    0    0    0
C -20.26200093 18.20255044 16.54574231     2    835   839   840   841
H -20.74156309 16.44332686 17.45820789     6    838    0    0    0
H -21.09774458 19.82901875 17.45613042     6    838    0    0    0
C -21.22871462 18.00296406 13.82661601     2    838   842   843   844
H -20.79247693 19.89092430 13.11330575     6    841    0    0    0
H -20.14746590 16.48576167 12.73163402     6    841    0    0    0
C -24.06415131 17.04275065 13.52587212     1    841   845   846   847
H -24.27642617 15.07350030 13.73158090     6    844    0    0    0
H -24.80662271 17.34178599 11.53539930     6    844    0    0    0
H -25.04932241 18.16660478 14.88690083     6    844    0    0    0
H -11.41282285 45.01498633 52.73313581     6     849    0    0    0 
C -13.23214537 44.35129299 52.17309347     1     848    850    851    852
H -13.80404060 43.10758636 53.69169872     6     849    0    0    0
H -14.53509147 46.08169998 51.82733205     6     849    0    0    0
C -13.15170142 42.82906671 49.72271254     2     849    853    854    855
H -12.02081727 41.08694995 49.86725083     6     852    0    0    0
H -14.99416325 41.86942225 49.40386622     6     852    0    0    0
C -12.52499277 44.45225845 47.48851504     2     852    856   857   858
H -13.78822425 45.97799166 47.29359869     6     855    0    0    0
H -10.71227221 45.16269611 48.02112902     6     855    0    0    0
C -12.38996665 43.05369691 44.95205224     2     855   859   860   861
H -10.80313899 41.73647588 45.13337374     6    858    0    0    0
H -13.96557888 41.82969928 44.85215065     6    858    0    0    0
C -11.88715096 44.63281795 42.58980055     2    858   862   863   864
H -13.54601455 46.01107106 42.19902375     6    861    0    0    0
H -10.16117054 45.76262304 43.03239617     6    861    0    0    0
C -11.45549343 42.93275036 40.30630540     2    861   865   866   867
H -9.94823128 41.53662646 40.56489316     6    864    0    0    0
H -13.22557687 41.80130690 40.11071685     6    864    0    0    0
C -11.26781388 44.50526659 37.84950824     2    864   868   869   870
H -13.10859053 45.41076965 37.57476535     6    867    0    0    0
H -9.85437232 45.99209531 38.14201198     6    867    0    0    0
C -10.30497918 43.06250378 35.40950898     2    867   871   872   873
H -8.34161951 42.43275784 35.87463615     6    870    0    0    0
H -11.51317072 41.37044441 35.31086143     6    870    0    0    0
C -10.37823816 44.90869184 33.09003899     2    870   874   875   876
H -11.08481619 43.71813659 31.56557115     6    873    0    0    0
H -11.98122461 46.40020104 33.29345993     6    873    0    0    0
C -7.67603857 45.80814511 32.49166124     2    873   877   878   879
H -7.16751526 46.96735711 34.11220967     6    876    0    0    0
H -6.31901548 44.27487675 32.23949319     6    876    0    0    0
C -7.39586907 47.44486204 30.20083141     2    876   880   881   882
H -8.87828110 48.91999278 30.33789518     6    879    0    0    0
H -5.68990000 48.53789700 30.37932495     6    879    0    0    0
C -7.63564251 46.20595051 27.61272257     1    879   883   884   885
H -9.61311249 45.71832109 27.54101760     6    882    0    0    0
H -6.65497947 44.34774828 27.65940997     6    882    0    0    0
H -7.54084569 47.38986552 25.83983920     6    882    0    0    0
H -22.57159638 19.18887852 23.15799460     6     887    0    0    0 
C -23.48072963 19.88558173 24.91009808     1     886    888    889    890
H -23.60916139 21.96720045 24.78341909     6     887    0    0    0
H -25.30811595 19.09939780 24.94112377     6     887    0    0    0
C -22.04782543 19.31146647 27.35653979     2     887    891    892    893
H -23.06595862 19.65791648 29.00532087     6     890    0    0    0
H -21.77404003 17.25816164 27.51138755     6     890    0    0    0
C -19.31387255 20.71994751 27.52865544     2     890    894   895   896
H -18.23029335 19.59658670 26.11478391     6     893    0    0    0
H -19.59087816 22.70218543 27.09886292     6     893    0    0    0
C -18.02856844 20.66026157 30.18671230     2     893   897   898   899
H -19.11173692 21.49833338 31.65935509     6    896    0    0    0
H -17.79092217 18.72466605 30.69713211     6    896    0    0    0
C -15.45818748 21.95804273 30.03407283     2    896   900   901   902
H -14.19143833 20.89843291 28.88678728     6    899    0    0    0
H -15.69761233 23.81135257 29.11472416     6    899    0    0    0
C -14.31660028 22.43614346 32.70706401     2    899   903   904   905
H -15.47294452 23.79361936 33.88372039     6    902    0    0    0
H -14.10854709 20.67742912 33.77613663     6    902    0    0    0
C -11.66614755 23.71688982 32.54974645     2    902   906   907   908
H -10.41490415 22.44581815 31.63665270     6    905    0    0    0
H -11.88135581 25.16841982 31.12886826     6    905    0    0    0
C -10.57380403 24.53311787 35.05242786     2    905   909   910   911
H -11.63256762 26.23836829 35.61804324     6    908    0    0    0
H -10.92785904 23.17720759 36.47085119     6    908    0    0    0
C -7.69619165 25.12185366 34.96226215     2    908   912   913   914
H -6.75738574 23.37734274 34.70731564     6    911    0    0    0
H -7.10012981 26.39037181 33.42260164     6    911    0    0    0
C -6.74814657 26.54469383 37.22980609     2    911   915   916   917
H -8.08147511 27.98629596 37.96033331     6    914    0    0    0
H -6.72008695 25.22905426 38.84873659     6    914    0    0    0
C -4.02371691 27.72356451 36.60213476     2    914   918   919   920
H -2.36300227 26.52346706 36.37958967     6    917    0    0    0
H -3.98298259 28.63920861 34.86417210     6    917    0    0    0
C -3.06315060 29.57198692 38.83321188     1    917   921   922   923
H -3.07945859 28.50054947 40.49927771     6    920    0    0    0
H -4.32176819 31.19037347 38.93581907     6    920    0    0    0
H -1.22048593 30.57598641 38.67941154     6    920    0    0    0
H -25.81279727 40.93038493 35.78162433     6     925    0    0    0 
C -26.61334852 42.43003639 36.86140581     1     924    926    927    928
H -28.62394298 42.37239579 36.81259830     6     925    0    0    0
H -26.16712867 41.64481957 38.71657910     6     925    0    0    0
C -25.84456698 45.13546942 36.14014241     2     925    929    930    931
H -27.02620226 45.84339874 34.70488106     6     928    0    0    0
H -26.09677988 46.26282746 37.78843013     6     928    0    0    0
C -23.06351672 45.09275252 35.19395989     2     928    932   933   934
H -22.35985771 46.95811688 34.80689405     6     931    0    0    0
H -21.84431961 44.40944007 36.68266013     6     931    0    0    0
C -22.61223213 43.71286384 32.66839435     2     931   935   936   937
H -23.17009436 41.72704935 32.70267468     6    934    0    0    0
H -23.75580617 44.47046269 31.06366748     6    934    0    0    0
C -20.05388068 43.82846862 31.48689717     2    934   938   939   940
H -19.35011165 45.67059217 31.20251778     6    937    0    0    0
H -18.79310803 43.22322385 33.02445570     6    937    0    0    0
C -20.00941673 42.25779392 28.99253412     2    937   941   942   943
H -21.18403691 40.67528270 29.49644598     6    940    0    0    0
H -20.81120252 43.50521097 27.38035026     6    940    0    0    0
C -17.31586897 41.41128281 28.20657561     2    940   944   945   946
H -16.19175692 43.20914054 28.07486907     6    943    0    0    0
H -16.43906090 40.09025432 29.46851483     6    943    0    0    0
C -17.30855997 39.95852768 25.76875158     2    943   947   948   949
H -17.91185593 38.00001866 26.02834644     6    946    0    0    0
H -18.62824353 40.92355357 24.36055881     6    946    0    0    0
C -14.59387589 39.72181664 24.96450015     2    946   950   951   952
H -14.37163376 39.78951763 22.85990229     6    949    0    0    0
H -13.53765573 41.47808569 25.34792837     6    949    0    0    0
C -13.12327619 37.32751971 26.03599043     2    949   953   954   955
H -13.24779735 37.50320024 28.09514147     6    952    0    0    0
H -13.98706135 35.54516865 25.68416635     6    952    0    0    0
C -10.34182677 37.06461413 25.27897598     2    952   956   957   958
H -9.57563087 35.28968980 26.27295622     6    955    0    0    0
H -10.14696587 36.82376095 23.25344979     6    955    0    0    0
C -8.64050832 39.26304611 25.82005388     1    955   959   960   961
H -6.71049393 39.02576011 25.03230487     6    958    0    0    0
H -8.69172802 39.65685351 27.87825851     6    958    0    0    0
H -9.32803742 41.00453774 24.72320153     6    958    0    0    0
H -17.35643612 0.98985477 34.24707732     6     963    0    0    0 
C -18.20106800 2.88653908 33.86165232     1     962    964    965    966
H -16.72093654 4.33339663 33.67719584     6     963    0    0    0
H -18.82773082 2.75101343 31.98109896     6     963    0    0    0
C -20.44280849 3.61131490 35.74181198     2     963    967    968    969
H -21.39752110 5.36810571 35.13980937     6     966    0    0    0
H -21.85057183 2.04497308 35.49945213     6     966    0    0    0
C -19.75959862 3.56820515 38.65499189     2     966    970   971   972
H -19.98676621 1.65045537 39.43896473     6     969    0    0    0
H -17.82942187 4.33537243 39.09398534     6     969    0    0    0
C -21.66290929 4.95399932 40.18425350     2     969   973   974   975
H -21.67584580 7.01670836 39.95821952     6    972    0    0    0
H -23.51152353 4.12452863 39.66631650     6    972    0    0    0
C -21.14392833 4.61579888 43.13421933     2    972   976   977   978
H -20.92622958 2.55725101 43.68398171     6    975    0    0    0
H -19.22181950 5.26989438 43.38988959     6    975    0    0    0
C -23.04233036 6.23310679 44.61880915     2    975   979   980   981
H -22.69042975 8.26930941 44.30573481     6    978    0    0    0
H -24.97570923 5.94037611 43.66235608     6    978    0    0    0
C -22.89178812 5.61608702 47.43718678     2    978   982   983   984
H -21.80061880 3.85949498 47.51862622     6    981    0    0    0
H -21.65295203 7.08944684 48.19385042     6    981    0    0    0
C -25.58333168 5.48097472 48.64476955     2    981   985   986   987
H -26.57287072 7.04242096 47.90783740     6    984    0    0    0
H -26.48309771 3.71930036 48.15868732     6    984    0    0    0
C -25.53449208 5.68173100 51.58893459     2    984   988   989   990
H -27.34212332 5.39336855 52.49792932     6    987    0    0    0
H -23.99084849 4.63930782 52.44543710     6    987    0    0    0
C -24.75034047 8.48019876 52.08872406     2    987   991   992   993
H -22.90833348 9.06000293 51.24962723     6    990    0    0    0
H -25.88138794 9.91518142 51.07874906     6    990    0    0    0
C -24.69964508 9.29161834 54.85314451     2    990   994   995   996
H -24.24075485 11.39525408 54.93764008     6    993    0    0    0
H -26.65246473 9.25969155 55.51700612     6    993    0    0    0
C -22.84564087 8.00108438 56.65032491     1    993   997   998   999
H -23.22886210 5.96647901 56.72335595     6    996    0    0    0
H -23.01658367 8.64503691 58.62097931     6    996    0    0    0
H -20.96596126 8.37427842 56.11021519     6    996    0    0    0
H -9.92759861 -11.18495450 25.42565699     6     1001    0    0    0 
C -8.92456171 -9.49029687 25.15840545     1     1000    1002    1003    1004
H -7.06165522 -10.05995221 24.40121258     6     1001    0    0    0
H -9.82096236 -8.30810075 23.60229401     6     1001    0    0    0
C -8.55224333 -7.97709681 27.61453609     2     1001    1005    1006    1007
H -10.34877381 -7.95894332 28.66893800     6     1004    0    0    0
H -7.26009175 -9.21936336 28.74087301     6     1004    0    0    0
C -7.80722524 -5.22612310 27.27319670     2     1004    1008   1009   1010
H -5.78982288 -5.07166486 27.65985551     6     1007    0    0    0
H -8.39334523 -4.45081252 25.48235062     6     1007    0    0    0
C -8.99506405 -3.40285012 29.09750372     2     1007   1011   1012   1013
H -8.74702359 -1.39664492 28.86492441     6    1010    0    0    0
H -11.02794883 -3.75239119 28.84621916     6    1010    0    0    0
C -8.16022295 -3.79029635 31.85305345     2    1010   1014   1015   1016
H -8.21320230 -5.80032790 32.15669433     6    1013    0    0    0
H -6.17762226 -3.08774131 32.04904781     6    1013    0    0    0
C -10.01145800 -2.56525118 33.70607482     2    1013   1017   1018   1019
H -9.43607026 -0.60322518 33.98961807     6    1016    0    0    0
H -11.96628939 -2.27290449 33.00980937     6    1016    0    0    0
C -10.30492584 -4.06518770 36.16132731     2    1016   1020   1021   1022
H -11.07846249 -5.82300160 35.55408598     6    1019    0    0    0
H -8.50916589 -4.36334467 37.10330303     6    1019    0    0    0
C -12.13382339 -2.67581274 37.97638669     2    1019   1023   1024   1025
H -13.82811002 -1.95149093 36.93218125     6    1022    0    0    0
H -12.73307229 -4.10679872 39.17215142     6    1022    0    0    0
C -10.88200797 -0.54922943 39.78057141     2    1022   1026   1027   1028
H -10.22565093 -1.49617007 41.48942836     6    1025    0    0    0
H -9.40413351 0.51944637 38.70960959     6    1025    0    0    0
C -12.78191841 1.46086475 40.63049908     2    1025   1029   1030   1031
H -13.67819814 2.34792243 38.97359030     6    1028    0    0    0
H -14.19781308 0.51841320 41.61032061     6    1028    0    0    0
C -11.62152218 3.44575389 42.42908803     2    1028   1032   1033   1034
H -10.86054988 2.55262357 44.03639273     6    1031    0    0    0
H -10.06769937 4.38331807 41.46768909     6    1031    0    0    0
C -13.49343953 5.57098036 43.26027550     1    1031   1035   1036   1037
H -12.31658491 6.95469572 44.35682739     6    1034    0    0    0
H -14.94944103 4.55513617 44.45798659     6    1034    0    0    0
H -14.40366957 6.53847244 41.63704060     6    1034    0    0    0
H -33.45530601 17.07954891 30.01917924     6     1039    0    0    0 
C -35.07406068 17.98857559 29.19341948     1     1038    1040    1041    1042
H -36.64662961 16.85616872 28.35519388     6     1039    0    0    0
H -36.00996822 19.12745907 30.73577054     6     1039    0    0    0
C -33.80671554 19.81463076 27.28333212     2     1039    1043    1044    1045
H -32.30753433 20.94610769 28.30581652     6     1042    0    0    0
H -32.86084786 18.74039730 25.99682684     6     1042    0    0    0
C -35.64374880 21.57000407 25.68050238     2     1042    1046   1047   1048
H -36.90003298 20.17204485 24.68579993     6     1045    0    0    0
H -37.06810765 22.29268866 26.97917747     6     1045    0    0    0
C -34.41330699 23.57916828 24.02167984     2     1045   1049   1050   1051
H -32.80582921 24.29125528 25.04715466     6    1048    0    0    0
H -33.67809930 22.61795337 22.16416103     6    1048    0    0    0
C -36.30680521 25.67984412 23.32428197     2    1048   1052   1053   1054
H -37.90919893 24.53117737 22.58234793     6    1051    0    0    0
H -36.93434477 26.76716532 24.92084015     6    1051    0    0    0
C -35.32258302 27.36685913 21.36009160     2    1051   1055   1056   1057
H -33.65026672 28.26709350 22.12088649     6    1054    0    0    0
H -34.47821423 26.41358101 19.78083520     6    1054    0    0    0
C -37.38508759 28.95541861 20.16196905     2    1054   1058   1059   1060
H -38.89432426 27.43310213 19.63137449     6    1057    0    0    0
H -38.31544077 30.32170595 21.52508970     6    1057    0    0    0
C -36.67984563 30.61162757 17.95286938     2    1057   1061   1062   1063
H -34.80564932 31.48155200 18.35778145     6    1060    0    0    0
H -36.16592170 29.36619489 16.38804180     6    1060    0    0    0
C -38.84477407 32.41181646 17.08006905     2    1060   1064   1065   1066
H -40.62465306 31.54956631 16.76419934     6    1063    0    0    0
H -39.29935791 33.69421231 18.68031942     6    1063    0    0    0
C -37.84697477 34.02085921 14.73445185     2    1063   1067   1068   1069
H -36.10708776 34.80040266 15.34389274     6    1066    0    0    0
H -37.57970921 32.78205643 13.15713336     6    1066    0    0    0
C -39.33239772 36.46976456 13.98083422     2    1066   1070   1071   1072
H -41.13061574 35.70892800 13.43196574     6    1069    0    0    0
H -39.78289274 37.62224651 15.70050672     6    1069    0    0    0
C -38.20780958 37.98782439 11.80715510     1    1069   1073   1074   1075
H -39.50079757 39.30767003 11.02593189     6    1072    0    0    0
H -37.75367605 36.93891693 10.06628879     6    1072    0    0    0
H -36.61921699 38.94881830 12.45024667     6    1072    0    0    0
H -28.00517870 45.63575818 28.82795729     6     1077    0    0    0 
C -28.85086912 46.08272782 27.12987486     1     1076    1078    1079    1080
H -30.59088015 44.79411677 27.07215565     6     1077    0    0    0
H -29.40216126 47.89558805 26.86785049     6     1077    0    0    0
C -27.06176264 45.42579137 24.86796129     2     1077    1081    1082    1083
H -28.23906571 45.86334891 23.32484775     6     1080    0    0    0
H -25.44468476 46.50932557 24.40430561     6     1080    0    0    0
C -26.26004997 42.54850884 24.72560569     2     1080    1084   1085   1086
H -25.60626179 42.04916911 26.55434046     6     1083    0    0    0
H -28.06025185 41.50565874 24.19688470     6     1083    0    0    0
C -24.09059008 41.73573541 22.92246310     2     1083   1087   1088   1089
H -24.62916056 42.44868289 21.07588353     6    1086    0    0    0
H -22.42718791 42.82580786 23.57597619     6    1086    0    0    0
C -23.35669027 38.87973466 22.82640145     2    1086   1090   1091   1092
H -22.44607643 38.44017714 24.66247119     6    1089    0    0    0
H -25.13023739 37.88778650 22.69708983     6    1089    0    0    0
C -21.69922499 38.30156343 20.53791720     2    1089   1093   1094   1095
H -22.94961824 38.65387750 18.87700393     6    1092    0    0    0
H -20.17104255 39.70625421 20.24979209     6    1092    0    0    0
C -20.76420431 35.38344797 20.57030319     2    1092   1096   1097   1098
H -19.40188630 35.28161968 22.00743262     6    1095    0    0    0
H -22.33999552 34.33640814 21.27208486     6    1095    0    0    0
[...]
 1803      H     -35.3357635300    44.8006811100    31.5062986200
 1804      H     -36.0323631700    42.8269708500    33.8576351300
 1805      C     -34.7692230800    40.9348059300    30.3791040400
 1806      H     -35.9851580700    39.2006104500    30.4392514800
 1807      H     -34.4783975400    41.3474580600    28.4444113700
 1808      C     -32.0964625000    40.5173093500    31.6112642500
 1809      H     -30.8857725400    42.1214464700    32.0852508700
 1810      H     -32.5016967800    39.5196093700    33.2949238500
 1811      C     -30.5249537800    38.7151440400    30.1850258300
 1812      H     -31.3919601800    36.8755436600    30.2295426100
 1813      H     -30.4530993700    39.2414723100    28.2442850200
 1814      C     -27.8311184500    38.3201594600    31.0569339900
 1815      H     -26.7378468900    40.0607731000    30.9529640600
 1816      H     -27.9751562100    37.6714665600    32.9910524300
 1817      C     -26.2688632400    36.3543525500    29.4060110500
 1818      H     -27.4543809600    34.7457075600    28.9499736100
 1819      H     -25.9277402400    37.0864008500    27.5738442200
 1820      C     -23.8849112400    35.5020599500    30.6233900500
 1821      H     -22.4089535800    36.8366882100    30.6558901600
 1822      H     -24.5272662800    35.2423273100    32.6373937000
 1823      C     -23.0014353200    33.0888691600    29.3405241600
 1824      H     -24.2266672300    31.4676492700    29.7716465700
 1825      H     -22.9520734900    33.5746538900    27.2459321000
 1826      C     -20.2640180200    32.3572767900    30.0731311800
 1827      H     -19.0074695500    34.0993645700    29.9679057300
 1828      H     -20.0161516300    31.8835320700    32.1170933800
 1829      C     -19.2229284000    30.1310361700    28.6253499500
 1830      H     -20.6839038800    28.7411807300    28.5993222500
 1831      H     -18.9227925500    30.4781521700    26.6074333800
 1832      C     -16.5277516600    29.2069644200    29.2526522900
 1833      H     -15.7307712100    27.8508641400    27.8379591500
 1834      H     -16.3827045400    28.2205172600    31.0082378000
 1835      H     -15.0169465800    30.6251030900    29.2140148800
 1836      H     -17.9908887100    24.9255121500    38.0700622100
 1837      C     -18.1461166200    25.4791339700    40.0032098700
 1838      H     -19.7938923700    24.6059760600    40.7990529700
 1839      H     -16.4553338800    24.6373002100    40.8007512200
 1840      C     -18.0692409500    28.3636652000    40.1402415200
 1841      H     -18.4776648100    28.7909756800    42.1178706500
 1842      H     -16.3097670800    29.3294368100    39.6758726300
 1843      C     -19.9402554700    29.9979621600    38.5785684900
 1844      H     -20.1280805500    29.3930444500    36.4975835500
 1845      H     -21.6920622700    29.7212322500    39.5982121600
 1846      C     -19.0215892100    32.8001896100    38.5052401100
 1847      H     -18.6244817300    33.3964631200    40.4364292800
 1848      H     -17.3687243200    32.9096328000    37.2383506200
 1849      C     -21.0957570000    34.5406401300    37.5297098200
 1850      H     -22.4963074900    33.5337227500    36.3849405600
 1851      H     -22.3580064300    35.1643793300    38.9443824300
 1852      C     -20.0004030900    36.7707483200    36.0213515100
 1853      H     -18.7412270900    36.0968808100    34.5666145800
 1854      H     -21.6212489100    37.7006607400    35.0765634800
 1855      C     -18.6681744900    38.7090361000    37.7613985900
 1856      H     -16.9553628800    37.8764418800    38.3873210600
 1857      H     -17.9516073300    40.2705560900    36.5377077900
 1858      C     -20.3609734600    39.5529702700    39.9823912300
 1859      H     -22.4036453800    39.5838758000    39.4108656100
 1860      H     -20.2204416300    38.0949822700    41.5210621100
 1861      C     -19.5336149100    41.9749807000    41.4483151600
 1862      H     -17.8459090400    41.8394271400    42.4759619600
 1863      H     -19.1409983900    43.7065116600    40.4273791300
 1864      C     -21.3659994100    42.6657205900    43.5578638100
 1865      H     -23.1741776300    43.2580340500    42.8569002300
 1866      H     -21.6835989000    40.8937779400    44.6745506800
 1867      C     -20.3561137500    44.7179949400    45.3098979300
 1868      H     -18.5292356000    44.4362002000    45.9406333200
 1869      H     -20.3587348600    46.4405618400    44.3916943200
 1870      C     -22.2024297600    45.2327113100    47.5163418900
 1871      H     -21.3847926900    46.4517708800    48.8802562700
 1872      H     -22.4263845000    43.5300871900    48.3540772500
 1873      H     -24.0227765600    46.0324969500    46.9452913300
 1874      H     -32.5102490500    19.2659676100    62.0110596900
 1875      C     -32.7400469100    19.7804409800    60.0085507400
 1876      H     -34.7439269700    19.5305533700    59.6382436200
 1877      H     -32.4974053700    21.7318048600    59.8384183800
 1878      C     -30.6740175400    18.3194977400    58.5001746800
 1879      H     -28.7001485300    18.9406631700    58.9391788300
 1880      H     -30.5815185000    16.3554828800    58.8196473500
 1881      C     -31.3143061700    18.5179780400    55.7842881600
 1882      H     -33.1100713900    17.7747944000    55.3356475600
 1883      H     -31.1888221600    20.5405193100    55.4299209100
 1884      C     -29.4860455900    17.2297361900    53.9956234900
 1885      H     -27.6194500900    18.0653986400    53.6736572600
 1886      H     -29.1389905500    15.2645298700    54.5443273300
 1887      C     -30.7146854800    16.9492872700    51.3920850500
 1888      H     -32.5154010800    15.8527148000    51.5386576500
 1889      H     -31.3663132900    18.8496532500    51.0511644200
 1890      C     -28.8104909100    15.7354875400    49.5051480400
 1891      H     -27.4400835000    17.2119540200    49.1493227000
 1892      H     -28.0483157700    14.0765371600    50.4663347800
 1893      C     -29.8771442600    14.8394441000    46.9864300100
 1894      H     -31.4087908500    13.5649738800    47.3549062300
 1895      H     -30.4896092900    16.4010066900    45.8249019100
 1896      C     -28.1877093800    13.1145492700    45.2765783400
 1897      H     -26.4306865400    13.9827082400    44.8947998000
 1898      H     -27.6716580800    11.3765605200    46.2423643300
 1899      C     -29.5371809100    12.3686559200    42.8499854000
 1900      H     -31.4801454100    11.8224114900    43.2583237500
 1901      H     -29.6837728700    13.9520474900    41.5840239000
 1902      C     -28.2514240700    10.0389824600    41.7010450900
 1903      H     -26.2007700800    10.4249237400    41.3577190100
 1904      H     -28.3398303600     8.5392801500    43.0813834300
 1905      C     -29.3470055400     9.3645180800    39.1142387000
 1906      H     -31.2978537200     8.6001759000    39.3045860000
 1907      H     -29.4305431700    10.8079744300    37.5769904800
 1908      C     -27.9257759800     7.0997814100    37.8941934700
 1909      H     -28.0567247200     5.7032275900    39.4172499500
 1910      H     -26.0104756600     7.6245844800    37.2335711300
 1911      H     -29.0970255600     6.4073102100    36.3386187600
 ----------------------------------------------------------------
 Nuclear Repulsion Energy =           0.00000000 hartrees
 There are     2498 alpha and     2498 beta electrons

 Total QAlloc Memory Limit   2000 MB
 Mega-Array Size       204 MB
 MEM_STATIC part       192 MB
   **** Step 1: MM calculation on the entire system **** 
 OPLSAA force field loaded.
Reading user-defined FF parameters...
 Reading user defined atom types.
 Found 3 user defined AtomTypes
finished.
Determining angles, torsions, etc. from user defined input
Determining VDW/Coulomb pairs... (useList = 0)

 Time req'd to get MM system information: 0.2 s (CPU) 0.5 s (wall)

 ------ MM Energies ------
   Ebond:           563.944790400489
   Eangle:          908.879837151800
   EUreyBrad:         0.000000000000
   Eimptors:          0.000000000000
   Etorsion:        226.217391436098
   Evdw:        1050732.402339673135
   Ecoulomb:        183.419845563548
   Etot:        1052614.864204225130 Kcal/mol (   1677.448569065861 hartree)
 -------------------------
 Time req'd to calc MM energy: 0.1 s (CPU) 0.1 s (wall)
 OPLSAA force field loaded.
Reading user-defined FF parameters...
 Reading user defined atom types.
 Found 3 user defined AtomTypes
finished.
 Time req'd to get MM system information: 0.0 s (CPU) 0.0 s (wall)
 Time req'd to calc MM gradient: 0.2 s (CPU) 0.2 s (wall)
   **** Step 2: MM calculation on the model system **** 
 Reading user defined atom types.
 Found 3 user defined AtomTypes
 ----------------------------------------------------------------
             Standard Nuclear Orientation (Bohr)
    I     Atom           X                Y                Z
 ----------------------------------------------------------------
    1      Fe    -23.1766198400    18.5351027900    39.4139198300
    2      C     -22.0671295100    15.3847619200    40.0725021300
    3      C     -24.1406546700    21.9098935600    39.0160398300
    4      C     -23.4772772900    18.9627398600    42.7612732700
    5      C     -20.0391350100    18.8223158400    37.3569515100
    6      C     -25.7578246500    17.4141117000    37.6026705000
    7      O     -21.3938733200    13.2449581600    40.2430845000
    8      O     -24.7890542700    24.0490239700    39.0276780200
    9      O     -23.5807911600    19.2430560900    44.9321016800
   10      O     -18.1788621300    19.2300014200    36.3586648800
   11      O     -27.4554085100    16.4713313700    36.4511454300
 ----------------------------------------------------------------
 Nuclear Repulsion Energy =         787.67184529 hartrees
 There are       48 alpha and       48 beta electrons
 OPLSAA force field loaded.
Reading user-defined FF parameters...
 Reading user defined atom types.
 Found 3 user defined AtomTypes
finished.
Determining VDW/Coulomb pairs... (useList = 0)

 No MM bonds in system. Return all possible pairs.
 Time req'd to get MM system information: 0.0 s (CPU) 0.0 s (wall)

 ------ MM Energies ------
   Ebond:             0.000000000000
   Eangle:            0.000000000000
   EUreyBrad:         0.000000000000
   Eimptors:          0.000000000000
   Etorsion:          0.000000000000
   Evdw:        1051171.330540354131
   Ecoulomb:         -6.479904877787
   Etot:        1051164.850635476410 Kcal/mol (   1675.137825346825 hartree)
 -------------------------
 Eold: 1677.4485691 mm_energy: 1675.1378253 Enew:    2.3107437
 Time req'd to calc MM energy: 0.0 s (CPU) 0.0 s (wall)
 OPLSAA force field loaded.
Reading user-defined FF parameters...
 Reading user defined atom types.
 Found 3 user defined AtomTypes
finished.
Determining VDW/Coulomb pairs... (useList = 0)

 No MM bonds in system. Return all possible pairs.
 Time req'd to get MM system information: 0.0 s (CPU) 0.0 s (wall)
 Number of fixed atoms: 0
 Time req'd to calc MM gradient: 0.0 s (CPU) 0.0 s (wall)
   **** Step 3: QM calculation on the model system **** 
 Requested basis set is def2-mSVP
 There are 80 shells and 174 basis functions

                       Distance Matrix (Bohrs)
             Fe(  1)   C (  2)   C (  3)   C (  4)   C (  5)   C (  6)
   C (  2)  3.404313
   C (  3)  3.532263  6.927695
   C (  4)  3.387926  4.692540  4.811711
   C (  5)  3.762635  4.827396  5.395199  6.406812
   C (  6)  3.346620  4.882577  4.982460  5.848960  5.894644
   O (  7)  5.643698  2.249696  9.172325  6.585960  6.424329  6.587693
   O (  8)  5.757817  9.141661  2.235271  6.444438  7.257516  6.855014
   O (  9)  5.578072  6.386964  6.513467  2.191298  8.372768  7.861620
   O ( 10)  5.898733  6.610376  7.055950  8.314928  2.150209  7.892128
   O ( 11)  5.598680  6.582432  6.866166  7.864500  7.832543  2.257573
             O (  7)   O (  8)   O (  9)   O ( 10)
   O (  8) 11.390009
   O (  9)  7.921280  7.708401
   O ( 10)  7.825967  8.604723 10.133352
   O ( 11)  7.844138  8.436195  9.727370  9.678488

 A cutoff of  1.0D-11 yielded   2472 shell pairs
 There are     12756 function pairs (     14606 Cartesian)
 Smallest overlap matrix eigenvalue = 2.70E-03
 Guess MOs from SCF MO coefficient file
 Reading MOs from coefficient file
 Reading MOs from coefficient file
 A restricted Kohn-Sham SCF calculation will be
 performed using Pulay DIIS extrapolation
 Exchange:  B88      Correlation:  P86
 Using SG-1 standard quadrature grid
 SCF converges when DIIS error is below 1.0E-08
 Using Q-Chem read-in guess as SCF_GUESS READ specified.

 using 2 threads for integral computing
 -------------------------------------------------------
 OpenMP Integral computing Module                
 Release: version 1.0, May 2013, Q-Chem Inc. Pittsburgh 
 -------------------------------------------------------
 ---------------------------------------
  Cycle       Energy         DIIS Error
 ---------------------------------------
    1   -1830.5120322616      1.72E-09
    2   -1830.5120322620      8.34E-09 Convergence criterion met
 ---------------------------------------
 SCF time:  CPU 2.84 s  wall 1.49 s
 E(QM + QM/MM):    -1830.5120322620 E(MM):    2.3107437 E(Tot): -1828.201288542916 
 SCF   energy in the final basis set = -1828.20128854
 Total energy in the final basis set = -1828.20128854

 --------------------------------------------------------------

                    Orbital Energies (a.u.)
 --------------------------------------------------------------

 Alpha MOs
 -- Occupied --
******** -29.6333 -25.5939 -25.5812 -25.5757 -18.9000 -18.8892 -18.8833
-18.8729 -18.8636 -10.0588 -10.0576 -10.0575 -10.0400 -10.0352  -3.3167
 -2.1527  -2.1295  -2.1172  -1.0832  -1.0500  -1.0485  -1.0419  -1.0203
 -0.5697  -0.5292  -0.5250  -0.5138  -0.5104  -0.4534  -0.4469  -0.4406
 -0.4369  -0.4291  -0.4252  -0.4234  -0.4160  -0.4148  -0.4118  -0.3975
 -0.3962  -0.3926  -0.3901  -0.3769  -0.2745  -0.2658  -0.2323  -0.2159
 -- Virtual --
 -0.1114  -0.0967  -0.0888  -0.0839  -0.0806  -0.0745  -0.0688  -0.0584
 -0.0527  -0.0434  -0.0278   0.0118   0.1882   0.2121   0.2253   0.2387
  0.2945   0.3143   0.3324   0.3905   0.4086   0.4193   0.4264   0.4329
  0.4429   0.4738   0.4914   0.5031   0.5202   0.5543   0.5591   0.5929
  0.5980   0.6177   0.6277   0.6401   0.7345   0.7412   0.7611   0.7708
  0.7861   0.8242   0.8277   0.8689   0.8789   0.8838   0.9383   0.9440
  0.9658   0.9751   0.9970   0.9981   1.0126   1.0160   1.0292   1.0544
  1.1970   1.2327   1.2703   1.3286   1.3884   1.4030   1.4085   1.4153
  1.4182   1.4193   1.4295   1.4318   1.4387   1.4620   1.4721   1.4793
  1.5003   1.5109   1.5319   1.5506   1.5817   1.5988   1.6467   1.6497
  1.6806   1.8144   1.8212   1.8341   1.8353   1.8419   1.8447   1.8499
  1.8603   1.8632   1.8646   1.8774   1.8820   1.8926   1.9028   1.9400
  2.3404   2.4092   2.4185   2.4320   2.4486   2.4629   2.4669   2.4696
  2.5028   2.5125   2.6098   2.6168   2.6498   2.6517   2.6616   2.7969
  2.8079   2.8666   2.8801   2.9510  13.2259  13.2624  13.3128  13.3282
 13.4333  24.9126  24.9296  24.9443  24.9772  25.0071
 --------------------------------------------------------------

          Ground-State Mulliken Net Atomic Charges

     Atom                 Charge (a.u.)
  ----------------------------------------
      1 Fe                   -0.433924
      2 C                     0.192116
      3 C                     0.210925
      4 C                     0.192772
      5 C                     0.203495
      6 C                     0.222009
      7 O                    -0.134224
      8 O                    -0.120081
      9 O                    -0.115779
     10 O                    -0.066431
     11 O                    -0.150877
  ----------------------------------------
  Sum of atomic charges =     0.000000

 -----------------------------------------------------------------
                    Cartesian Multipole Moments
 -----------------------------------------------------------------
    Charge (ESU x 10^10)
                -0.0000
    Dipole Moment (Debye)
         X       0.8837561519      Y       0.3868589741      Z      -0.3375170886
       Tot       1.0220580154
    Quadrupole Moments (Debye-Ang)
        XX     -90.8924     XY       3.4909     YY     -62.7141
        XZ      21.0681     YZ       3.6802     ZZ     -83.7334
    Octopole Moments (Debye-Ang^2)
       XXX    2941.9090    XXY    -818.1070    XYY     844.7513
       YYY   -1950.1728    XXZ   -1901.8170    XYZ     115.2790
       YYZ   -1360.6967    XZZ    1349.4478    YZZ    -696.2778
       ZZZ   -4805.8005
    Hexadecapole Moments (Debye-Ang^3)
      XXXX  -69485.7456   XXXY   27804.5434   XXYY  -18104.7417
      XYYY   24662.0547   YYYY  -39719.2604   XXXZ   61030.7585
      XXYZ  -17373.3169   XYYZ   18185.9740   YYYZ  -41273.7579
      XXZZ  -50517.6726   XYZZ   11663.5189   YYZZ  -36385.9804
      XZZZ   65062.8094   YZZZ  -44941.7874   ZZZZ -195329.1701
 -----------------------------------------------------------------
 Calculating MO derivatives via CPSCF
 Full subspace dimension requested for CIS/TDDFT
 MAX_CIS_SUBSPACE fits in available memory
    1     0    36    0.0422533  
    2     0    36    0.0067531  
    3     0    36    0.0006387  
    4     0    36    0.0000512  
    5    34     2    0.0000015  
    6    36     0    0.0000000  Converged
 Time for AOints: 6.3 s (CPU) 3.2 s (wall)
 ------------------------------------------------------------------------------
                     AOints        : Timing summary (seconds)
 ------------------------------------------------------------------------------
     job step          cpu (% of tot)      sys (% of tot)     wall (% of tot)
 ------------------------------------------------------------------------------
  AOints            0.6287E+01 ( 3.6)   0.1000E-04 ( 9.9)   0.3219E+01 ( 3.7)
 ------------------------------------------------------------------------------
   Grand Totals     0.1724E+03          0.1010E-03          0.8683E+02
 ------------------------------------------------------------------------------
 Polarizability Matrix (a.u.)
            1           2           3
    1 -89.4813819   6.4983672   1.7683280
    2   6.4983672-103.6422995  -0.9665050
    3   1.7683280  -0.9665050 -90.3903246
 Derivative of Dipole Moment Matrix (a.u.)
            1           2           3
    1  -1.7065458  -0.0389781  -0.0130627
    2   0.0216058  -1.8528423  -0.0481807
    3  -0.0656909   0.0792896  -1.7905532
    4   0.5444260  -0.4713268   0.0960650
    5  -0.4909955   2.0072819  -0.3075885
    6   0.0792581  -0.2543352   0.4313522
    7   0.5627525  -0.5369106   0.0543668
    8  -0.4683289   2.1065260  -0.1409354
    9   0.0187283  -0.0586979   0.3918061
   10   0.3963538  -0.0201404  -0.1786084
   11  -0.0232104   0.3859941   0.2124490
   12  -0.1199607   0.3009286   2.3654434
   13   1.7803967   0.2725405  -0.8382733
   14   0.2488991   0.3636617  -0.1336752
   15  -0.8189726  -0.1470498   0.8697195
   16   1.6081091   0.5377106   0.7619698
   17   0.6460783   0.6930242   0.4418147
   18   0.7572996   0.3401965   0.9197920
   19  -0.2919294   0.4090607  -0.0777518
   20   0.4270488  -1.4427385   0.2387609
   21  -0.0449438   0.1301417  -0.1750688
   22  -0.2837591   0.4315980  -0.0423367
   23   0.4005315  -1.5398574   0.1244243
   24  -0.0016036  -0.0046470  -0.1434843
   25  -0.1771432   0.0051519   0.1057614
   26   0.0100165  -0.1663761  -0.1800351
   27   0.1270005  -0.2153344  -1.7388626
   28  -1.3318093  -0.1824206   0.7333248
   29  -0.2512706  -0.1470429   0.1464719
   30   0.6556967   0.0932081  -0.5380201
   31  -1.1008514  -0.4062852  -0.6014550
   32  -0.5203744  -0.4076307  -0.3535058
   33  -0.5868117  -0.2637002  -0.5921241
 -----------------------------------------
 Net:  -0.00000  -0.00000  -0.00000
 -----------------------------------------

 Calculating analytic Hessian of the SCF energy
