                  Welcome to Q-Chem
     A Quantum Leap Into The Future Of Chemistry


 Q-Chem 5.4 (devel), Q-Chem, Inc., Pleasanton, CA (2021)

 E. Epifanovsky,  A. T. B. Gilbert,  Xintian Feng,  Joonho Lee,  Yuezhi Mao,  
 N. Mardirossian,  P. Pokhilko,  A. White,  M. Wormit,  M. P. Coons,  
 A. L. Dempwolff,  Zhengting Gan,  D. Hait,  P. R. Horn,  L. D. Jacobson,  
 I. Kaliman,  J. Kussmann,  A. W. Lange,  Ka Un Lao,  D. S. Levine,  Jie Liu,  
 S. C. McKenzie,  A. F. Morrison,  K. Nanda,  F. Plasser,  D. R. Rehn,  
 M. L. Vidal,  Zhi-Qiang You,  Ying Zhu,  B. Alam,  B. Albrecht,  
 A. Aldossary,  E. Alguire,  J. H. Andersen,  D. Barton,  K. Begam,  A. Behn,  
 Y. A. Bernard,  E. J. Berquist,  H. Burton,  A. Carreras,  K. Carter-Fenk,  
 R. Chakraborty,  A. D. Chien,  K. D. Closser,  V. Cofer-Shabica,  
 S. Dasgupta,  Jia Deng,  M. de Wergifosse,  M. Diedenhofen,  Hainam Do,  
 S. Ehlert,  Po-Tung Fang,  S. Fatehi,  Qingguo Feng,  T. Friedhoff,  
 J. Gayvert,  Qinghui Ge,  G. Gidofalvi,  M. Goldey,  J. Gomes,  
 C. Gonzalez-Espinoza,  S. Gulania,  A. Gunina,  M. W. D. Hanson-Heine,  
 P. H. P. Harbach,  A. W. Hauser,  M. F. Herbst,  M. Hernandez Vera,  
 M. Hodecker,  Z. C. Holden,  S. Houck,  Xunkun Huang,  Kerwin Hui,  
 B. C. Huynh,  M. Ivanov,  Hyunjun Ji,  Hanjie Jiang,  B. Kaduk,  S. Kaehler,  
 K. Khistyaev,  Jaehoon Kim,  P. Klunzinger,  Z. Koczor-Benda,  
 Joong Hoon Koh,  D. Kosenkov,  L. Koulias,  T. Kowalczyk,  C. M. Krauter,  
 K. Kue,  A. Kunitsa,  T. Kus,  A. Landau,  K. V. Lawler,  D. Lefrancois,  
 S. Lehtola,  Rain Li,  Yi-Pei Li,  Jiashu Liang,  M. Liebenthal,  
 Hung-Hsuan Lin,  You-Sheng Lin,  Fenglai Liu,  Kuan-Yu Liu,  
 M. Loipersberger,  A. Luenser,  A. Manjanath,  P. Manohar,  E. Mansoor,  
 S. F. Manzer,  Shan-Ping Mao,  A. V. Marenich,  T. Markovich,  S. Mason,  
 S. A. Maurer,  P. F. McLaughlin,  M. F. S. J. Menger,  J.-M. Mewes,  
 S. A. Mewes,  P. Morgante,  J. W. Mullinax,  K. J. Oosterbaan,  G. Paran,  
 Alexander C. Paul,  Suranjan K. Paul,  F. Pavosevic,  Zheng Pei,  S. Prager,  
 E. I. Proynov,  E. Ramos,  B. Rana,  A. E. Rask,  A. Rettig,  R. M. Richard,  
 F. Rob,  E. Rossomme,  T. Scheele,  M. Scheurer,  M. Schneider,  
 N. Sergueev,  S. M. Sharada,  W. Skomorowski,  D. W. Small,  C. J. Stein,  
 Yu-Chuan Su,  E. J. Sundstrom,  Zhen Tao,  J. Thirman,  T. Tsuchimochi,  
 N. M. Tubman,  S. P. Veccham,  O. Vydrov,  J. Wenzel,  J. Witte,  A. Yamada,  
 Kun Yao,  S. Yeganeh,  S. R. Yost,  A. Zech,  Igor Ying Zhang,  Xing Zhang,  
 Yu Zhang,  D. Zuev,  A. Aspuru-Guzik,  A. T. Bell,  N. A. Besley,  
 K. B. Bravaya,  B. R. Brooks,  D. Casanova,  Jeng-Da Chai,  S. Coriani,  
 C. J. Cramer,  A. E. DePrince, III,  R. A. DiStasio Jr.,  A. Dreuw,  
 B. D. Dunietz,  T. R. Furlani,  W. A. Goddard III,  S. Grimme,  
 S. Hammes-Schiffer,  T. Head-Gordon,  W. J. Hehre,  Chao-Ping Hsu,  
 T.-C. Jagau,  Yousung Jung,  A. Klamt,  Jing Kong,  D. S. Lambrecht,  
 WanZhen Liang,  N. J. Mayhall,  C. W. McCurdy,  J. B. Neaton,  
 C. Ochsenfeld,  J. A. Parkhill,  R. Peverati,  V. A. Rassolov,  Yihan Shao,  
 L. V. Slipchenko,  T. Stauch,  R. P. Steele,  J. E. Subotnik,  
 A. J. W. Thom,  A. Tkatchenko,  D. G. Truhlar,  T. Van Voorhis,  
 T. A. Wesolowski,  K. B. Whaley,  H. L. Woodcock III,  P. M. Zimmerman,  
 S. Faraji,  P. M. W. Gill,  M. Head-Gordon,  J. M. Herbert,  A. I. Krylov

 Additional authors for Version 5.4.1: 
 S. Kotaru,  Shaozhi Li,  Xiangyuan Li,  F. Matz,  A. Molle,  Haisheng Ren,  
 Yingli Su,  Hung-Yi Tsai,  C. Utku,  Fang Wang

 Contributors to earlier versions of Q-Chem not listed above: 
 R. D. Adamson,  B. Austin,  R. Baer,  J. Baker,  G. J. O. Beran,  
 K. Brandhorst,  S. T. Brown,  E. F. C. Byrd,  A. K. Chakraborty,  
 G. K. L. Chan,  Chun-Min Chang,  Yunqing Chen,  C.-L. Cheng,  
 Siu Hung Chien,  D. M. Chipman,  D. L. Crittenden,  H. Dachsel,  
 R. J. Doerksen,  A. D. Dutoi,  R. G. Edgar,  J. Fosso-Tande,  
 L. Fusti-Molnar,  D. Ghosh,  A. Ghysels,  A. Golubeva-Zadorozhnaya,  
 J. Gonthier,  M. S. Gordon,  S. R. Gwaltney,  G. Hawkins,  J. E. Herr,  
 A. Heyden,  S. Hirata,  E. G. Hohenstein,  G. Kedziora,  F. J. Keil,  
 C. Kelley,  Jihan Kim,  R. A. King,  R. Z. Khaliullin,  P. P. Korambath,  
 W. Kurlancheek,  A. Laurent,  A. M. Lee,  M. S. Lee,  S. V. Levchenko,  
 Ching Yeh Lin,  D. Liotard,  E. Livshits,  R. C. Lochan,  I. Lotan,  
 L. A. Martinez-Martinez,  P. E. Maslen,  N. Nair,  D. P. O'Neill,  
 D. Neuhauser,  E. Neuscamman,  C. M. Oana,  R. Olivares-Amaya,  R. Olson,  
 T. M. Perrine,  B. Peters,  P. A. Pieniazek,  A. Prociuk,  Y. M. Rhee,  
 J. Ritchie,  M. A. Rohrdanz,  E. Rosta,  N. J. Russ,  H. F. Schaefer III,  
 M. W. Schmidt,  N. E. Schultz,  S. Sharma,  N. Shenvi,  C. D. Sherrill,  
 A. C. Simmonett,  A. Sodt,  T. Stein,  D. Stuck,  K. S. Thanthiriwatte,  
 V. Vanovschi,  L. Vogt,  Tao Wang,  A. Warshel,  M. A. Watson,  
 C. F. Williams,  Q. Wu,  X. Xu,  Jun Yang,  W. Zhang,  Yan Zhao

 Please cite Q-Chem as follows:
 Y. Shao et al., Mol. Phys. 113, 184-215 (2015)
 DOI: 10.1080/00268976.2014.952696

 Q-Chem 5.4.1 for Intel X86 EM64T Linux

 Parts of Q-Chem use Armadillo 9.900.5 (Nocturnal Misbehaviour).
 http://arma.sourceforge.net/

 Q-Chem begins on Wed Jun 22 08:05:25 2022  

 Host: p09r16n04.grace.hpc.yale.internal
0

     Scratch files written to /home/tl686/scratch60/qchem_dev/scratch/qchem69812//
 Processing $rem in /home/tl686/qchem_dev/qchem/config/preferences:
 Processing $rem in /home/tl686/.qchemrc:
Applying user defined connections for MM calculations

 Checking the input file for inconsistencies... 	...done.

--------------------------------------------------------------
User input:
--------------------------------------------------------------
$molecule
0   1
 Fe 1474.90218006 67.71158130 59.67453786    -1  0   0   0   0
C 1475.75379912 66.11348049 56.80053616    -2  0   0   0   0 
C 1474.55635682 69.28358019 62.74249224    -2  0   0   0   0
C 1471.80715877 68.31735096 58.49118092    -2  0   0   0   0
C 1475.73110781 64.82194682 61.27370595    -2  0   0   0   0
C 1477.34953227 69.96971876 58.88895284    -2  0   0   0   0
O 1476.45229701 65.08183299 55.08388173    -3  0   0   0   0
O 1474.70728795 70.51217487 64.63056038    -3  0   0   0   0 
O 1469.60897065 68.70234405 57.85496123    -3  0   0   0   0
O 1476.28009009 62.93867420 62.20570089    -3  0   0   0   0 
O 1478.83356347 71.55133448 58.37237658    -3  0   0   0   0
H 1456.08197937 48.91314121 48.62638681      6     13    0    0    0 
C 1456.37505071 50.10808245 47.03553345     1     12    14    15    16
H 1454.93522190 50.15290488 45.69006745     6     13    0    0    0
H 1456.46822439 51.86565232 47.88908951     6     13    0    0    0
C 1458.89511182 49.26778471 45.95598378     2     13    17    18    19
H 1458.62275833 47.30195296 45.47041103     6     16    0    0    0
H 1459.39336226 50.40421312 44.22987345     6     16    0    0    0
C 1460.99097816 49.53208333 47.74971374     2     16    20   21   22
H 1461.55168095 51.55054852 47.81201701     6     19    0    0    0
H 1460.50151137 48.96966930 49.61091928     6     19    0    0    0
C 1463.24027941 47.78147853 46.82190933     2     19   23   24   25
H 1462.67151073 45.83167499 47.03301548     6    22    0    0    0
H 1463.46386786 48.33447919 44.86863347     6    22    0    0    0
C 1465.63820439 48.18387756 48.16595991     2    22   26   27   28
H 1466.56468439 50.02088035 47.80535479     6    25    0    0    0
H 1465.10328687 48.19877857 50.11481000     6    25    0    0    0
C 1467.55372796 46.17484362 47.67701899     2    25   29   30   31
H 1466.98101943 44.29117335 48.53175622     6    28    0    0    0
H 1467.55103044 45.97839485 45.65822729     6    28    0    0    0
C 1470.12663342 46.92782993 48.82578341     2    28   32   33   34
H 1470.69748001 48.82416722 48.06807974     6    31    0    0    0
H 1470.05824729 47.20948514 50.88452184     6    31    0    0    0
C 1472.16605707 45.00741731 48.19399231     2    31   35   36   37
H 1471.28312798 43.14159902 48.47804591     6    34    0    0    0
H 1472.71123686 45.22472021 46.29453888     6    34    0    0    0
C 1474.58292432 45.40221938 49.74315429     2    34   38   39   40
H 1475.47245881 47.12335251 49.15745905     6    37    0    0    0
H 1474.25857621 45.67757741 51.76119726     6    37    0    0    0
C 1476.57188078 43.26970437 49.45370232     2    37   41   42   43
H 1475.91525846 41.45276733 50.25703031     6    40    0    0    0
H 1477.00897739 42.92974425 47.46275503     6    40    0    0    0
C 1479.09079301 44.29640019 50.63928314     2    40   44   45   46
H 1479.78178423 46.15696191 49.76321100     6    43    0    0    0
H 1478.91732284 44.70587653 52.57976261     6    43    0    0    0
C 1481.13445846 42.18538237 50.40866576     1    43   47   48   49
H 1480.39264722 40.29545106 50.78319976     6    46    0    0    0
H 1482.63977755 42.49154050 51.66895201     6    46    0    0    0
H 1481.68508884 42.08198722 48.42824953     6    46    0    0    0
H 1482.47682736 59.16114251 56.80623445     6     51    0    0    0 
C 1480.57475481 59.91444614 57.20944884     1     50    52    53    54
H 1480.14529205 59.55964461 59.17630304     6     51    0    0    0
H 1480.82461774 61.99637222 57.12450140     6     51    0    0    0
C 1478.56557393 59.00963779 55.31094859     2     51    55    56    57
H 1476.92846620 60.19933480 55.82537872     6     54    0    0    0
H 1478.89456171 59.39887093 53.30613832     6     54    0    0    0
C 1477.97594657 56.17456609 55.90356067     2     54    58   59   60
H 1477.38722236 55.96279810 57.95549042     6     57    0    0    0
H 1476.46975857 55.50060068 54.62147542     6     57    0    0    0
C 1480.14146258 54.44626130 55.17249304     2     57   61   62   63
H 1480.69175724 54.69964774 53.14434321     6    60    0    0    0
H 1481.89615951 54.98025601 56.05359628     6    60    0    0    0
C 1479.54278636 51.70404249 55.62975939     2    60   64   65   66
H 1479.41986534 51.61952930 57.67887388     6    63    0    0    0
H 1477.78308090 51.21869410 54.68247071     6    63    0    0    0
C 1481.47736849 49.70998542 54.76248366     2    63   67   68   69
H 1480.98890366 48.20409841 56.12314428     6    66    0    0    0
H 1480.97514805 49.16687498 52.90848149     6    66    0    0    0
C 1484.30349599 50.37829923 54.61838146     2    66   70   71   72
H 1484.43955308 51.97628121 53.41285137     6    69    0    0    0
H 1485.08378962 51.06530246 56.37297406     6    69    0    0    0
C 1485.76005266 48.31716391 53.40188392     2    69   73   74   75
H 1485.86178225 46.71692722 54.79131984     6    72    0    0    0
H 1484.68466979 47.31664538 51.85516910     6    72    0    0    0
C 1488.37126957 49.19296838 52.67588210     2    72   76   77   78
H 1488.27442257 50.70905359 51.23360377     6    75    0    0    0
H 1489.37452820 50.07628278 54.31739927     6    75    0    0    0
C 1489.86720831 46.94739572 51.68114862     2    75   79   80   81
H 1489.66650543 45.52754641 53.13145431     6    78    0    0    0
H 1489.10222805 46.34861828 49.91411641     6    78    0    0    0
C 1492.58336989 47.48202070 51.01989610     2    78   82   83   84
H 1492.97925279 48.95892918 49.59292247     6    81    0    0    0
H 1493.52518088 48.09946184 52.73811320     6    81    0    0    0
C 1494.09651164 45.21521515 50.17424674     1    81   85   86   87
H 1496.02588791 45.56841038 49.49071752     6    84    0    0    0
H 1492.95831056 44.28045195 48.70320538     6    84    0    0    0
H 1494.19342825 43.82345748 51.63295788     6    84    0    0    0
H 1457.94534028 47.14495451 65.45163704     6     89    0    0    0 
C 1459.34956118 45.84203734 66.11373619     1     88    90    91    92
H 1460.82299727 46.97485318 67.12831249     6     89    0    0    0
H 1458.30869544 44.70359029 67.45895754     6     89    0    0    0
C 1460.46376493 44.55292064 63.77937115     2     89    93    94    95
H 1459.13195265 43.86481971 62.47579376     6     92    0    0    0
H 1461.38029963 46.24518783 62.76584164     6     92    0    0    0
C 1462.31684761 42.43035935 64.38137487     2     92    96   97   98
H 1463.82298645 43.08084937 65.54871057     6     95    0    0    0
H 1461.54812285 40.95376019 65.67901391     6     95    0    0    0
C 1463.62942511 41.26188132 62.11187209     2     95   99   100   101
H 1462.34597375 41.13963250 60.45169177     6    98    0    0    0
H 1465.09257050 42.55354402 61.38246034     6    98    0    0    0
C 1464.61649908 38.64066703 62.68516120     2    98   102   103   104
H 1466.15873619 38.90143428 64.06920525     6    101    0    0    0
H 1463.34659311 37.32189296 63.47164646     6    101    0    0    0
C 1465.78942592 37.52798533 60.21784140     2    101   105   106   107
H 1464.11900864 37.13336789 59.10599499     6    104    0    0    0
H 1466.84121221 39.05326571 59.58627113     6    104    0    0    0
C 1467.35259644 35.05242590 60.21493456     2    104   108   109   110
H 1468.72247049 35.14776600 61.76439311     6    107    0    0    0
H 1466.26979749 33.22603396 60.75769526     6    107    0    0    0
C 1468.55800452 34.17356303 57.65864453     2    107   111   112   113
H 1467.04096256 34.11613267 56.19337668     6    110    0    0    0
H 1469.89686835 35.67467482 57.17542564     6    110    0    0    0
C 1469.78523176 31.50898369 57.74087418     2    110   114   115   116
H 1471.42440892 31.45978102 58.81690283     6    113    0    0    0
H 1468.27801490 30.18819456 58.47831255     6    113    0    0    0
C 1470.40722249 30.74289757 54.97664843     2    113   117   118   119
H 1468.71693127 30.77512260 53.89328695     6    116    0    0    0
H 1471.66899411 32.11798549 54.14024257     6    116    0    0    0
C 1471.74647939 28.14712538 54.72496083     2    116   120   121   122
H 1472.38506021 28.02364282 52.75685361     6    119    0    0    0
H 1473.32468189 28.02325919 55.98373366     6    119    0    0    0
C 1469.92424155 26.01053766 55.37586899     1    119   123   124   125
H 1470.92820723 24.16728152 55.22388306     6    122    0    0    0
H 1468.41804185 26.09406269 54.04212810     6    122    0    0    0
H 1468.87341559 26.01531032 57.09949745     6    122    0    0    0
H 1447.09427577 39.90941592 75.75394144     6     127    0    0    0 
C 1448.39053806 41.21464500 76.70431599     1     126    128    129    130
H 1447.87525574 41.44805330 78.66141364     6     127    0    0    0
H 1450.29084342 40.35505464 76.67017783     6     127    0    0    0
C 1448.35373259 43.79780225 75.47680184     2     127    131    132    133
H 1448.11418854 43.42994588 73.41355819     6     130    0    0    0
H 1446.51802267 44.68933446 76.06320397     6     130    0    0    0
C 1450.83269835 45.31145200 76.10359057     2     130    134   135   136
H 1451.14607159 45.33220065 78.13833888     6     133    0    0    0
H 1452.41448603 44.17085764 75.36024428     6     133    0    0    0
C 1451.18913697 47.86179396 74.91248253     2     133   137   138   139
H 1450.88333969 47.74015266 72.87337893     6    136    0    0    0
H 1449.64035914 49.19470164 75.54230358     6    136    0    0    0
C 1453.70046482 49.10737298 75.51242042     2    136   140   141   142
H 1453.46604263 49.83147733 77.48716333     6    139    0    0    0
H 1455.38580239 47.96419562 75.57028650     6    139    0    0    0
C 1453.92796957 51.63481054 73.97016434     2    139   143   144   145
H 1454.21156714 50.88059702 72.06787008     6    142    0    0    0
H 1452.28507322 52.78023370 73.91664205     6    142    0    0    0
C 1456.38824754 52.85873633 74.77750501     2    142   146   147   148
H 1455.88649027 53.46116113 76.64262920     6    145    0    0    0
H 1458.04166277 51.58893761 74.94604329     6    145    0    0    0
C 1456.67773728 55.36070116 73.19783896     2    145   149   150   151
H 1457.60981826 55.08700023 71.35157573     6    148    0    0    0
H 1454.79237810 56.20276622 72.69725522     6    148    0    0    0
C 1458.31805354 57.08439764 74.80577493     2    148   152   153   154
H 1457.17056651 57.53463940 76.57313208     6    151    0    0    0
H 1459.96388840 55.86587334 75.33632253     6    151    0    0    0
C 1459.15723896 59.68868428 73.54012994     2    151   155   156   157
H 1461.00677350 60.18895117 74.57332354     6    154    0    0    0
H 1459.58431324 59.39562500 71.60202146     6    154    0    0    0
C 1457.33113284 62.00108542 73.91741326     2    154   158   159   160
H 1455.65419592 61.50978687 73.08423143     6    157    0    0    0
H 1457.03818080 62.44696429 75.88559842     6    157    0    0    0
C 1458.30527869 64.25008027 72.26817671     1    157   161   162   163
H 1456.82268598 65.62943161 71.86873279     6    160    0    0    0
H 1458.88540903 63.44920673 70.41903742     6    160    0    0    0
H 1460.10232718 65.02139386 73.18167563     6    160    0    0    0
H 1461.90952423 38.47395044 70.44687906     6     165    0    0    0 
C 1462.29034762 38.27909863 72.53456606     1     164    166    167    168
H 1461.48168034 36.46645456 73.21640508     6     165    0    0    0
H 1464.28865535 38.23656107 72.82112249     6     165    0    0    0
C 1461.39225869 40.41006270 74.19140211     2     165    169    170    171
H 1462.28081293 42.06523937 73.26067823     6     168    0    0    0
H 1459.37529216 40.50906751 74.10700968     6     168    0    0    0
C 1462.25080554 40.37434712 76.94623450     2     168    172   173   174
H 1461.69351231 38.66056474 77.83534399     6     171    0    0    0
H 1464.34855665 40.30737819 77.10992767     6     171    0    0    0
C 1461.10201283 42.67006427 78.41544294     2     171   175   176   177
H 1461.83721417 44.25349512 77.36427111     6    174    0    0    0
H 1459.03019925 42.39704984 78.23517929     6    174    0    0    0
C 1461.94194240 42.96583560 81.09456174     2    174   178   179   180
H 1461.60777466 41.28540719 82.11234021     6    177    0    0    0
H 1464.03542049 43.40140719 81.26691004     6    177    0    0    0
C 1460.48505978 44.92820333 82.63544813     2    177   181   182   183
H 1460.24204526 46.51210968 81.49828534     6    180    0    0    0
H 1458.60100358 44.29364854 83.17418925     6    180    0    0    0
C 1462.11500373 45.44224051 84.96608717     2    180   184   185   186
H 1462.61132217 43.71964567 85.82069407     6    183    0    0    0
H 1463.92498231 46.16548471 84.29138563     6    183    0    0    0
C 1460.87960691 46.97808852 87.12579100     2    183   187   188   189
H 1459.78357723 48.46699303 86.35965122     6    186    0    0    0
H 1459.30703970 45.96703403 88.10802739     6    186    0    0    0
C 1463.00178947 47.77873381 88.89463504     2    186   190   191   192
H 1464.35514049 46.18545027 89.26781261     6    189    0    0    0
H 1464.22721989 49.23154251 87.94057694     6    189    0    0    0
C 1461.79062205 48.84519254 91.35259909     2    189   193   194   195
H 1460.94743844 50.78032514 91.18367941     6    192    0    0    0
H 1460.20770405 47.70702504 92.02161068     6    192    0    0    0
C 1463.85136502 48.80089725 93.51950784     2    192   196   197   198
H 1464.15460574 46.77233919 93.88278554     6    195    0    0    0
H 1465.44044889 50.07035569 93.22013153     6    195    0    0    0
C 1462.65738717 49.86384320 95.95743512     1    195   199   200   201
H 1463.94997161 50.11918858 97.56376108     6    198    0    0    0
H 1460.92706440 48.72189189 96.49735435     6    198    0    0    0
H 1461.87176610 51.68828106 95.62440554     6    198    0    0    0
H 1481.38046820 44.66983801 76.26975853     6     203    0    0    0 
C 1481.24752720 42.68167212 76.10478874     1     202    204    205    206
H 1480.71721584 42.06877114 77.92722763     6     203    0    0    0
H 1479.55312463 42.28266613 75.06482566     6     203    0    0    0
C 1483.90184168 41.68831751 75.40883254     2     203    207    208    209
H 1484.36796901 40.01336518 76.60400020     6     206    0    0    0
H 1484.02894262 40.91211710 73.52869065     6     206    0    0    0
C 1485.90405436 43.54489850 75.51568868     2     206    210   211   212
H 1487.56445747 43.18400918 74.39460737     6     209    0    0    0
H 1485.29050624 45.22842282 74.61920140     6     209    0    0    0
C 1486.72873932 44.25721646 78.17052296     2     209   213   214   215
H 1485.44232414 45.56201673 78.98213255     6    212    0    0    0
H 1486.80764999 42.77522218 79.59269957     6    212    0    0    0
C 1489.23766388 45.63151368 78.14887748     2    212   216   217   218
H 1490.87676887 44.60502778 77.58635008     6    215    0    0    0
H 1489.12569589 47.24299697 76.83306668     6    215    0    0    0
C 1489.78145305 46.82026510 80.67836795     2    215   219   220   221
H 1488.34697985 48.36604729 80.92563288     6    218    0    0    0
H 1489.49408252 45.57869950 82.17573117     6    218    0    0    0
C 1492.63743142 47.72249475 80.65951102     2    218   222   223   224
H 1493.70595445 46.05476810 80.17045952     6    221    0    0    0
H 1492.94072178 49.07602368 79.13326895     6    221    0    0    0
C 1493.34202332 49.07636609 83.18000586     2    221   225   226   227
H 1491.70273269 50.29753905 83.53937431     6    224    0    0    0
H 1493.29426974 47.70367963 84.69460180     6    224    0    0    0
C 1495.84810471 50.51908887 83.12433911     2    224   228   229   230
H 1497.38919816 49.21457527 83.20512369     6    227    0    0    0
H 1495.99620487 51.58832344 81.41409051     6    227    0    0    0
C 1495.96103831 52.46691900 85.12855446     2    227   231   232   233
H 1494.60202246 53.91869613 84.52050021     6    230    0    0    0
H 1495.34550372 51.65050017 86.88773791     6    230    0    0    0
C 1498.40139477 54.01206077 85.37069626     2    230   234   235   236
H 1499.84274444 52.68326962 86.10779392     6    233    0    0    0
H 1499.15499302 54.59401612 83.43803949     6    233    0    0    0
C 1497.73811917 56.49254493 86.88802084     1    233   237   238   239
H 1499.30630223 57.33164868 87.72218531     6    236    0    0    0
H 1496.59219614 56.20004608 88.55492734     6    236    0    0    0
H 1496.94121713 58.00382481 85.77027016     6    236    0    0    0
H 1493.41663752 39.97393567 48.05856758     6     241    0    0    0 
C 1492.87139757 38.33770497 49.31401608     1     240    242    243    244
H 1494.15617754 36.88629158 49.08891819     6     241    0    0    0
H 1492.91044503 39.01788676 51.21053319     6     241    0    0    0
C 1490.11005013 37.60545345 48.60355044     2     241    245    246    247
H 1489.78781554 36.90934232 46.73552658     6     244    0    0    0
H 1489.81623429 36.01267326 49.78659698     6     244    0    0    0
C 1488.03109915 39.53695652 49.32054264     2     244    248   249   250
H 1486.22266838 38.50473376 49.23195308     6     247    0    0    0
H 1488.22913375 40.27352231 51.20118952     6     247    0    0    0
C 1487.50917345 41.77233161 47.75178531     2     247   251   252   253
H 1486.05292317 42.86248126 48.62364419     6    250    0    0    0
H 1489.31866211 42.84359079 47.46269247     6    250    0    0    0
C 1486.58133413 41.16091563 45.03437002     2    250   254   255   256
H 1487.92385626 40.12555005 43.81706308     6    253    0    0    0
H 1485.10862032 39.70462609 45.33204793     6    253    0    0    0
C 1485.43657731 43.40931082 43.40814925     2    253   257   258   259
H 1484.21606372 42.77174946 42.01187228     6    256    0    0    0
H 1484.39640213 44.75868718 44.68034753     6    256    0    0    0
C 1487.67857529 45.12070749 42.39459927     2    256   260   261   262
H 1488.79334925 45.87084557 44.01310000     6    259    0    0    0
H 1488.95159053 43.73484820 41.47759879     6    259    0    0    0
C 1486.76695051 47.27644717 40.71081631     2    259   263   264   265
H 1484.90084050 46.72256770 39.89165392     6    262    0    0    0
H 1486.30902812 48.80501937 41.92364777     6    262    0    0    0
C 1488.65351330 48.20166273 38.72563777     2    262   266   267   268
H 1487.94843383 50.18254163 38.42789806     6    265    0    0    0
H 1490.57231340 48.49681150 39.55366225     6    265    0    0    0
C 1488.29487438 47.08706863 36.14464767     2    265   269   270   271
H 1487.97991925 45.06908497 36.25468468     6    268    0    0    0
H 1486.67334579 48.03768785 35.39654635     6    268    0    0    0
C 1490.47352131 47.75916988 34.34135295     2    268   272   273   274
H 1490.48562880 49.85011622 34.26965512     6    271    0    0    0
H 1492.30735764 46.93542001 35.19389910     6    271    0    0    0
C 1489.96424143 46.36366808 31.89942356     1    271   275   276   277
H 1489.54325991 44.52260499 31.93311494     6    274    0    0    0
H 1491.53018446 46.52293537 30.60024985     6    274    0    0    0
H 1488.11526845 47.15022980 31.24998052     6    274    0    0    0
H 1482.30017048 34.85107058 67.58015170     6     279    0    0    0 
C 1481.38149125 36.66683457 67.16538980     1     278    280    281    282
H 1480.77127087 36.52117332 65.14732471     6     279    0    0    0
H 1479.70661086 36.67646304 68.32334574     6     279    0    0    0
C 1483.16446157 38.98511915 67.48062652     2     279    283    284    285
H 1482.46589870 40.53454389 66.35988771     6     282    0    0    0
H 1482.88848448 39.54985759 69.46159959     6     282    0    0    0
C 1485.87075274 38.30725572 66.78005037     2     282    286   287   288
H 1486.52663546 36.47615059 67.49935085     6     285    0    0    0
H 1485.93292367 38.19674174 64.61960487     6     285    0    0    0
C 1487.80952729 40.22266071 67.55217643     2     285   289   290   291
H 1487.37276198 41.94577956 66.50068270     6    288    0    0    0
H 1487.70587326 40.75188316 69.50570481     6    288    0    0    0
C 1490.50441303 39.63512420 66.83352768     2    288   292   293   294
H 1491.02004749 38.03791102 68.01318035     6    291    0    0    0
H 1490.67845213 38.95335372 64.90715823     6    291    0    0    0
C 1492.41460476 41.72183581 67.46608347     2    291   295   296   297
H 1491.74099785 43.72024939 66.65909250     6    294    0    0    0
H 1492.30632823 41.65510446 69.62082960     6    294    0    0    0
C 1495.14586069 41.14582530 66.83167138     2    294   298   299   300
H 1495.83928616 39.28112897 67.45266005     6    297    0    0    0
H 1495.22536654 41.00142105 64.77827406     6    297    0    0    0
C 1496.96157839 43.20504506 67.72888172     2    297   301   302   303
H 1496.47706378 45.17565350 67.05060811     6    300    0    0    0
H 1496.81040215 43.35260153 69.68453208     6    300    0    0    0
C 1499.69315192 42.51834535 66.89219661     2    300   304   305   306
H 1500.04230798 40.74010037 67.87369147     6    303    0    0    0
H 1499.91854201 42.04752905 64.81369123     6    303    0    0    0
C 1501.61917759 44.43567735 67.51236334     2    303   307   308   309
H 1502.49224006 45.13035915 65.86680361     6    306    0    0    0
H 1500.62776268 46.01065934 68.48803435     6    306    0    0    0
C 1503.81695605 43.55840047 69.03892951     2    306   310   311   312
H 1503.15770143 42.86734585 70.93012532     6    309    0    0    0
H 1504.48168674 41.81578211 68.33392333     6    309    0    0    0
C 1506.00590983 45.46284276 69.33035006     1    309   313   314   315
H 1505.30312472 47.32068042 69.86950553     6    312    0    0    0
H 1507.08998486 45.65921964 67.66301967     6    312    0    0    0
H 1507.38340258 44.83082755 70.83981185     6    312    0    0    0
H 1465.08398351 49.15878948 62.65173083     6     317    0    0    0 
C 1466.08444840 50.34178084 61.20794242     1     316    318    319    320
H 1468.02269158 50.36841808 61.84750376     6     317    0    0    0
H 1466.16316732 49.16792859 59.42876465     6     317    0    0    0
C 1465.03628196 52.98542335 60.83032109     2     317    321    322    323
H 1466.00258650 54.01822485 59.45222018     6     320    0    0    0
H 1463.22958078 52.87169653 59.73030478     6     320    0    0    0
C 1464.83863914 54.37372776 63.35825861     2     320    324   325   326
H 1463.60424931 53.37875071 64.69308816     6     323    0    0    0
H 1466.50530158 54.26185611 64.47233191     6     323    0    0    0
C 1464.11689517 57.04559697 63.15243132     2     323   327   328   329
H 1465.37979346 57.85573175 61.75569177     6    326    0    0    0
H 1462.21891199 57.04936958 62.19394738     6    326    0    0    0
C 1464.47685610 58.56360416 65.71640624     2    326   330   331   332
H 1463.65951703 57.47597781 67.29504837     6    329    0    0    0
H 1466.50774446 58.84048031 66.17842097     6    329    0    0    0
C 1463.13998669 61.07211180 65.68025074     2    329   333   334   335
H 1461.17605040 60.71620766 65.34176123     6    332    0    0    0
H 1463.46150806 61.93510029 67.46401306     6    332    0    0    0
C 1464.11875339 63.05328642 63.69281575     2    332   336   337   338
H 1465.96830123 63.47811531 63.99638831     6    335    0    0    0
H 1464.12626666 62.15085645 61.94141744     6    335    0    0    0
C 1462.53691041 65.50220177 63.84904948     2    335   339   340   341
H 1462.50397573 66.35373747 61.89547788     6    338    0    0    0
H 1460.55629005 65.11164511 64.25380174     6    338    0    0    0
C 1463.61288451 67.39529907 65.80604013     2    338   342   343   344
H 1463.90067464 66.13694786 67.41366005     6    341    0    0    0
H 1465.55526696 67.87540691 65.40718079     6    341    0    0    0
C 1461.99174062 69.82011399 66.02331424     2    341   345   346   347
H 1463.07461911 71.38035134 66.48229846     6    344    0    0    0
H 1461.16833505 69.96517998 64.24958363     6    344    0    0    0
C 1459.79246193 69.34532454 67.88615977     2    344   348   349   350
H 1458.77129329 67.62230207 67.43454457     6    347    0    0    0
H 1460.42648226 69.10816360 69.82334049     6    347    0    0    0
C 1457.95414354 71.59508035 67.94448292     1    347   351   352   353
H 1456.21423718 70.95927638 68.80894281     6    350    0    0    0
H 1457.28301405 72.27361071 66.16264549     6    350    0    0    0
H 1458.73520636 73.19444574 68.98059837     6    350    0    0    0
H 1489.67812310 36.45879557 55.79131789     6     355    0    0    0 
C 1488.23163711 36.57135142 57.25392844     1     354    356    357    358
H 1487.50852875 34.53967107 57.65848339     6     355    0    0    0
H 1489.03945467 37.39784435 58.88871413     6     355    0    0    0
C 1486.15391324 38.44761476 56.48611085     2     355    359    360    361
H 1487.14097992 40.27016638 55.84722862     6     358    0    0    0
H 1485.33152243 37.66363198 54.79594584     6     358    0    0    0
C 1484.20739574 38.98503688 58.51404276     2     358    362   363   364
H 1483.17457771 37.25473167 59.18477709     6     361    0    0    0
H 1485.20474024 39.92665783 60.04604197     6     361    0    0    0
C 1482.26158818 40.95531724 57.54910602     2     361   365   366   367
H 1483.18514594 42.65744444 56.72978641     6    364    0    0    0
H 1481.32438426 39.91226080 56.02889255     6    364    0    0    0
C 1480.16180850 41.58130746 59.46592034     2    364   368   369   370
H 1479.86405434 39.92997182 60.64886617     6    367    0    0    0
H 1480.86148659 43.02430808 60.81729009     6    367    0    0    0
C 1477.57783659 42.51237373 58.26259445     2    367   371   372   373
H 1477.91267283 44.29793426 57.28171361     6    370    0    0    0
H 1477.10902581 40.89338582 56.98861832     6    370    0    0    0
C 1475.66252454 42.94133847 60.42045905     2    370   374   375   376
H 1475.59480199 41.17515762 61.51619607     6    373    0    0    0
H 1476.05032257 44.59634842 61.61058912     6    373    0    0    0
C 1473.05998632 43.66208210 59.46712642     2    373   377   378   379
H 1473.05697719 45.40345570 58.57627443     6    376    0    0    0
H 1472.36574142 42.35749616 58.07678079     6    376    0    0    0
C 1471.05091898 43.34832191 61.56582541     2    376   380   381   382
H 1469.09486812 43.75351503 60.91962993     6    379    0    0    0
H 1471.21896194 41.30759972 62.18467268     6    379    0    0    0
C 1471.43849958 45.29270254 63.61487301     2    379   383   384   385
H 1473.23838141 44.93175098 64.69985420     6    382    0    0    0
H 1471.61068357 47.18301818 62.63052165     6    382    0    0    0
C 1469.43309302 45.10158731 65.70491245     2    382   386   387   388
H 1469.86988825 46.75887195 66.91877851     6    385    0    0    0
H 1467.62739096 45.66118077 65.02022339     6    385    0    0    0
C 1469.49427057 42.68361408 67.22215430     1    385   389   390   391
H 1471.44707609 42.35224390 67.88348640     6    388    0    0    0
H 1469.19173585 41.04566426 65.96091177     6    388    0    0    0
H 1468.13856123 42.44624149 68.73592464     6    388    0    0    0
H 1471.70170102 86.65845839 51.28666202     6     393    0    0    0 
C 1472.86272978 85.02417092 51.59934011     1     392    394    395    396
H 1474.79566388 85.51717158 52.46081880     6     393    0    0    0
H 1472.12005716 83.74662840 52.95172161     6     393    0    0    0
C 1473.06414391 83.51388409 49.22171614     2     393    397    398    399
H 1471.16773889 82.69843724 48.80098455     6     396    0    0    0
H 1473.33380072 84.86611606 47.68382486     6     396    0    0    0
C 1475.02252269 81.26501395 49.28277047     2     396    400   401   402
H 1476.59398572 81.86193483 50.46150622     6     399    0    0    0
H 1474.14330294 79.61023553 50.16467553     6     399    0    0    0
C 1475.91467093 80.41479000 46.69697864     2     399   403   404   405
H 1474.36265563 79.70987839 45.65060015     6    402    0    0    0
H 1476.69664494 82.05201782 45.81097491     6    402    0    0    0
C 1478.03998436 78.52376207 46.84489080     2    402   406   407   408
H 1479.74657927 79.36265955 47.58587478     6    405    0    0    0
H 1477.57672827 76.83363630 47.84933877     6    405    0    0    0
C 1478.56350294 77.49656609 44.13424727     2    405   409   410   411
H 1476.93516811 76.72451886 43.27762388     6    408    0    0    0
H 1479.38227222 79.02192187 42.92814490     6    408    0    0    0
C 1480.63764714 75.38812276 44.10853633     2    408   412   413   414
H 1482.27442817 75.98498919 45.19484816     6    411    0    0    0
H 1479.83300140 73.77543399 45.00333799     6    411    0    0    0
C 1481.79153150 74.70803332 41.53347453     2    411   415   416   417
H 1480.40410982 74.19131427 40.09090038     6    414    0    0    0
H 1482.50535634 76.35021768 40.59802860     6    414    0    0    0
C 1483.97991460 72.75807520 41.40915722     2    414   418   419   420
H 1485.39896267 73.23220175 42.88450641     6    417    0    0    0
H 1483.11011007 70.99721356 42.15979816     6    417    0    0    0
C 1484.99118916 71.86400253 38.84203845     2    417   421   422   423
H 1483.72013531 70.53407612 37.87150474     6    420    0    0    0
H 1484.93684184 73.48994414 37.51653058     6    420    0    0    0
C 1487.68052095 70.79613848 38.99084781     2    420   424   425   426
H 1488.40409286 70.56738018 37.12575994     6    423    0    0    0
H 1488.95564617 71.88426058 40.24701325     6    423    0    0    0
C 1487.76712630 68.18358525 40.01572949     1    423   427   428   429
H 1489.58179668 67.07377057 39.75260051     6    426    0    0    0
H 1486.57519217 66.73967553 39.05401706     6    426    0    0    0
H 1487.15302615 68.39272624 41.96306651     6    426    0    0    0
H 1478.39299323 55.05970577 42.23720298     6     431    0    0    0 
C 1477.40385293 55.74174530 40.75221426     1     430    432    433    434
H 1478.85619527 55.88388202 39.26360031     6     431    0    0    0
H 1476.10627509 54.25574044 40.29142701     6     431    0    0    0
C 1476.21012903 58.30919044 41.44773456     2     431    435    436    437
H 1476.00745842 58.67963536 43.42237829     6     434    0    0    0
H 1477.04762730 59.87107573 40.53947261     6     434    0    0    0
C 1473.48794634 58.41244798 40.40652586     2     434    438   439   440
H 1473.73923399 58.33218475 38.41236800     6     437    0    0    0
H 1472.45275036 56.53658387 40.81412838     6     437    0    0    0
C 1472.14059817 60.83770113 41.29743031     2     437   441   442   443
H 1470.10990868 60.66429278 40.60619225     6    440    0    0    0
H 1471.84523636 60.68924447 43.39275407     6    440    0    0    0
C 1473.13654082 63.35190605 40.41329666     2    440   444   445   446
H 1474.95108766 63.30343682 41.34753769     6    443    0    0    0
H 1473.67708922 63.28910897 38.30616716     6    443    0    0    0
C 1471.45248891 65.68934755 41.07671552     2    443   447   448   449
H 1469.49489373 65.46639472 40.29923937     6    446    0    0    0
H 1471.13927011 65.79468520 43.12513563     6    446    0    0    0
C 1472.45076536 68.29179935 40.30693844     2    446   450   451   452
H 1474.33347155 68.89456234 40.99395042     6    449    0    0    0
H 1472.73188361 68.18029922 38.28911561     6    449    0    0    0
C 1470.45582998 70.36464523 41.02615110     2    449   453   454   455
H 1468.60121403 69.82622454 40.39940407     6    452    0    0    0
H 1470.06856363 70.18444382 43.10366833     6    452    0    0    0
C 1471.45457101 73.01005847 40.83368190     2    452   456   457   458
H 1472.79346814 73.45182511 42.28589691     6    455    0    0    0
H 1472.72441256 73.03811707 39.27297248     6    455    0    0    0
C 1469.57652566 75.30997668 40.74309544     2    455   459   460   461
H 1470.39743452 77.10701975 40.28696726     6    458    0    0    0
H 1468.43356314 75.02087019 39.00506390     6    458    0    0    0
C 1467.88456948 75.47688948 43.07715062     2    458   462   463   464
H 1466.86718410 73.73513899 43.15845630     6    461    0    0    0
H 1469.06828446 75.60360481 44.76141882     6    461    0    0    0
C 1466.19323985 77.72876742 42.87572785     1    461   465   466   467
H 1464.84291193 77.42031280 41.46356647     6    464    0    0    0
H 1467.30293819 79.36726179 42.54736371     6    464    0    0    0
H 1465.07650706 78.05040237 44.61210464     6    464    0    0    0
H 1474.19161328 33.81718178 70.24544684     6     469    0    0    0 
C 1472.38925836 34.02872189 69.34874229     1     468    470    471    472
H 1471.77408891 32.07518831 69.06700800     6     469    0    0    0
H 1471.24718492 34.84084656 70.81825052     6     469    0    0    0
C 1472.70246912 35.48463525 66.85422557     2     469    473    474    475
H 1470.95528470 35.63686012 65.78237123     6     472    0    0    0
H 1473.18594608 37.42368627 67.10642623     6     472    0    0    0
C 1474.66265472 34.28099893 65.08664768     2     472    476   477   478
H 1476.62020603 34.14940894 65.83248014     6     475    0    0    0
H 1474.14095999 32.33343594 65.15376155     6     475    0    0    0
C 1474.49943417 35.15071802 62.23243382     2     475   479   480   481
H 1472.58247542 34.69371211 61.59584611     6    478    0    0    0
H 1474.54267999 37.28460431 62.21550449     6    478    0    0    0
C 1476.55425075 34.13159091 60.53256015     2    478   482   483   484
H 1478.36910413 34.70382063 61.52357596     6    481    0    0    0
H 1476.42957099 32.09240674 60.79707966     6    481    0    0    0
C 1476.66481988 35.10457680 57.81516861     2    481   485   486   487
H 1474.88172198 35.01858938 57.00324616     6    484    0    0    0
H 1477.28746795 36.95215000 57.81678420     6    484    0    0    0
C 1478.54525914 33.58305009 56.25819054     2    484   488   489   490
H 1480.24135477 33.63981839 57.24324216     6    487    0    0    0
H 1477.89372388 31.67523394 56.03597446     6    487    0    0    0
C 1478.86574345 34.60247786 53.58074668     2    487   491   492   493
H 1477.22068857 34.39598005 52.41292328     6    490    0    0    0
H 1479.10245573 36.60160416 53.88259494     6    490    0    0    0
C 1481.23412339 33.42596877 52.26156086     2    490   494   495   496
H 1482.98614438 33.61408936 53.46285435     6    493    0    0    0
H 1480.84206248 31.47450257 52.05245960     6    493    0    0    0
C 1481.65053353 34.35080192 49.56831339     2    493   497   498   499
H 1479.89511311 34.03128613 48.49567122     6    496    0    0    0
H 1482.06358781 36.29477212 49.34878312     6    496    0    0    0
C 1484.04248809 32.90791648 48.62836038     2    496   500   501   502
H 1485.73211338 33.81443371 49.46212367     6    499    0    0    0
H 1483.89657967 30.88172967 49.13496645     6    499    0    0    0
C 1484.25148213 32.84017576 45.77166722     1    499   503   504   505
H 1485.63760884 31.58692178 44.90495860     6    502    0    0    0
H 1484.55802770 34.82741570 45.06828814     6    502    0    0    0
H 1482.50968172 32.22825311 44.92059989     6    502    0    0    0
H 1499.48522718 45.32384389 37.39230480     6     507    0    0    0 
C 1499.56475135 47.33434872 37.75812430     1     506    508    509    510
H 1501.15235602 47.59461329 39.02093925     6     507    0    0    0
H 1500.12382195 48.52520275 36.19578368     6     507    0    0    0
C 1497.26369701 48.44204768 38.89825824     2     507    511    512    513
H 1495.61622010 48.65245756 37.61526630     6     510    0    0    0
H 1496.49069961 47.11970366 40.24222270     6     510    0    0    0
C 1497.72073272 51.00314212 40.08573817     2     510    514   515   516
H 1498.82123489 50.83478916 41.76498448     6     513    0    0    0
H 1498.89851129 52.06457570 38.68047506     6     513    0    0    0
C 1495.36589015 52.52471936 41.02691385     2     513   517   518   519
H 1494.01963347 51.44108528 42.24653576     6    516    0    0    0
H 1496.10619682 54.06110989 42.25469158     6    516    0    0    0
C 1493.91032127 53.91222382 39.04212547     2    516   520   521   522
H 1495.01466632 55.21227710 37.90964334     6    519    0    0    0
H 1493.00653903 52.87306668 37.52839114     6    519    0    0    0
C 1491.72531659 55.50619968 40.02159493     2    519   523   524   525
H 1490.58158450 54.24446864 41.19888063     6    522    0    0    0
H 1492.32548299 57.00418887 41.32017301     6    522    0    0    0
C 1489.98810322 56.65378051 37.96258117     2    522   526   527   528
H 1491.28967511 57.70074975 36.66690888     6    525    0    0    0
H 1488.97286608 55.36445067 36.89001023     6    525    0    0    0
C 1487.89148060 58.18111244 39.37606825     2    525   529   530   531
H 1486.72727954 57.00060011 40.53560080     6    528    0    0    0
H 1488.75725605 59.65838907 40.58928642     6    528    0    0    0
C 1485.93320253 59.46515485 37.56234362     2    528   532   533   534
H 1486.98363367 60.39034476 35.96385736     6    531    0    0    0
H 1484.82202667 58.12885494 36.44243492     6    531    0    0    0
C 1484.07725560 61.29354759 38.80453475     2    531   535   536   537
H 1482.76127804 60.34324479 40.17731993     6    534    0    0    0
H 1485.31111502 62.48223915 40.04381199     6    534    0    0    0
C 1482.57346470 63.02954775 37.01650804     2    534   538   539   540
H 1483.92609208 64.17666380 36.00660984     6    537    0    0    0
H 1481.55266094 61.73581067 35.73272154     6    537    0    0    0
C 1480.61281262 64.75899980 38.52595403     1    537   541   542   543
H 1479.02763164 65.59931567 37.30519084     6    540    0    0    0
H 1481.90229605 66.37537089 39.25077960     6    540    0    0    0
H 1479.46150898 63.70675815 39.89374210     6    540    0    0    0
H 1474.49317563 76.48580503 55.19764488     6     545    0    0    0 
C 1474.37426538 76.90178200 57.34576678     1     544    546    547    548
H 1475.88130377 76.20773382 58.27298119     6     545    0    0    0
H 1474.38033444 78.87975585 57.54604363     6     545    0    0    0
C 1471.95633463 76.12236649 58.78547885     2     545    549    550    551
H 1470.33051595 77.08570439 57.99188078     6     548    0    0    0
H 1471.46513496 74.19667483 58.37482582     6     548    0    0    0
C 1472.27528897 76.12203699 61.68660672     2     548    552   553   554
H 1473.98219143 74.92245045 61.83909559     6     551    0    0    0
H 1472.96243837 78.03063351 62.24151720     6     551    0    0    0
C 1470.14126487 75.01175854 63.13663590     2     551   555   556   557
H 1468.46988429 76.33984566 62.50072697     6    554    0    0    0
H 1470.01634514 73.10845410 62.35163088     6    554    0    0    0
C 1470.50731486 75.05563905 66.03092928     2    554   558   559   560
H 1472.30235714 74.09204802 66.42642633     6    557    0    0    0
H 1470.72037639 77.06356251 66.54615258     6    557    0    0    0
C 1468.25263194 73.91995413 67.32196220     2    557   561   562   563
H 1466.55622794 74.46183678 66.20254932     6    560    0    0    0
H 1468.47073931 71.88365535 67.04418069     6    560    0    0    0
C 1467.79595881 74.71593907 69.96764068     2    560   564   565   566
H 1469.30677721 74.13000896 71.25831978     6    563    0    0    0
H 1467.21037576 76.68637246 70.10365098     6    563    0    0    0
C 1465.46153108 73.21330085 71.12530266     2    563   567   568   569
H 1463.70050019 73.72143996 70.04572622     6    566    0    0    0
H 1466.03435521 71.19392120 70.71445884     6    566    0    0    0
C 1465.33956651 73.15639014 74.03798579     2    566   570   571   572
H 1467.16676091 72.71781876 74.77259170     6    569    0    0    0
H 1464.95945866 75.05172220 74.83086682     6    569    0    0    0
C 1463.36314265 71.18199558 74.95255068     2    569   573   574   575
H 1461.47496558 71.53156151 74.16597588     6    572    0    0    0
H 1463.90384418 69.46361490 73.86168918     6    572    0    0    0
C 1463.31819794 70.75949708 77.75828722     2    572   576   577   578
H 1463.03550446 72.65813986 78.69693123     6    575    0    0    0
H 1461.65026972 69.39661731 77.85633987     6    575    0    0    0
C 1465.76034227 69.55700585 78.84027344     1    575   579   580   581
H 1466.70783123 68.06405202 77.91966314     6    578    0    0    0
H 1465.53095441 69.01357893 80.80862182     6    578    0    0    0
H 1467.27351863 70.85483426 79.12590786     6    578    0    0    0
H 1472.74087405 46.11646510 74.02278651     6     583    0    0    0 
C 1471.14906805 44.93224604 74.16023223     1     582    584    585    586
H 1471.25763485 43.72341420 72.51187108     6     583    0    0    0
H 1471.35705701 43.58425688 75.72842492     6     583    0    0    0
C 1468.57982577 46.17407643 74.67533396     2     583    587    588    589
H 1468.51064118 47.53972927 73.29618873     6     586    0    0    0
H 1467.11473875 44.75206546 74.61323792     6     586    0    0    0
C 1468.06627776 47.52591946 77.06196197     2     586    590   591   592
H 1467.98777233 46.28958417 78.73029459     6     589    0    0    0
H 1469.63324146 48.74785287 77.41433891     6     589    0    0    0
C 1465.76808651 49.35614774 76.92883745     2     589   593   594   595
H 1466.30287284 50.89398047 75.71864243     6    592    0    0    0
H 1464.00599397 48.55046710 75.99167440     6    592    0    0    0
C 1465.08819843 50.30860211 79.63694970     2    592   596   597   598
H 1464.99360604 48.69799024 81.03957772     6    595    0    0    0
H 1466.56148608 51.39601936 80.39641640     6    595    0    0    0
C 1462.48156170 51.59439000 79.65916409     2    595   599   600   601
H 1462.42700480 53.14616399 78.30179259     6    598    0    0    0
H 1460.96955530 50.43303665 78.92535609     6    598    0    0    0
C 1461.56139130 52.65545907 82.23795254     2    598   602   603   604
H 1460.78608787 51.30794408 83.42984444     6    601    0    0    0
H 1462.97095298 53.49371940 83.41553833     6    601    0    0    0
C 1459.56651494 54.65053835 81.87914965     2    601   605   606   607
H 1460.35230312 56.19571270 80.93061891     6    604    0    0    0
H 1458.32411748 53.86238843 80.40390124     6    604    0    0    0
C 1458.21280175 55.76590211 84.23390059     2    604   608   609   610
H 1459.50998276 55.86075128 85.74144144     6    607    0    0    0
H 1457.70593323 57.71872170 84.01696595     6    607    0    0    0
C 1455.95330236 54.23253075 85.14220522     2    607   611   612   613
H 1454.54946615 54.06501680 83.63885522     6    610    0    0    0
H 1456.49458719 52.26485339 85.46050705     6    610    0    0    0
C 1454.79788070 55.09920028 87.62700009     2    610   614   615   616
H 1454.32721734 57.03588954 87.42083563     6    613    0    0    0
H 1453.07940975 54.03369682 87.85803963     6    613    0    0    0
C 1456.43031511 54.44908653 89.94516278     1    613   617   618   619
H 1455.19585802 54.25904258 91.53539074     6    616    0    0    0
H 1457.90381609 55.63031470 90.82920499     6    616    0    0    0
H 1457.12533923 52.60172930 89.45905051     6    616    0    0    0
H 1494.56710395 72.00686639 59.58578334     6     621    0    0    0 
C 1493.00293841 71.45023531 60.78588612     1     620    622    623    624
H 1491.96184647 73.09211889 61.51092306     6     621    0    0    0
H 1491.77238505 70.34319695 59.58640299     6     621    0    0    0
C 1494.18267772 69.64432917 62.76090526     2     621    625    626    627
H 1492.48375187 68.79643719 63.46996309     6     624    0    0    0
H 1495.36054246 68.45547684 61.74620407     6     624    0    0    0
C 1495.91811534 70.88283436 64.74479670     2     624    628   629   630
H 1497.76431536 71.40635442 63.89630299     6     627    0    0    0
H 1495.22743775 72.74887711 65.28962534     6     627    0    0    0
C 1496.09612293 69.33059839 67.33205816     2     627   631   632   633
H 1494.25883626 68.53403614 67.67573164     6    630    0    0    0
H 1497.42537020 67.88966160 66.84961294     6    630    0    0    0
C 1497.11138856 70.77407566 69.55785732     2    630   634   635   636
H 1498.71796990 72.03855295 69.11703381     6    633    0    0    0
H 1495.39035947 71.82665077 70.36077050     6    633    0    0    0
C 1498.06300425 68.94699776 71.65886671     2    633   637   638   639
H 1496.73625591 67.41448354 71.85976898     6    636    0    0    0
H 1499.77721614 67.98024340 70.80727683     6    636    0    0    0
C 1498.90684424 69.97520368 74.13814164     2    636   640   641   642
H 1500.52482116 71.20166662 73.91818754     6    639    0    0    0
H 1497.42831129 71.19929161 74.78276338     6    639    0    0    0
C 1499.41183769 67.85549417 75.97021627     2    639   643   644   645
H 1497.61178921 67.01411920 76.43089790     6    642    0    0    0
H 1500.53646485 66.22670907 75.23484412     6    642    0    0    0
C 1500.59623900 68.62714750 78.52569476     2    642   646   647   648
H 1502.41367890 69.50308022 78.44479922     6    645    0    0    0
H 1499.56285999 70.09027761 79.51417233     6    645    0    0    0
C 1500.97075746 66.36324181 80.28583183     2    645   649   650   651
H 1499.16661618 65.37130492 80.70333693     6    648    0    0    0
H 1502.32085576 65.07287495 79.30488101     6    648    0    0    0
C 1501.77009211 67.16915629 82.91534219     2    648   652   653   654
H 1503.68623497 68.06901704 82.88043212     6    651    0    0    0
H 1500.62389042 68.68191467 83.62666948     6    651    0    0    0
C 1501.97828308 65.10770781 84.87887589     1    651   655   656   657
H 1500.26869793 64.34959790 85.80899776     6    654    0    0    0
H 1503.41299661 65.42767518 86.39072032     6    654    0    0    0
H 1502.71636017 63.30925643 84.09708641     6    654    0    0    0
H 1477.65110926 52.00408824 75.40645797     6     659    0    0    0 
C 1476.23800479 53.29701965 76.10015367     1     658    660    661    662
H 1477.52834172 54.90635316 76.66748767     6     659    0    0    0
H 1474.70768342 53.66542708 74.72153405     6     659    0    0    0
C 1475.14759192 52.20443059 78.60869076     2     659    663    664    665
H 1474.02951537 50.44665161 78.08889622     6     662    0    0    0
H 1476.34237907 51.24903169 80.00202532     6     662    0    0    0
C 1473.43026875 54.26777194 79.87641780     2     662    666   667   668
H 1472.72375038 53.65578694 81.80642334     6     665    0    0    0
H 1474.38501850 56.07688347 80.11909854     6     665    0    0    0
C 1470.98369131 54.88004961 78.44960602     2     665   669   670   671
H 1471.73359230 55.93064519 76.84409941     6    668    0    0    0
H 1470.03100577 53.15026923 77.76039999     6    668    0    0    0
C 1469.34592154 56.55139633 79.89910013     2    668   672   673   674
H 1468.62433247 55.48981013 81.43986999     6    671    0    0    0
H 1470.51485708 58.01546780 80.83044117     6    671    0    0    0
C 1467.08716140 57.72832690 78.56444620     2    671   675   676   677
H 1467.65579282 58.94770697 76.91843649     6    674    0    0    0
H 1465.76698133 56.21216594 77.87369977     6    674    0    0    0
C 1465.35313604 59.18542842 80.41014464     2    674   678   679   680
H 1463.63763420 59.44423982 79.22479170     6    677    0    0    0
H 1464.93735144 57.99816060 82.05127050     6    677    0    0    0
C 1466.55802501 61.53549286 81.56438673     2    677   681   682   683
H 1468.10924035 61.05428914 82.87484468     6    680    0    0    0
H 1467.56180807 62.59483961 80.10566502     6    680    0    0    0
C 1464.64567993 63.13595399 83.04111445     2    680   684   685   686
H 1463.93394235 62.35348892 84.84259353     6    683    0    0    0
H 1465.75817078 64.79008589 83.54000294     6    683    0    0    0
C 1462.28260942 64.10580167 81.44521978     2    683   687   688   689
H 1462.91196652 65.15202818 79.67236229     6    686    0    0    0
H 1461.18333298 62.38450837 81.02691993     6    686    0    0    0
C 1460.48228361 65.81097687 82.89921512     2    686   690   691   692
H 1460.35094796 65.05663372 84.85595953     6    689    0    0    0
H 1461.29578284 67.63123973 82.98801542     6    689    0    0    0
C 1457.79384465 66.09418762 81.78380425     1    689   693   694   695
H 1456.96753691 64.34979800 81.72545740     6    692    0    0    0
H 1458.04567905 66.87768481 79.77609608     6    692    0    0    0
H 1456.29456711 67.26009245 82.66357644     6    692    0    0    0
H 1471.05946541 84.29441200 69.33447305     6     697    0    0    0 
C 1469.24365639 83.77369726 69.92991993     1     696    698    699    700
H 1468.99122341 81.63618435 69.62075573     6     697    0    0    0
H 1469.28123958 84.17162785 71.92245251     6     697    0    0    0
C 1467.36771152 85.49646002 68.59507670     2     697    701    702    703
H 1465.48730693 85.18619403 69.02666571     6     700    0    0    0
H 1467.77817270 87.42158740 69.11427118     6     700    0    0    0
C 1467.72333413 85.03368503 65.66496816     2     700    704   705   706
H 1469.30645422 86.08782882 64.95755581     6     703    0    0    0
H 1468.01175188 82.99717643 65.54373978     6     703    0    0    0
C 1465.50788074 85.80586829 63.99713560     2     703   707   708   709
H 1463.98787703 84.57585214 64.55592391     6    706    0    0    0
H 1464.88137704 87.75103232 64.55679793     6    706    0    0    0
C 1466.07928453 85.70916219 61.12881144     2    706   710   711   712
H 1467.16657953 87.31276320 60.63530623     6    709    0    0    0
H 1467.22978591 84.07669032 60.60485893     6    709    0    0    0
C 1463.77776963 85.81802378 59.43588790     2    709   713   714   715
H 1462.37078038 84.73014671 60.39144764     6    712    0    0    0
H 1463.10511454 87.81572624 59.56749393     6    712    0    0    0
C 1464.27681148 84.97905808 56.64323027     2    712   716   717   718
H 1465.83442744 85.74432495 55.58051245     6    715    0    0    0
H 1465.08869901 83.14479309 56.82444173     6    715    0    0    0
C 1461.92763575 85.12347831 54.96394362     2    715   719   720   721
H 1460.64570830 83.66488465 55.60963392     6    718    0    0    0
H 1460.75419649 86.83213377 55.11346224     6    718    0    0    0
C 1462.51159342 84.95687249 52.09090836     2    718   722   723   724
H 1463.68608765 86.48629536 51.78440801     6    721    0    0    0
H 1463.71404997 83.27918220 51.77590817     6    721    0    0    0
C 1460.14324535 85.00681849 50.59932277     2    721   725   726   727
H 1459.07045764 83.49980044 51.33156477     6    724    0    0    0
H 1459.10022927 86.61362105 50.85060105     6    724    0    0    0
C 1460.50150295 84.43578840 47.74849224     2    724   728   729   730
H 1461.75158204 82.82118165 47.49489705     6    727    0    0    0
H 1458.83551455 83.90476775 46.97201981     6    727    0    0    0
C 1461.68041194 86.51417974 46.14510950     1    727   731   732   733
H 1462.48155302 86.00270858 44.21322461     6    730    0    0    0
H 1463.13966942 87.54208343 47.19673413     6    730    0    0    0
H 1460.20203979 88.00207058 45.83043897     6    730    0    0    0
H 1458.98474808 42.98007453 53.11349007     6     735    0    0    0 
C 1459.11914612 43.67785581 55.02067242     1     734    736    737    738
H 1457.61818820 45.15560554 55.28746426     6     735    0    0    0
H 1458.59382697 42.12496126 56.29489065     6     735    0    0    0
C 1461.76995942 44.50558603 55.64804233     2     735    739    740    741
H 1461.91888567 46.59673779 55.18940766     6     738    0    0    0
H 1462.06948415 44.55478791 57.61009721     6     738    0    0    0
C 1463.94250938 43.25376493 54.23948655     2     738    742   743   744
H 1463.73243622 41.20818745 54.21699761     6     741    0    0    0
H 1463.75140105 43.60339668 52.16762474     6     741    0    0    0
C 1466.44057094 44.18181876 55.39522721     2     741   745   746   747
H 1466.67467444 46.23321773 55.13154214     6    744    0    0    0
H 1466.56241726 43.95232320 57.39700591     6    744    0    0    0
C 1468.63090475 42.83232587 54.09080433     2    744   748   749   750
H 1468.53666643 42.97496210 52.15829998     6    747    0    0    0
H 1470.30807139 43.95399597 54.58982930     6    747    0    0    0
C 1469.14928913 39.97717265 54.80612247     2    747   751   752   753
H 1469.67379054 39.91242554 56.71295663     6    750    0    0    0
H 1467.46215712 38.83286516 54.62697538     6    750    0    0    0
C 1471.34237568 38.60781002 53.26409763     2    750   754   755   756
H 1472.95269121 39.82013961 53.35636889     6    753    0    0    0
H 1471.95397629 36.87933554 54.28542580     6    753    0    0    0
C 1470.44594479 37.91046884 50.59270876     2    753   757   758   759
H 1468.74774158 36.71270608 50.72729686     6    756    0    0    0
H 1469.90850431 39.73069825 49.73390828     6    756    0    0    0
C 1472.46917901 36.92995202 48.98911788     2    756   760   761   762
H 1474.23153316 38.00789671 49.54325975     6    759    0    0    0
H 1472.48658118 34.91532591 49.58193688     6    759    0    0    0
C 1472.26197042 36.78666642 46.11601755     2    759   763   764   765
H 1470.45623211 36.30319669 45.07260738     6    762    0    0    0
H 1472.76109538 38.68038427 45.47346132     6    762    0    0    0
C 1474.01370531 34.74568406 44.91016753     2    762   766   767   768
H 1476.08267954 34.94785603 45.41708771     6    765    0    0    0
H 1473.44150670 32.96391175 45.46777450     6    765    0    0    0
C 1474.02010164 34.63914290 42.00127952     1    765   769   770   771
H 1472.64224836 33.31303330 41.51029195     6    768    0    0    0
H 1475.66749372 33.91230415 40.99328144     6    768    0    0    0
H 1473.59046495 36.40471488 41.20686695     6    768    0    0    0
H 1510.23946360 67.21174895 72.88605815     6     773    0    0    0 
C 1509.39459871 65.35866843 72.47795115     1     772    774    775    776
H 1510.64513430 63.79489069 72.07627386     6     773    0    0    0
H 1508.78922599 64.97615224 74.43305625     6     773    0    0    0
C 1506.92087446 65.51418406 70.88252800     2     773    777    778    779
H 1505.99633956 63.66401473 71.13133871     6     776    0    0    0
H 1505.57304158 66.98519230 71.49287113     6     776    0    0    0
C 1507.53600276 65.98330282 68.04935087     2     776    780   781   782
H 1508.88101287 67.37654086 67.95225739     6     779    0    0    0
H 1508.60432841 64.30851099 67.49720837     6     779    0    0    0
C 1505.14637307 66.59097114 66.42608052     2     779   783   784   785
H 1504.09098547 64.93389147 66.39037845     6    782    0    0    0
H 1503.85741793 68.06575295 67.25239812     6    782    0    0    0
C 1505.52962570 67.52877452 63.75557525     2    782   786   787   788
H 1506.77613135 69.23545274 63.78851163     6    785    0    0    0
H 1506.68198455 66.27083288 62.63896339     6    785    0    0    0
C 1503.16973101 68.14268778 62.28243779     2    785   789   790   791
H 1502.06067421 66.31445992 62.10770286     6    788    0    0    0
H 1501.91864495 69.12812262 63.41800914     6    788    0    0    0
C 1503.86648464 69.29288171 59.80370207     2    788   792   793   794
H 1505.62906507 70.43741367 59.97009036     6    791    0    0    0
H 1504.59402405 67.73659666 58.82388984     6    791    0    0    0
C 1501.80625187 70.77172056 58.61748757     2    791   795   796   797
H 1500.02119151 69.63467106 58.30885949     6    794    0    0    0
H 1501.39376197 72.42902176 59.81802469     6    794    0    0    0
C 1502.83614181 71.76709911 56.06525138     2    794   798   799   800
H 1504.65307974 72.78175322 56.47194418     6    797    0    0    0
H 1503.71417482 70.23058900 54.90095049     6    797    0    0    0
C 1500.93989693 73.32355777 54.39144196     2    797   801   802   803
H 1501.93499031 73.65554892 52.58901567     6    800    0    0    0
H 1499.26810779 72.12149513 54.23788902     6    800    0    0    0
C 1500.01680039 75.76042813 55.53359035     2    800   804   805   806
H 1499.14092828 75.31988977 57.35869592     6    803    0    0    0
H 1501.67563896 76.86166751 56.02992584     6    803    0    0    0
C 1498.36468851 77.42635709 53.91287668     1    803   807   808   809
H 1498.78406167 79.41770012 53.97266783     6    806    0    0    0
H 1496.35422563 77.06528028 54.17277384     6    806    0    0    0
H 1498.79200053 77.20274624 51.97782143     6    806    0    0    0
H 1476.06909898 47.80889373 70.63937876     6     811    0    0    0 
C 1476.71759846 45.87336281 70.45338674     1     810    812    813    814
H 1476.49874717 44.86404869 72.18671767     6     811    0    0    0
H 1475.35626758 44.96300062 69.20989280     6     811    0    0    0
C 1479.39366531 45.76299795 69.50288917     2     811    815    816    817
H 1480.43218505 47.02370713 70.64974480     6     814    0    0    0
H 1480.16457904 43.94066809 69.75104622     6     814    0    0    0
C 1479.37381899 46.78019543 66.83622098     2     814    818   819   820
H 1478.50172941 45.17773892 65.78698680     6     817    0    0    0
H 1478.02891876 48.30667967 66.58970516     6     817    0    0    0
C 1482.03338642 47.17611237 65.58947083     2     817   821   822   823
H 1483.32989956 48.48672850 66.58197395     6    820    0    0    0
H 1482.84015669 45.34808334 65.62250998     6    820    0    0    0
C 1482.10846298 48.26235384 62.81125725     2    820   824   825   826
H 1480.98369623 46.78832277 61.66791417     6    823    0    0    0
H 1481.03989421 50.08183557 62.68362891     6    823    0    0    0
C 1484.74528826 48.97445071 61.71201565     2    823   827   828   829
H 1484.44678153 50.15693132 60.06597437     6    826    0    0    0
H 1485.83505313 50.00857207 63.04245289     6    826    0    0    0
C 1486.10123859 46.61765821 60.86762303     2    826   830   831   832
H 1485.56333339 44.79809345 61.79196337     6    829    0    0    0
H 1485.39515320 46.17137488 59.06074632     6    829    0    0    0
C 1489.00200368 47.02818253 60.46887818     2    829   833   834   835
H 1489.33371180 48.52315672 59.08389983     6    832    0    0    0
H 1489.93334824 47.60145720 62.14796734     6    832    0    0    0
C 1490.65538431 44.79163948 59.53499018     2    832   836   837   838
H 1490.72148538 43.43576363 60.97034531     6    835    0    0    0
H 1489.59585022 44.04313214 57.91319086     6    835    0    0    0
C 1493.45035992 45.55503343 59.19302281     2    835   839   840   841
H 1493.47716431 46.91927826 57.64184403     6    838    0    0    0
H 1494.05891660 46.75578335 60.63520499     6    838    0    0    0
C 1495.24671238 43.35845217 58.73538968     2    838   842   843   844
H 1495.49952922 41.81916287 60.17276628     6    841    0    0    0
H 1494.44155677 42.47934294 57.05657632     6    841    0    0    0
C 1497.95140244 44.23248397 57.87662092     1    841   845   846   847
H 1497.69274639 45.24420167 56.26769336     6    844    0    0    0
H 1499.25915209 42.72021952 57.37174664     6    844    0    0    0
H 1498.67613832 45.63559135 59.22550429     6    844    0    0    0
H 1471.24137281 60.16825488 94.15505122     6     849    0    0    0 
C 1471.21253292 59.70273582 92.24488835     1     848    850    851    852
H 1469.38380044 60.26479834 91.40068547     6     849    0    0    0
H 1472.54121397 60.78010546 91.01878322     6     849    0    0    0
C 1471.50926412 56.86345865 92.12404569     2     849    853    854    855
H 1473.47033081 56.43832623 92.63355561     6     852    0    0    0
H 1470.28009790 56.10945117 93.57524647     6     852    0    0    0
C 1470.97291655 55.66194713 89.57728503     2     852    856   857   858
H 1469.24081957 56.47021053 88.72962180     6     855    0    0    0
H 1472.59469330 56.02589195 88.42131819     6     855    0    0    0
C 1470.65039670 52.66808634 89.54720224     2     855   859   860   861
H 1472.14481026 51.94362810 90.96688160     6    858    0    0    0
H 1468.78040633 52.00969238 90.18919190     6    858    0    0    0
C 1471.12840215 51.41368916 86.92877500     2    858   862   863   864
H 1469.76959764 52.01063001 85.47051020     6    861    0    0    0
H 1473.01418350 51.69072570 86.30087255     6    861    0    0    0
C 1470.88753990 48.52553776 86.87628880     2    861   865   866   867
H 1472.22123836 47.85541092 88.23720768     6    864    0    0    0
H 1469.14815468 47.93287200 87.74806485     6    864    0    0    0
C 1471.29165521 47.40364183 84.35836246     2    864   868   869   870
H 1469.63762503 47.86695107 83.21240320     6    867    0    0    0
H 1472.95730406 48.51584862 83.51357494     6    867    0    0    0
C 1471.49867767 44.42928167 84.23512523     2    867   871   872   873
H 1472.31494601 43.82366197 86.07929534     6    870    0    0    0
H 1469.73360396 43.44136793 83.75695270     6    870    0    0    0
C 1473.42846658 43.63147498 82.21258845     2    870   874   875   876
H 1472.59165062 43.63479205 80.32272153     6    873    0    0    0
H 1475.13585990 44.84439619 82.20789792     6    873    0    0    0
C 1474.62277912 40.90389422 82.64612922     2    873   877   878   879
H 1475.87361123 41.12271697 84.26897900     6    876    0    0    0
H 1473.10087117 39.54734669 83.18529920     6    876    0    0    0
C 1475.83809921 39.50791626 80.39402652     2    876   880   881   882
H 1474.72471330 39.30111973 78.77020407     6    879    0    0    0
H 1477.48663082 40.62149936 79.83899455     6    879    0    0    0
C 1476.81757901 36.97180876 81.44793866     1    879   883   884   885
H 1475.39182371 35.74799859 82.56064427     6    882    0    0    0
H 1478.42824261 37.41002028 82.67679064     6    882    0    0    0
H 1477.56352615 35.83128715 79.86773739     6    882    0    0    0
H 1486.75021348 57.09480913 59.96139336     6     887    0    0    0 
C 1486.63400162 56.66998943 61.96907115     1     886    888    889    890
H 1487.14615353 54.68913631 62.32212781     6     887    0    0    0
H 1487.95000053 57.86597202 62.99694362     6     887    0    0    0
C 1483.98755492 57.51533805 62.96262658     2     887    891    892    893
H 1484.29044758 57.67018011 65.02426937     6     890    0    0    0
H 1483.70236350 59.48980815 62.37704254     6     890    0    0    0
C 1481.68465229 55.82406845 62.57571745     2     890    894   895   896
H 1481.46714999 55.54508649 60.59933492     6     893    0    0    0
H 1481.97715193 54.00691280 63.57557873     6     893    0    0    0
C 1479.29213272 56.93057101 63.82446077     2     893   897   898   899
H 1479.68711525 57.63133927 65.69970980     6    896    0    0    0
H 1478.74339750 58.59842081 62.66566418     6    896    0    0    0
C 1477.20945551 54.89006658 63.91550668     2    896   900   901   902
H 1476.79810111 54.74321148 61.92922148     6    899    0    0    0
H 1477.97886879 53.14008827 64.84691560     6    899    0    0    0
C 1474.81637830 55.78302835 65.14532025     2    899   903   904   905
H 1475.09384685 57.42321003 66.32202169     6    902    0    0    0
H 1473.55240825 56.57468094 63.63696081     6    902    0    0    0
C 1473.62781513 53.70182181 66.65413996     2    902   906   907   908
H 1473.16659272 52.09476164 65.51585753     6    905    0    0    0
H 1475.08458093 52.95481001 68.23097331     6    905    0    0    0
C 1471.11952389 54.38709202 68.02701366     2    905   909   910   911
H 1471.40256430 55.05754183 69.97694905     6    908    0    0    0
H 1470.00610207 55.84440539 67.00417392     6    908    0    0    0
C 1469.36826931 52.08631234 68.36463277     2    908   912   913   914
H 1468.82968284 51.17585184 66.70120133     6    911    0    0    0
H 1470.21262360 50.69336214 69.45554400     6    911    0    0    0
C 1467.01776602 52.84917799 69.95030287     2    911   915   916   917
H 1467.62888313 53.38011339 71.88884527     6    914    0    0    0
H 1466.01799215 54.53250830 69.23143339     6    914    0    0    0
C 1465.04108857 50.75703521 70.01419251     2    914   918   919   920
H 1464.69549538 50.18475937 68.07651031     6    917    0    0    0
H 1465.88964396 49.11558338 70.88944326     6    917    0    0    0
C 1462.56735576 51.30137702 71.29396203     1    917   921   922   923
H 1461.14423007 52.36800515 70.21878971     6    920    0    0    0
H 1462.77741866 52.48185910 72.95430359     6    920    0    0    0
H 1461.68586183 49.64403941 71.88154546     6    920    0    0    0
H 1484.45705530 66.85968632 90.99790030     6     925    0    0    0 
C 1484.26989009 64.82034204 90.55038191     1     924    926    927    928
H 1483.73022953 64.59796819 88.65619926     6     925    0    0    0
H 1486.12619891 63.88223939 90.88834274     6     925    0    0    0
C 1482.16986033 63.97514780 92.34402276     2     925    929    930    931
H 1482.71761398 64.11811691 94.24849436     6     928    0    0    0
H 1480.53190954 65.24668649 92.25429419     6     928    0    0    0
C 1481.28052088 61.18366152 91.86307129     2     928    932   933   934
H 1482.88048810 59.77566779 92.07883886     6     931    0    0    0
H 1479.95966341 60.68864916 93.39056447     6     931    0    0    0
C 1480.06395904 60.66199821 89.25343225     2     931   935   936   937
H 1478.32718868 61.74948521 88.86941041     6    934    0    0    0
H 1481.32011805 61.35278959 87.72713787     6    934    0    0    0
C 1479.47358714 57.78474748 88.97494728     2    934   938   939   940
H 1480.93796830 56.78124312 89.85053658     6    937    0    0    0
H 1477.57121170 57.55385410 89.89902986     6    937    0    0    0
C 1479.64784027 57.01033539 86.14489074     2    937   941   942   943
H 1478.44213246 58.24854951 85.08473390     6    940    0    0    0
H 1481.28003597 57.54183818 85.23393932     6    940    0    0    0
C 1478.93524196 54.21166041 85.67394342     2    940   944   945   946
H 1477.12281008 53.78724876 86.42988653     6    943    0    0    0
H 1478.65394031 53.84207266 83.57637620     6    943    0    0    0
C 1480.68594442 51.99380858 86.44453750     2    943   947   948   949
H 1482.60859004 52.29674747 85.51724175     6    946    0    0    0
H 1480.97270436 51.93857393 88.50120047     6    946    0    0    0
C 1479.46498667 49.42521137 85.89541381     2    946   950   951   952
H 1477.46015878 49.32985338 86.53743424     6    949    0    0    0
H 1479.09385121 49.25523315 83.89471785     6    949    0    0    0
C 1480.67330981 47.02981162 86.93487025     2    949   953   954   955
H 1482.69512611 47.33730650 87.04899073     6    952    0    0    0
H 1480.32003239 47.13059637 88.95269205     6    952    0    0    0
C 1480.14352669 44.57235581 85.62168871     2    952   956   957   958
H 1480.39017748 42.97448847 86.97333057     6    955    0    0    0
H 1478.10992575 44.22045846 85.48357150     6    955    0    0    0
C 1481.65439855 43.91710823 83.33768637     1    955   959   960   961
H 1480.88390373 42.50399134 82.16534208     6    958    0    0    0
H 1483.39984590 43.05727401 83.89974642     6    958    0    0    0
H 1482.10933314 45.42505966 82.18476288     6    958    0    0    0
H 1474.04798894 53.52043562 46.63617399     6     963    0    0    0 
C 1475.12518998 53.86452379 48.39451695     1     962    964    965    966
H 1474.22626939 53.58165249 50.22557843     6     963    0    0    0
H 1476.54314058 52.42337839 48.28248347     6     963    0    0    0
C 1476.40637896 56.50156950 48.34070515     2     963    967    968    969
H 1477.84479042 56.78085728 49.85922256     6     966    0    0    0
H 1477.35159349 56.40016064 46.59537570     6     966    0    0    0
C 1474.59148355 58.73822969 48.52520518     2     966    970   971   972
H 1473.31062725 58.55266200 46.95549611     6     969    0    0    0
H 1473.29073222 58.73614955 50.07628725     6     969    0    0    0
C 1476.04009021 61.32812783 48.44509227     2     969   973   974   975
H 1477.39267161 61.38907460 50.05494071     6    972    0    0    0
H 1477.15287041 61.38162862 46.62460732     6    972    0    0    0
C 1474.07522060 63.53188047 48.45975649     2    972   976   977   978
H 1472.78995188 63.16115075 46.91453564     6    975    0    0    0
H 1473.01407906 63.50816661 50.22102695     6    975    0    0    0
C 1475.29110407 66.07695815 47.91036079     2    975   979   980   981
H 1476.81856473 66.21619734 49.35019471     6    978    0    0    0
H 1476.09532871 66.06108997 46.06884799     6    978    0    0    0
C 1473.28611249 68.23129581 48.18581500     2    978   982   983   984
H 1471.63143219 67.88487870 47.00067726     6    981    0    0    0
H 1472.42154175 68.24966429 50.01901640     6    981    0    0    0
C 1474.57702964 70.83779592 47.77821518     2    981   985   986   987
H 1475.96601481 71.28507383 49.20834171     6    984    0    0    0
H 1475.60871618 70.65131306 46.03587964     6    984    0    0    0
C 1472.65983730 72.92514574 47.80066886     2    984   988   989   990
H 1473.27027955 74.60985529 46.94769248     6    987    0    0    0
H 1470.99022295 72.36671442 46.58673618     6    987    0    0    0
C 1471.67317086 73.82578883 50.33220543     2    987   991   992   993
H 1470.71798869 72.28370046 51.12801009     6    990    0    0    0
H 1473.20678409 74.41707651 51.56123904     6    990    0    0    0
C 1469.61164088 75.85768885 50.13836960     2    990   994   995   996
H 1470.00655182 77.59227131 49.25681241     6    993    0    0    0
H 1467.80239522 75.11061014 49.42286053     6    993    0    0    0
C 1468.94812169 76.97566395 52.79853386     1    993   997   998   999
H 1468.54193250 75.37662624 54.03409600     6    996    0    0    0
H 1467.47052816 78.49595110 52.75875568     6    996    0    0    0
H 1470.74395755 77.70159573 53.42323373     6    996    0    0    0
H 1480.97552840 41.22095253 38.76509496     6     1001    0    0    0 
C 1479.70854981 40.18114087 39.87314345     1     1000    1002    1003    1004
H 1478.32150736 39.38839552 38.47441211     6     1001    0    0    0
H 1480.69158714 38.67994735 40.90394351     6     1001    0    0    0
C 1477.76427898 41.64719000 41.47085397     2     1001    1005    1006    1007
H 1476.57241422 40.47290627 42.65613099     6     1004    0    0    0
H 1479.03646232 42.71292606 42.79342994     6     1004    0    0    0
C 1476.21081372 43.41289302 39.74432173     2     1004    1008   1009   1010
H 1477.76403430 44.39453579 38.78910140     6     1007    0    0    0
H 1475.24462005 42.12540799 38.34859938     6     1007    0    0    0
C 1474.44759324 45.36640529 40.92878510     2     1007   1011   1012   1013
H 1472.63421622 44.49315118 41.61356075     6    1010    0    0    0
H 1475.44557910 46.35766006 42.42658769     6    1010    0    0    0
C 1473.80970528 47.18197666 38.77267451     2    1010   1014   1015   1016
H 1475.42478523 47.98153288 38.04769681     6    1013    0    0    0
H 1472.84546010 46.09444486 37.20882642     6    1013    0    0    0
C 1471.80209855 49.25275887 39.58013401     2    1013   1017   1018   1019
H 1470.57761863 48.48473702 40.92274528     6    1016    0    0    0
H 1472.84882341 50.76712183 40.65646872     6    1016    0    0    0
C 1470.26760718 50.34544140 37.38027460     2    1016   1020   1021   1022
H 1471.64952801 50.87912186 35.84669543     6    1019    0    0    0
H 1469.01994855 48.88258360 36.64505553     6    1019    0    0    0
C 1468.78296872 52.70769913 38.02274429     2    1019   1023   1024   1025
H 1469.81051136 54.44707757 37.44838055     6    1022    0    0    0
H 1467.31700579 52.64614896 36.47013554     6    1022    0    0    0
C 1467.36206843 52.88305550 40.62625521     2    1022   1026   1027   1028
H 1466.01554465 51.37107051 40.77872176     6    1025    0    0    0
H 1468.71428676 52.31845353 42.23215043     6    1025    0    0    0
C 1466.03450787 55.45337566 41.10971270     2    1025   1029   1030   1031
H 1467.27400503 57.15401332 40.86708173     6    1028    0    0    0
H 1464.59196748 55.70834564 39.61675627     6    1028    0    0    0
C 1464.62055225 55.74592387 43.63468075     2    1028   1032   1033   1034
H 1463.98575663 53.96651487 44.32601189     6    1031    0    0    0
H 1466.10620392 56.35263163 45.02726226     6    1031    0    0    0
C 1462.24001205 57.40135841 43.65216017     1    1031   1035   1036   1037
H 1461.63040988 57.79317961 45.63329163     6    1034    0    0    0
H 1460.60599941 56.41169568 42.69757814     6    1034    0    0    0
H 1462.57993158 59.22407982 42.79052845     6    1034    0    0    0
H 1492.42924178 62.12892436 57.75239192     6     1039    0    0    0 
C 1493.25065155 63.03775719 59.38258536     1     1038    1040    1041    1042
H 1494.97249921 63.69693343 58.56305881     6     1039    0    0    0
H 1492.25993979 64.81483451 59.92838445     6     1039    0    0    0
C 1493.56948407 61.29497719 61.56298174     2     1039    1043    1044    1045
H 1491.68967154 60.91576948 62.56266827     6     1042    0    0    0
H 1494.22888590 59.53440035 60.90716200     6     1042    0    0    0
C 1495.15120986 62.28632351 63.72059309     2     1042    1046   1047   1048
H 1497.01662356 62.68077421 62.98037202     6     1045    0    0    0
H 1494.40876528 63.96579297 64.45272775     6     1045    0    0    0
C 1495.99169465 60.21247463 65.63911845     2     1045   1049   1050   1051
H 1494.40121111 59.43228315 66.67386064     6    1048    0    0    0
H 1496.98844276 58.77649601 64.76087024     6    1048    0    0    0
C 1497.75342928 61.28598975 67.52519605     2    1048   1052   1053   1054
H 1499.34876519 62.10655390 66.59873403     6    1051    0    0    0
H 1496.80210824 62.79530566 68.41579283     6    1051    0    0    0
C 1498.80124666 59.28577306 69.42681929     2    1051   1055   1056   1057
H 1497.00786474 58.67099803 70.40340747     6    1054    0    0    0
H 1499.70970870 57.63640586 68.38643410     6    1054    0    0    0
C 1500.57828932 60.36054793 71.37016229     2    1054   1058   1059   1060
H 1502.03609661 61.35201949 70.41425382     6    1057    0    0    0
H 1499.78811172 61.80311793 72.43055661     6    1057    0    0    0
C 1501.67336154 58.57226086 73.33187726     2    1057   1061   1062   1063
H 1500.17445612 57.53202474 74.36619336     6    1060    0    0    0
H 1502.66693031 57.13673589 72.21555797     6    1060    0    0    0
C 1503.37228013 59.94073707 75.29428173     2    1060   1064   1065   1066
H 1504.84911033 60.77802990 74.29125474     6    1063    0    0    0
H 1502.30280629 61.35849039 76.31906200     6    1063    0    0    0
C 1504.48104518 58.13016808 77.21941135     2    1063   1067   1068   1069
H 1502.86519894 57.74768078 78.64837566     6    1066    0    0    0
H 1504.84217145 56.20593568 76.36959243     6    1066    0    0    0
C 1506.72067849 59.48540556 78.64292614     2    1066   1070   1071   1072
H 1508.39476163 59.30090792 77.44249951     6    1069    0    0    0
[...]
 1619      H    1504.7095029800    72.3747593900    49.1575901200
 1620      H    1505.5830128900    74.9737822400    50.3829394800
 1621      C    1504.7922282000    75.3079465700    46.4294533800
 1622      H    1506.1586945900    76.5568063000    45.6062777200
 1623      H    1504.5142493700    73.8032227600    45.0210421000
 1624      C    1502.2196279000    76.5167156800    47.0090354100
 1625      H    1501.0671237800    75.3955029500    48.2579937300
 1626      H    1502.6097504900    78.1990529300    48.1451800000
 1627      C    1500.8341734900    77.3339369300    44.5476387000
 1628      H    1502.2681538200    78.4313132700    43.5865276300
 1629      H    1500.2090991600    75.7674115100    43.4785213000
 1630      C    1498.6380560700    79.2285902900    45.2638721800
 1631      H    1496.8557572600    78.2725857500    45.3459568800
 1632      H    1498.8422621500    80.0931784300    47.0772137600
 1633      C    1498.3163080800    81.4115818400    43.2464608100
 1634      H    1500.0242837900    82.6175054100    43.3311396900
 1635      H    1498.0152670100    80.6138556000    41.3285717400
 1636      C    1495.9876738100    83.1419851500    43.9949968800
 1637      H    1494.2731663100    82.2468226600    43.5380973300
 1638      H    1495.9944026500    83.4564486600    45.9645934800
 1639      C    1496.1308882800    85.6220489700    42.4317537000
 1640      H    1498.0198201500    86.3158846000    42.6039793800
 1641      H    1495.9196468000    85.3157162200    40.4988365400
 1642      C    1494.2751529500    87.6742950400    43.2660747700
 1643      H    1492.3508996200    87.0674155100    43.0678910100
 1644      H    1494.5516766000    89.2622989100    41.8326817000
 1645      H    1494.4801319300    88.1479934000    45.1933746600
 1646      H    1504.7551735800    58.5653783500    41.7872113100
 1647      C    1503.8882102900    60.3763273000    42.2621824600
 1648      H    1502.5988248200    59.9875565400    43.7259122500
 1649      H    1505.1362120000    61.9123170600    42.7570869100
 1650      C    1502.0933429500    61.1742067500    40.0467441700
 1651      H    1500.3580531000    61.8971429800    41.0874001500
 1652      H    1502.9469043000    62.7178526000    39.1828287900
 1653      C    1501.3590360600    59.0162995600    38.1809637300
 1654      H    1503.1338291800    58.1662504300    37.4116150300
 1655      H    1500.2188277100    57.4381929300    39.0397171000
 1656      C    1499.7357719500    59.8338113400    35.8425077600
 1657      H    1501.0208415400    60.9979181600    34.6263255900
 1658      H    1499.5277362500    58.3737757800    34.6064111100
 1659      C    1497.2361882000    61.1890401900    36.5285703900
 1660      H    1496.0228395500    60.2695958300    37.9274952500
 1661      H    1497.6544703100    62.9414260300    37.4264289700
 1662      C    1495.5153267100    61.6257396600    34.1354711400
 1663      H    1496.5928307600    62.9457452800    32.8943567100
 1664      H    1495.3338777200    59.9143268100    33.0114484500
 1665      C    1492.7801025400    62.7209514300    34.7552418100
 1666      H    1491.7413003900    61.2974002000    35.4523705500
 1667      H    1492.9439573000    64.1829006600    36.1848628400
 1668      C    1491.0627179800    63.4173417600    32.5723796600
 1669      H    1492.3492472200    63.9501007800    30.9667876400
 1670      H    1490.0256293800    61.7336373000    31.9441916100
 1671      C    1489.0246169100    65.3146999000    33.3652981400
 1672      H    1488.0388306400    64.6507563800    35.0174474900
 1673      H    1489.9581190300    67.0486523300    33.8398429500
 1674      C    1487.2239196000    66.2190802000    31.2971613000
 1675      H    1488.3171822100    67.2079386700    29.8886044100
 1676      H    1486.6196144900    64.4839440800    30.4032816600
 1677      C    1485.3426317200    68.1329755700    32.3870189500
 1678      H    1485.0872118400    67.8553573800    34.4219099000
 1679      H    1486.1851882900    69.8707854700    32.3060938500
 1680      C    1482.7293927000    68.1259836800    31.0984843200
 1681      H    1481.3033446100    69.4924025600    31.6754249200
 1682      H    1481.9252685200    66.3004966500    31.2237033000
 1683      H    1482.9692986300    68.3853510700    29.0359889500
 1684      H    1482.4634428100    48.3673477500    47.7173990400
 1685      C    1483.8249116100    49.3025637500    46.5407990400
 1686      H    1485.5734790200    48.3076449400    47.2434459700
 1687      H    1483.3040729400    49.0929831000    44.5504674700
 1688      C    1483.7586144300    52.0084591400    47.4715545800
 1689      H    1482.0508535900    53.1408938100    46.7851600300
 1690      H    1483.6716099400    51.8189299900    49.4737552200
 1691      C    1486.2443268700    53.3430903700    46.9917920000
 1692      H    1487.7319359500    51.9664670000    46.9182028900
 1693      H    1486.0864385700    54.1378455000    45.1061384800
 1694      C    1486.8480090700    55.3850636900    49.1024904100
 1695      H    1486.8412251300    54.4321201800    50.9154999900
 1696      H    1488.8196313700    56.2269935600    48.9387848500
 1697      C    1484.6937205100    57.5431314400    48.9038025300
 1698      H    1484.6917282000    58.6213050400    47.1281572700
 1699      H    1482.7627671500    56.7496491400    48.8175744200
 1700      C    1484.6438441100    59.6691015300    50.9419176400
 1701      H    1482.8083500100    60.5576984500    51.2091140900
 1702      H    1485.1674844700    58.9695338800    52.7522279400
 1703      C    1486.7599013300    61.6311186200    50.2360850100
 1704      H    1488.4692723600    60.6171967000    49.9072375500
 1705      H    1486.4579196400    62.5356190700    48.5098303800
 1706      C    1487.2605243700    63.8933214000    52.1346878400
 1707      H    1485.7745215400    65.0922735800    52.4657053200
 1708      H    1487.3770354400    63.0087320400    53.9392035400
 1709      C    1489.6664355800    65.3325844000    51.3742599800
 1710      H    1491.2602957300    64.0758380900    51.3407287900
 1711      H    1489.4874855700    66.1891721800    49.4800326700
 1712      C    1490.5478474000    67.3986348700    53.2121890600
 1713      H    1489.1484634300    68.7749385400    53.7725020000
 1714      H    1490.7840602800    66.3948274600    54.9520438900
 1715      C    1493.0356635400    68.7067590000    52.6709149400
 1716      H    1493.8122302700    69.3671548600    54.5211393300
 1717      H    1494.5094511200    67.4235731600    51.8165206100
 1718      C    1492.7020419300    71.0849910200    51.0270394800
 1719      H    1491.8626426500    70.4960489900    49.2330753600
 1720      H    1494.6052888100    71.7423048700    50.5474031800
 1721      H    1491.7555522400    72.6509142100    52.0862280000
 1722      H    1458.5673380400    76.7508592200    44.6884881000
 1723      C    1459.5344514600    77.0320693300    46.6063151300
 1724      H    1461.3401228500    77.9644410400    46.5405525800
 1725      H    1458.2615255200    78.3504102500    47.7410744400
 1726      C    1459.9839671200    74.6471566100    48.1765457200
 1727      H    1460.6164966600    75.1663351600    50.0885819500
 1728      H    1458.0507402300    73.8438287400    48.5678717300
 1729      C    1461.4304287400    72.7275238000    46.8861308600
 1730      H    1460.6540099300    72.2305288200    45.0241129300
 1731      H    1463.3166280300    73.4931807800    46.5819606300
 1732      C    1461.6044270700    70.3738691800    48.4541971800
 1733      H    1460.9961386600    70.7397322100    50.3233493300
 1734      H    1460.3451355100    68.8973216800    47.7426166700
 1735      C    1464.1942971100    69.1268954500    48.7985392900
 1736      H    1465.3291989800    68.7601357300    47.1810380800
 1737      H    1465.4136539800    70.4040939000    49.9362570500
 1738      C    1463.8364702400    66.4304670900    49.8001183400
 1739      H    1462.8541661000    66.7394047900    51.5615067100
 1740      H    1462.8715378300    65.1883768700    48.4767187600
 1741      C    1466.4636784600    65.2813516800    50.3788954600
 1742      H    1466.7280109500    63.5317962800    49.2208323100
 1743      H    1467.9432200400    66.6934241900    49.9456488000
 1744      C    1466.4691217800    64.3451490100    53.1018712000
 1745      H    1466.2316234700    65.9033362300    54.4559989800
 1746      H    1464.8513246600    62.9920318100    53.4877112700
 1747      C    1468.7907897100    62.9488651300    53.8969926300
 1748      H    1469.0907789100    61.2566902000    52.6202820200
 1749      H    1470.3725603600    64.2815268300    53.5175870300
 1750      C    1468.8577745500    62.1379756800    56.6338813500
 1751      H    1468.6456947200    63.8245559900    58.0010018900
 1752      H    1467.1483656000    61.0452507600    57.0392844000
 1753      C    1471.1938803700    60.5594848600    57.4909732000
 1754      H    1471.5449879400    59.1509080500    56.0583014800
 1755      H    1472.9736582000    61.7906722300    57.2774088400
 1756      C    1470.8940484500    59.4695261600    60.1263961700
 1757      H    1472.7224512100    58.7977842700    60.7276910800
 1758      H    1469.5991926800    57.8047165500    60.3356358100
 1759      H    1470.2166878400    61.0135442800    61.3793647200
 1760      H    1454.8095562700    52.8412972700    64.0740164900
 1761      C    1455.5288614200    54.5447608300    65.0040348900
 1762      H    1454.4866191700    54.9774202300    66.7097847900
 1763      H    1457.5009185600    54.1395708600    65.5781991900
 1764      C    1455.1563612200    56.6687689600    63.0156356900
 1765      H    1456.6646736600    56.5205282600    61.5201176900
 1766      H    1453.4046908600    55.8920024200    62.0756196100
 1767      C    1454.8124700800    59.1878703600    64.3126326600
 1768      H    1452.9980492900    59.3903424200    65.3892483200
 1769      H    1456.1504059700    59.5084695900    65.9809365400
 1770      C    1454.8082833800    61.3844848400    62.3296049300
 1771      H    1456.4763696500    61.6320414700    61.2185381200
 1772      H    1453.2210979700    61.0998913900    61.2029859000
 1773      C    1454.1363797300    63.9171613900    63.5120701800
 1774      H    1452.2591032000    63.5851198800    64.3323550700
 1775      H    1455.3113709500    64.3037804100    65.1557566300
 1776      C    1454.1504884100    66.1676413700    61.7778117300
 1777      H    1456.1829761500    66.4334370600    61.4424546700
 1778      H    1453.4040946800    65.7344892100    59.8285241300
 1779      C    1453.1517577700    68.5955436200    63.0638979200
 1780      H    1451.8051974800    68.2511278400    64.5755521900
 1781      H    1454.6300410000    69.4204819500    64.1519269600
 1782      C    1452.0982221800    70.6612049200    61.2233698300
 1783      H    1450.5681698700    70.0103389700    60.1870964400
 1784      H    1451.1119117400    71.9978056500    62.5008665600
 1785      C    1454.2425595000    71.8800927400    59.6168805700
 1786      H    1455.6678412100    72.6314558400    60.8904714200
 1787      H    1455.2207656300    70.7700667100    58.1882866900
 1788      C    1453.1171904600    74.3349607100    58.3458696100
 1789      H    1451.2744517700    73.8105045600    57.5307557700
 1790      H    1452.5104773800    75.6871541800    59.7448359200
 1791      C    1454.7529402100    75.6924205500    56.2233838900
 1792      H    1456.3669861400    76.8677491800    57.0958066200
 1793      H    1455.5962448100    74.3445963800    54.9570131100
 1794      C    1453.0532352200    77.4150579300    54.5788108600
 1795      H    1452.0346387400    78.7132991100    55.7084372000
 1796      H    1451.5780575200    76.2087953000    53.6636125800
 1797      H    1454.0429019500    78.4191189600    53.0689907100
 1798      H    1497.5315609200    77.6030002600    80.8295914300
 1799      C    1495.7972334200    76.9533371700    79.8309461800
 1800      H    1494.3704702700    77.0895824600    81.2046355700
 1801      H    1495.2660889900    78.0613353500    78.2545840400
 1802      C    1495.6329299900    74.1411136100    78.9855711500
 1803      H    1497.2572975600    73.5713934700    77.9681818700
 1804      H    1495.8710531800    73.1776738700    80.8008953800
 1805      C    1493.2276989200    73.4672154300    77.5283563800
 1806      H    1491.5747223800    74.4331973000    77.9233001300
 1807      H    1493.4886151900    73.5401763800    75.5011213700
 1808      C    1492.3224755700    70.7318679800    78.0321008100
 1809      H    1493.8442140700    69.4555483800    77.4070332600
 1810      H    1492.2268600800    70.5390083200    79.9482899900
 1811      C    1489.8847400900    70.2402765100    76.8097425500
 1812      H    1488.5900776700    71.7293065300    77.1529108400
 1813      H    1490.0935883800    70.3897147400    74.7060918600
 1814      C    1488.7336162900    67.7516293400    77.4127029900
 1815      H    1490.1959813600    66.3625370000    77.3611015200
 1816      H    1488.0389398800    67.6725376000    79.4434493800
 1817      C    1486.5493692500    67.0449954800    75.4665768500
 1818      H    1484.8895773900    68.1227260300    75.8594290700
 1819      H    1486.9016062800    67.6279523000    73.4752934100
 1820      C    1485.7970285600    64.0828576700    75.6034887200
 1821      H    1487.5608755300    62.9854479100    75.7636520600
 1822      H    1484.9664681900    63.5366708100    77.3191682500
 1823      C    1483.8302818800    63.2027947300    73.6591828900
 1824      H    1482.1078743400    64.1160596000    73.6777456800
 1825      H    1484.8049561900    63.8263467600    71.9118239600
 1826      C    1483.4991175900    60.4412899100    73.7664642000
 1827      H    1485.2931346800    59.5108086000    73.9199013100
 1828      H    1482.4257512700    59.9804644500    75.4558135600
 1829      C    1482.2443144800    59.4011964600    71.4755524800
 1830      H    1480.7514912600    60.6538385300    71.0121954200
 1831      H    1483.2399066400    59.5344822500    69.6820532000
 1832      C    1480.7585680100    56.8605573000    71.8246699900
 1833      H    1479.4421311300    56.9763927400    73.3545145100
 1834      H    1482.0992883300    55.3358742100    72.2567679700
 1835      H    1479.5595511300    56.3404823400    70.2105098600
 1836      H    1472.9031482700    60.4193509600    69.0817481800
 1837      C    1474.4027161500    60.9691785800    70.2667288600
 1838      H    1475.9368788700    59.6394010400    69.8906810800
 1839      H    1475.0922679500    62.8324911100    69.4819430800
 1840      C    1473.7252993800    60.8672360500    73.1484779600
 1841      H    1472.1873603100    62.3002147100    73.3587152300
 1842      H    1473.0516204000    58.9008122700    73.3075885000
 1843      C    1475.9065674400    61.3903912900    74.8456354800
 1844      H    1477.3789110400    60.0667209600    75.1616796100
 1845      H    1477.0133563700    63.0424897700    74.1994889600
 1846      C    1474.7235557000    61.8794816400    77.3624305000
 1847      H    1473.4392978600    63.4788132900    77.4581535400
 1848      H    1473.4303591600    60.3304164900    77.9927155200
 1849      C    1476.6888841000    62.2360389900    79.4461955500
 1850      H    1478.0688229300    60.7150737600    79.5522874000
 1851      H    1477.6848488100    63.9629496200    78.7170492800
 1852      C    1475.5638758600    62.6154989700    82.1892185200
 1853      H    1474.4672509700    60.8933437200    82.6189600700
 1854      H    1477.2292475500    62.8454586700    83.4045266100
 1855      C    1473.7229586500    64.8196753300    82.5192148800
 1856      H    1474.0742561900    66.4445628100    81.2553741800
 1857      H    1471.9110302800    63.9790528400    82.0731254800
 1858      C    1473.6617440400    65.8976950900    85.2406879600
 1859      H    1471.9906112000    66.9798890000    85.4455909200
 1860      H    1473.3553129900    64.1816525100    86.4545243200
 1861      C    1476.0755613800    67.4493287600    86.0405124300
 1862      H    1477.9145531900    66.4809074200    85.5621837500
 1863      H    1476.1282497900    69.1058478300    84.8642123600
 1864      C    1476.2768241900    68.2108038000    88.8486667100
 1865      H    1474.4478760000    68.9637173100    89.3532554700
 1866      H    1476.4188630600    66.4625346700    90.0172619000
 1867      C    1478.3998149400    69.9895195000    89.3510995900
 1868      H    1480.1815548200    69.0599234100    89.3922844500
 1869      H    1478.5633845400    71.5899996500    88.1357556700
 1870      C    1478.1265224500    71.0023712700    92.1249428900
 1871      H    1479.8629981700    72.1312880800    92.6147877300
 1872      H    1478.0825435400    69.4731960900    93.3546903600
 1873      H    1476.3499710000    72.1505226200    92.2108474200
 1874      H    1475.8564099700    88.3650545200    58.5339192500
 1875      C    1477.5189686400    87.4981687100    57.9626203800
 1876      H    1477.5176667000    88.1076737400    55.9855240900
 1877      H    1479.3191482900    88.0247926200    58.8904926100
 1878      C    1477.4132944900    84.6232544700    57.7114656200
 1879      H    1477.5977093600    83.6527491100    59.5303854300
 1880      H    1475.6224005400    84.1349752800    56.9304120800
 1881      C    1479.6573518000    83.5660668300    56.3627683300
 1882      H    1479.6493496700    84.6345808700    54.5639302200
 1883      H    1481.4783387200    83.7217946000    57.4628663000
 1884      C    1479.3827167800    80.7577539100    55.8240296100
 1885      H    1479.5879700600    79.7861902200    57.6466584600
 1886      H    1477.6178031100    80.0338403700    55.0351114400
 1887      C    1481.3022543900    79.7746858000    53.7863581900
 1888      H    1480.8601649800    80.7200631000    52.0527654800
 1889      H    1483.2802585800    80.1315915800    54.3852381000
 1890      C    1480.9271905100    76.9266028400    53.4559096900
 1891      H    1480.9040387000    76.0051671600    55.2437983000
 1892      H    1479.2234634800    76.8039101400    52.5557787800
 1893      C    1482.8378752400    75.7217372100    51.5260012700
 1894      H    1482.8390300500    76.7074876400    49.7834997800
 1895      H    1484.7857530200    75.7768882900    52.2610942200
 1896      C    1482.0716053000    73.0675649600    51.2456722700
 1897      H    1481.8066827700    72.0898211600    53.0602206500
 1898      H    1480.1845251400    73.0898532400    50.5599934700
 1899      C    1483.7113542700    71.2948182600    49.6365349500
 1900      H    1484.3001811400    72.3383854700    47.9588167300
 1901      H    1485.3878858200    70.9015217500    50.7261789600
 1902      C    1482.2126528700    68.9702281300    48.8118287300
 1903      H    1481.2561110200    67.8579423400    50.3329133100
 1904      H    1480.6591103000    69.6821361400    47.6634844100
 1905      C    1483.8117133900    67.6514578900    46.9970989900
 1906      H    1484.4179066200    68.7868016500    45.4333930000
 1907      H    1485.5386918800    67.1544261700    48.0836999600
 1908      C    1482.6079451400    65.1316851500    46.1725969700
 1909      H    1480.8577334100    65.3133398100    45.1270388100
 1910      H    1482.0143117600    63.9174330000    47.7390727100
 1911      H    1483.7588759300    64.1477605000    44.9207081000
 ----------------------------------------------------------------
 Nuclear Repulsion Energy =           0.00000000 hartrees
 There are       48 alpha and       48 beta electrons
 Total job time:  122.50s(wall), 241.77s(cpu) 
 Wed Jun 22 08:07:43 2022

        *************************************************************
        *                                                           *
        *  Thank you very much for using Q-Chem.  Have a nice day.  *
        *                                                           *
        *************************************************************


