                  Welcome to Q-Chem
     A Quantum Leap Into The Future Of Chemistry


 Q-Chem 5.4 (devel), Q-Chem, Inc., Pleasanton, CA (2021)

 E. Epifanovsky,  A. T. B. Gilbert,  Xintian Feng,  Joonho Lee,  Yuezhi Mao,  
 N. Mardirossian,  P. Pokhilko,  A. White,  M. Wormit,  M. P. Coons,  
 A. L. Dempwolff,  Zhengting Gan,  D. Hait,  P. R. Horn,  L. D. Jacobson,  
 I. Kaliman,  J. Kussmann,  A. W. Lange,  Ka Un Lao,  D. S. Levine,  Jie Liu,  
 S. C. McKenzie,  A. F. Morrison,  K. Nanda,  F. Plasser,  D. R. Rehn,  
 M. L. Vidal,  Zhi-Qiang You,  Ying Zhu,  B. Alam,  B. Albrecht,  
 A. Aldossary,  E. Alguire,  J. H. Andersen,  D. Barton,  K. Begam,  A. Behn,  
 Y. A. Bernard,  E. J. Berquist,  H. Burton,  A. Carreras,  K. Carter-Fenk,  
 R. Chakraborty,  A. D. Chien,  K. D. Closser,  V. Cofer-Shabica,  
 S. Dasgupta,  Jia Deng,  M. de Wergifosse,  M. Diedenhofen,  Hainam Do,  
 S. Ehlert,  Po-Tung Fang,  S. Fatehi,  Qingguo Feng,  T. Friedhoff,  
 J. Gayvert,  Qinghui Ge,  G. Gidofalvi,  M. Goldey,  J. Gomes,  
 C. Gonzalez-Espinoza,  S. Gulania,  A. Gunina,  M. W. D. Hanson-Heine,  
 P. H. P. Harbach,  A. W. Hauser,  M. F. Herbst,  M. Hernandez Vera,  
 M. Hodecker,  Z. C. Holden,  S. Houck,  Xunkun Huang,  Kerwin Hui,  
 B. C. Huynh,  M. Ivanov,  Hyunjun Ji,  Hanjie Jiang,  B. Kaduk,  S. Kaehler,  
 K. Khistyaev,  Jaehoon Kim,  P. Klunzinger,  Z. Koczor-Benda,  
 Joong Hoon Koh,  D. Kosenkov,  L. Koulias,  T. Kowalczyk,  C. M. Krauter,  
 K. Kue,  A. Kunitsa,  T. Kus,  A. Landau,  K. V. Lawler,  D. Lefrancois,  
 S. Lehtola,  Rain Li,  Yi-Pei Li,  Jiashu Liang,  M. Liebenthal,  
 Hung-Hsuan Lin,  You-Sheng Lin,  Fenglai Liu,  Kuan-Yu Liu,  
 M. Loipersberger,  A. Luenser,  A. Manjanath,  P. Manohar,  E. Mansoor,  
 S. F. Manzer,  Shan-Ping Mao,  A. V. Marenich,  T. Markovich,  S. Mason,  
 S. A. Maurer,  P. F. McLaughlin,  M. F. S. J. Menger,  J.-M. Mewes,  
 S. A. Mewes,  P. Morgante,  J. W. Mullinax,  K. J. Oosterbaan,  G. Paran,  
 Alexander C. Paul,  Suranjan K. Paul,  F. Pavosevic,  Zheng Pei,  S. Prager,  
 E. I. Proynov,  E. Ramos,  B. Rana,  A. E. Rask,  A. Rettig,  R. M. Richard,  
 F. Rob,  E. Rossomme,  T. Scheele,  M. Scheurer,  M. Schneider,  
 N. Sergueev,  S. M. Sharada,  W. Skomorowski,  D. W. Small,  C. J. Stein,  
 Yu-Chuan Su,  E. J. Sundstrom,  Zhen Tao,  J. Thirman,  T. Tsuchimochi,  
 N. M. Tubman,  S. P. Veccham,  O. Vydrov,  J. Wenzel,  J. Witte,  A. Yamada,  
 Kun Yao,  S. Yeganeh,  S. R. Yost,  A. Zech,  Igor Ying Zhang,  Xing Zhang,  
 Yu Zhang,  D. Zuev,  A. Aspuru-Guzik,  A. T. Bell,  N. A. Besley,  
 K. B. Bravaya,  B. R. Brooks,  D. Casanova,  Jeng-Da Chai,  S. Coriani,  
 C. J. Cramer,  A. E. DePrince, III,  R. A. DiStasio Jr.,  A. Dreuw,  
 B. D. Dunietz,  T. R. Furlani,  W. A. Goddard III,  S. Grimme,  
 S. Hammes-Schiffer,  T. Head-Gordon,  W. J. Hehre,  Chao-Ping Hsu,  
 T.-C. Jagau,  Yousung Jung,  A. Klamt,  Jing Kong,  D. S. Lambrecht,  
 WanZhen Liang,  N. J. Mayhall,  C. W. McCurdy,  J. B. Neaton,  
 C. Ochsenfeld,  J. A. Parkhill,  R. Peverati,  V. A. Rassolov,  Yihan Shao,  
 L. V. Slipchenko,  T. Stauch,  R. P. Steele,  J. E. Subotnik,  
 A. J. W. Thom,  A. Tkatchenko,  D. G. Truhlar,  T. Van Voorhis,  
 T. A. Wesolowski,  K. B. Whaley,  H. L. Woodcock III,  P. M. Zimmerman,  
 S. Faraji,  P. M. W. Gill,  M. Head-Gordon,  J. M. Herbert,  A. I. Krylov

 Additional authors for Version 5.4.1: 
 S. Kotaru,  Shaozhi Li,  Xiangyuan Li,  F. Matz,  A. Molle,  Haisheng Ren,  
 Yingli Su,  Hung-Yi Tsai,  C. Utku,  Fang Wang

 Contributors to earlier versions of Q-Chem not listed above: 
 R. D. Adamson,  B. Austin,  R. Baer,  J. Baker,  G. J. O. Beran,  
 K. Brandhorst,  S. T. Brown,  E. F. C. Byrd,  A. K. Chakraborty,  
 G. K. L. Chan,  Chun-Min Chang,  Yunqing Chen,  C.-L. Cheng,  
 Siu Hung Chien,  D. M. Chipman,  D. L. Crittenden,  H. Dachsel,  
 R. J. Doerksen,  A. D. Dutoi,  R. G. Edgar,  J. Fosso-Tande,  
 L. Fusti-Molnar,  D. Ghosh,  A. Ghysels,  A. Golubeva-Zadorozhnaya,  
 J. Gonthier,  M. S. Gordon,  S. R. Gwaltney,  G. Hawkins,  J. E. Herr,  
 A. Heyden,  S. Hirata,  E. G. Hohenstein,  G. Kedziora,  F. J. Keil,  
 C. Kelley,  Jihan Kim,  R. A. King,  R. Z. Khaliullin,  P. P. Korambath,  
 W. Kurlancheek,  A. Laurent,  A. M. Lee,  M. S. Lee,  S. V. Levchenko,  
 Ching Yeh Lin,  D. Liotard,  E. Livshits,  R. C. Lochan,  I. Lotan,  
 L. A. Martinez-Martinez,  P. E. Maslen,  N. Nair,  D. P. O'Neill,  
 D. Neuhauser,  E. Neuscamman,  C. M. Oana,  R. Olivares-Amaya,  R. Olson,  
 T. M. Perrine,  B. Peters,  P. A. Pieniazek,  A. Prociuk,  Y. M. Rhee,  
 J. Ritchie,  M. A. Rohrdanz,  E. Rosta,  N. J. Russ,  H. F. Schaefer III,  
 M. W. Schmidt,  N. E. Schultz,  S. Sharma,  N. Shenvi,  C. D. Sherrill,  
 A. C. Simmonett,  A. Sodt,  T. Stein,  D. Stuck,  K. S. Thanthiriwatte,  
 V. Vanovschi,  L. Vogt,  Tao Wang,  A. Warshel,  M. A. Watson,  
 C. F. Williams,  Q. Wu,  X. Xu,  Jun Yang,  W. Zhang,  Yan Zhao

 Please cite Q-Chem as follows:
 Y. Shao et al., Mol. Phys. 113, 184-215 (2015)
 DOI: 10.1080/00268976.2014.952696

 Q-Chem 5.4.1 for Intel X86 EM64T Linux

 Parts of Q-Chem use Armadillo 9.900.5 (Nocturnal Misbehaviour).
 http://arma.sourceforge.net/

 Q-Chem begins on Wed Jun  1 23:30:23 2022  

 Host: p09r14n13.grace.hpc.yale.internal
0

     Scratch files written to /home/tl686/scratch60/qchem_dev/scratch/qchem244631//
 Processing $rem in /home/tl686/qchem_dev/qchem/config/preferences:
 Processing $rem in /home/tl686/.qchemrc:
Applying user defined connections for MM calculations

 Checking the input file for inconsistencies... 	...done.

--------------------------------------------------------------
User input:
--------------------------------------------------------------
$molecule
0   1
 Fe 362.72410772 11.74146729 -40.98909249    -1  0   0   0   0
C 360.13679716 12.71044725 -43.18522088    -2  0   0   0   0 
C 365.95195213 11.76653627 -41.99741280    -2  0   0   0   0
C 363.17106351 14.87535996 -39.70383198    -2  0   0   0   0
C 362.08195586 10.83899381 -37.84394636    -2  0   0   0   0
C 362.46648953 8.58667088 -42.07451653    -2  0   0   0   0
O 358.63341175 13.36688482 -44.53518081    -3  0   0   0   0
O 367.88819831 12.05946715 -42.87364249    -3  0   0   0   0 
O 363.38998227 16.78132379 -38.70854016    -3  0   0   0   0
O 361.72940515 10.17113104 -35.77375661    -3  0   0   0   0 
O 361.98626638 6.68400406 -42.98603023    -3  0   0   0   0
H 351.91104432 36.83281228 -41.93959616      6     13    0    0    0 
C 350.02452352 36.91213545 -42.96986266     1     12    14    15    16
H 349.56600862 38.80812834 -43.10388942     6     13    0    0    0
H 350.17463736 36.16665615 -44.80589578     6     13    0    0    0
C 347.98772331 35.31077698 -41.66312665     2     13    17    18    19
H 347.22762742 36.23090928 -39.91835906     6     16    0    0    0
H 346.11969493 35.44219202 -42.82598797     6     16    0    0    0
C 348.97398249 32.71561074 -41.00072918     2     16    20   21   22
H 350.21088267 31.82878879 -42.41834241     6     19    0    0    0
H 350.30290116 33.03104555 -39.36533371     6     19    0    0    0
C 346.94616751 30.92160187 -39.93078707     2     19   23   24   25
H 345.99467023 32.07435131 -38.41689786     6    22    0    0    0
H 345.41375592 30.38020491 -41.19289362     6    22    0    0    0
C 347.94062364 28.37115278 -38.67702083     2    22   26   27   28
H 348.59996704 27.27747786 -40.29288757     6    25    0    0    0
H 349.53426475 28.77723341 -37.45402943     6    25    0    0    0
C 345.87339156 26.92413258 -37.02586987     2    25   29   30   31
H 345.20660234 28.10325685 -35.45362865     6    28    0    0    0
H 344.23195468 26.76208626 -38.17320673     6    28    0    0    0
C 346.90050736 24.24604994 -36.27771739     2    28   32   33   34
H 346.85225806 23.17087085 -38.01729632     6    31    0    0    0
H 348.81485583 24.04100945 -35.63409256     6    31    0    0    0
C 345.15945178 23.22952119 -34.39185511     2    31   35   36   37
H 345.56295969 24.04634632 -32.57258113     6    34    0    0    0
H 343.16288862 23.80768574 -34.56468682     6    34    0    0    0
C 345.50140516 20.38001975 -33.73425599     2    34   38   39   40
H 345.03867354 19.22204729 -35.33078591     6    37    0    0    0
H 347.42237738 19.80138318 -33.32941727     6    37    0    0    0
C 344.26835816 19.51191528 -31.33593430     2    37   41   42   43
H 345.28641312 20.28727091 -29.69171417     6    40    0    0    0
H 342.20782682 19.95520935 -31.54560853     6    40    0    0    0
C 344.41864193 16.60078586 -31.27505535     2    40   44   45   46
H 344.15871216 15.58346468 -33.03234628     6    43    0    0    0
H 346.34392991 16.13715868 -30.76989891     6    43    0    0    0
C 342.74430970 15.29108065 -29.41670881     1    43   47   48   49
H 342.86906245 16.22842837 -27.68949709     6    46    0    0    0
H 343.34659753 13.45816685 -28.95445964     6    46    0    0    0
H 340.69459508 15.02824213 -29.86653661     6    46    0    0    0
H 352.93838086 8.48036515 -40.42524554     6     51    0    0    0 
C 354.61596673 9.69444919 -40.53473491     1     50    52    53    54
H 356.19607529 8.49895492 -39.93329742     6     51    0    0    0
H 354.81474266 10.15123197 -42.56812132     6     51    0    0    0
C 354.41624378 12.10522814 -38.84406264     2     51    55    56    57
H 355.93298921 13.43012665 -39.29893255     6     54    0    0    0
H 352.71043172 13.02790224 -39.19936115     6     54    0    0    0
C 354.38015933 11.37198784 -36.02210639     2     54    58   59   60
H 355.71525813 9.90735683 -35.62395332     6     57    0    0    0
H 355.21073531 12.89198286 -35.00303063     6     57    0    0    0
C 351.61448817 10.85104132 -34.84447937     2     57   61   62   63
H 350.24584499 12.28967040 -35.26496296     6    60    0    0    0
H 351.03441116 9.22714336 -35.88866149     6    60    0    0    0
C 351.79148298 10.51506308 -31.92864603     2    60   64   65   66
H 353.11729967 8.99518643 -31.34721206     6    63    0    0    0
H 352.43485524 12.30357823 -31.25527512     6    63    0    0    0
C 349.31188032 10.16661133 -30.63362750     2    63   67   68   69
H 349.65852052 10.20191676 -28.67281777     6    66    0    0    0
H 348.20036065 11.73862270 -31.03025438     6    66    0    0    0
C 348.08739552 7.76957449 -31.45185040     2    66   70   71   72
H 348.30343726 7.33765817 -33.49968322     6    69    0    0    0
H 349.00444615 6.16528264 -30.42154211     6    69    0    0    0
C 345.44708614 7.67663875 -30.65220462     2    69   73   74   75
H 345.17211566 8.28845198 -28.74007099     6    72    0    0    0
H 344.44960802 9.18911207 -31.66325997     6    72    0    0    0
C 344.49396540 4.99014795 -31.26787530     2    72   76   77   78
H 344.89690803 4.17390256 -33.15187370     6    75    0    0    0
H 345.43102365 3.87420953 -29.82122593     6    75    0    0    0
C 341.65630491 4.75274168 -30.68497104     2    75   79   80   81
H 341.18634852 5.35660513 -28.72103231     6    78    0    0    0
H 340.95371888 5.94154373 -32.11380940     6    78    0    0    0
C 340.76569850 2.10395259 -31.42355729     2    78   82   83   84
H 340.94600664 1.97486744 -33.39009083     6    81    0    0    0
H 341.93430383 0.56585575 -30.81692813     6    81    0    0    0
C 338.08761699 1.50283836 -30.49691288     1    81   85   86   87
H 337.49639130 -0.24390844 -31.21181893     6    84    0    0    0
H 336.77052875 3.12591935 -31.14714245     6    84    0    0    0
H 338.07488898 1.50592607 -28.48689871     6    84    0    0    0
H 345.11106393 43.42730914 -23.10041751     6     89    0    0    0 
C 343.18840855 43.03382812 -22.28645345     1     88    90    91    92
H 343.20780628 43.32106926 -20.18993984     6     89    0    0    0
H 341.82560045 44.41467331 -23.06994633     6     89    0    0    0
C 342.49960912 40.35748236 -22.84981342     2     89    93    94    95
H 342.70496020 40.10532534 -24.88129761     6     92    0    0    0
H 343.76637488 38.89979023 -22.20473901     6     92    0    0    0
C 339.90301196 39.48229999 -21.78890802     2     92    96   97   98
H 339.92272241 40.04257987 -19.79012582     6     95    0    0    0
H 338.29010633 40.38487554 -22.60748716     6     95    0    0    0
C 339.35922990 36.54543264 -22.13291380     2     95   99   100   101
H 339.88304140 36.07131587 -24.19329628     6    98    0    0    0
H 340.53481701 35.39310111 -20.98134950     6    98    0    0    0
C 336.57231425 35.78899557 -21.61667870     2    98   102   103   104
H 336.28206450 36.58616543 -19.67677618     6    101    0    0    0
H 335.13193837 36.86338442 -22.69306252     6    101    0    0    0
C 336.03901388 32.92225372 -22.01553668     2    101   105   106   107
H 336.78794727 32.59569757 -23.88320841     6    104    0    0    0
H 337.29322951 31.89956598 -20.60780749     6    104    0    0    0
C 333.33205495 31.86433304 -21.88687336     2    104   108   109   110
H 332.42438250 32.29708721 -20.07638912     6    107    0    0    0
H 332.16215245 32.81491220 -23.27650039     6    107    0    0    0
C 333.26090171 29.12419728 -22.59825618     2    107   111   112   113
H 334.46785275 28.82029451 -24.41627937     6    110    0    0    0
H 333.89815301 28.04485146 -20.98317775     6    110    0    0    0
C 330.46260363 28.25036075 -22.76662941     2    110   114   115   116
H 330.07392259 27.50204363 -20.93658850     6    113    0    0    0
H 329.22164950 29.86438744 -23.29547447     6    113    0    0    0
C 330.01074153 25.94691324 -24.41093489     2    113   117   118   119
H 330.08005987 26.38792085 -26.40366618     6    116    0    0    0
H 331.60506727 24.64090564 -24.06705316     6    116    0    0    0
C 327.44020033 24.55613419 -23.76660136     2    116   120   121   122
H 327.51449923 22.92768881 -24.96826037     6    119    0    0    0
H 327.49609021 23.80049654 -21.82689767     6    119    0    0    0
C 324.92134450 26.01035723 -24.10848113     1    119   123   124   125
H 323.33306809 24.64043171 -24.23342874     6    122    0    0    0
H 324.94593589 27.03544959 -25.93680374     6    122    0    0    0
H 324.65739519 27.45444014 -22.72632131     6    122    0    0    0
H 359.77661460 29.00560316 -16.56486037     6     127    0    0    0 
C 360.16137576 28.41619132 -18.52218576     1     126    128    129    130
H 360.38353117 26.42506743 -18.51180026     6     127    0    0    0
H 358.46294690 28.65355717 -19.71442725     6     127    0    0    0
C 362.38315769 29.78732780 -19.78957766     2     127    131    132    133
H 361.73501411 31.44948260 -20.89110127     6     130    0    0    0
H 363.46200809 30.81802426 -18.50001053     6     130    0    0    0
C 364.00264943 27.77723434 -21.08456621     2     130    134   135   136
H 364.45968676 26.18752030 -19.65565649     6     133    0    0    0
H 362.99146740 26.93936045 -22.58426830     6     133    0    0    0
C 366.50502941 29.02889424 -22.19489418     2     133   137   138   139
H 365.94826593 30.45522165 -23.42709152     6    136    0    0    0
H 367.54841051 30.10892919 -20.68458459     6    136    0    0    0
C 368.12710889 27.23457122 -23.79710246     2    136   140   141   142
H 368.88068692 25.65749612 -22.76491610     6    139    0    0    0
H 367.02094128 26.38739227 -25.42317453     6    139    0    0    0
C 370.51254464 28.53198729 -24.79322816     2    139   143   144   145
H 369.96299853 30.45191741 -25.68585090     6    142    0    0    0
H 371.71530066 29.01891236 -23.11348984     6    142    0    0    0
C 371.88777831 26.86747242 -26.71961641     2    142   146   147   148
H 372.26483051 25.13988836 -25.70120483     6    145    0    0    0
H 370.51897740 26.29637566 -28.27681441     6    145    0    0    0
C 374.31053178 27.95762603 -27.78139837     2    145   149   150   151
H 374.02710000 29.50990010 -29.00239151     6    148    0    0    0
H 375.87597589 28.49858916 -26.42516036     6    148    0    0    0
C 375.66720746 25.94630248 -29.54183309     2    148   152   153   154
H 375.93218358 24.06761731 -28.64996708     6    151    0    0    0
H 374.27556295 25.65823082 -30.98225060     6    151    0    0    0
C 378.04764519 26.81761778 -30.79278904     2    151   155   156   157
H 377.92051282 28.45659239 -32.03460560     6    154    0    0    0
H 379.47030709 27.35809162 -29.36176353     6    154    0    0    0
C 378.99073396 24.84527291 -32.64969141     2    154   158   159   160
H 379.23987160 22.96287564 -31.73384814     6    157    0    0    0
H 377.73454288 24.50777300 -34.22122954     6    157    0    0    0
C 381.54918198 25.66619172 -33.82781867     1    157   161   162   163
H 382.43638952 24.30278561 -35.17960795     6    160    0    0    0
H 382.94996811 25.77267059 -32.37900906     6    160    0    0    0
H 381.35385465 27.51902423 -34.82110617     6    160    0    0    0
H 350.16795193 17.60560268 -4.26898379     6     165    0    0    0 
C 352.09617027 18.03787959 -4.61680853     1     164    166    167    168
H 352.72894106 18.63234555 -2.76887531     6     165    0    0    0
H 353.15773858 16.36688567 -5.18015562     6     165    0    0    0
C 352.27969786 20.14814490 -6.61385124     2     165    169    170    171
H 351.26749176 19.73378906 -8.36185243     6     168    0    0    0
H 351.53305376 21.98015876 -5.83219383     6     168    0    0    0
C 355.09640981 20.64609591 -7.15113733     2     168    172   173   174
H 356.15885693 20.90164648 -5.43350923     6     171    0    0    0
H 355.96503277 18.96764501 -7.81742693     6     171    0    0    0
C 355.60469773 22.78533548 -8.94617207     2     171   175   176   177
H 354.56188398 22.43890533 -10.77807824     6    174    0    0    0
H 355.30556656 24.70018570 -8.07491257     6    174    0    0    0
C 358.43281240 22.92177295 -9.46174621     2    174   178   179   180
H 359.54341499 22.40021460 -7.69074827     6    177    0    0    0
H 358.80429403 21.79855245 -11.13270978     6    177    0    0    0
C 359.35848023 25.61572522 -10.37291181     2    177   181   182   183
H 358.04306766 26.10242750 -11.89763082     6    180    0    0    0
H 359.00864153 27.12014745 -9.13665671     6    180    0    0    0
C 362.19013189 25.64550566 -11.23828172     2    180   184   185   186
H 363.49957361 24.58607799 -10.06746189     6    183    0    0    0
H 362.08000008 24.50235448 -13.02302374     6    183    0    0    0
C 363.52630078 28.18380323 -11.80243091     2    183   187   188   189
H 362.70801630 29.65445725 -12.93362481     6    186    0    0    0
H 364.18662269 29.23318059 -10.07054784     6    186    0    0    0
C 366.10359097 27.51249622 -13.04184805     2    186   190   191   192
H 367.06948914 25.91624640 -12.11508376     6    189    0    0    0
H 365.81250505 26.90161611 -15.05257509     6    189    0    0    0
C 368.10276633 29.53940850 -13.05899535     2    189   193   194   195
H 367.25485969 31.40905030 -12.93784585     6    192    0    0    0
H 369.24912600 29.59675296 -11.34673756     6    192    0    0    0
C 369.96245548 29.08475609 -15.14946642     2    192   196   197   198
H 371.16225256 27.36211080 -15.05242015     6    195    0    0    0
H 368.85243777 28.76144891 -16.94383975     6    195    0    0    0
C 371.92432037 31.04995902 -15.53099880     1    195   199   200   201
H 372.99248477 31.21084158 -13.76749217     6    198    0    0    0
H 371.20838352 32.97312322 -15.91163992     6    198    0    0    0
H 373.21701453 30.45806698 -16.88326715     6    198    0    0    0
H 360.65609345 10.91319893 -6.22794306     6     203    0    0    0 
C 359.46775215 10.79334605 -4.45522751     1     202    204    205    206
H 359.82187461 9.13710241 -3.31607394     6     203    0    0    0
H 360.18800946 12.24194798 -3.13472327     6     203    0    0    0
C 356.62147130 11.17313343 -4.93540886     2     203    207    208    209
H 355.87708748 11.11746023 -2.99451398     6     206    0    0    0
H 356.32605464 13.09570718 -5.67665772     6     206    0    0    0
C 355.28996892 9.47146650 -6.99110623     2     206    210   211   212
H 353.42093422 10.15133439 -7.43932406     6     209    0    0    0
H 356.37384086 9.61981980 -8.76010697     6     209    0    0    0
C 355.38079403 6.69812774 -6.09782849     2     209   213   214   215
H 357.40877790 6.29542817 -5.93901866     6    212    0    0    0
H 354.71179472 6.59177012 -4.19308404     6    212    0    0    0
C 353.92991881 4.48966136 -7.41564348     2    212   216   217   218
H 351.97873795 5.21577186 -7.74816284     6    215    0    0    0
H 354.57580541 4.37540502 -9.43234454     6    215    0    0    0
C 354.04385456 2.16559898 -5.99627006     2    215   219   220   221
H 355.94157522 1.82264958 -5.18384981     6    218    0    0    0
H 352.80360166 2.37922465 -4.51599953     6    218    0    0    0
C 353.40508076 -0.16690172 -7.56361079     2    218   222   223   224
H 351.23454825 -0.41043777 -7.61530378     6    221    0    0    0
H 354.16066382 0.01712995 -9.48783988     6    221    0    0    0
C 354.54451408 -2.50099625 -6.30815204     2    221   225   226   227
H 356.59576913 -2.45682523 -6.45356762     6    224    0    0    0
H 354.10656457 -2.52527325 -4.29007512     6    224    0    0    0
C 353.35701300 -4.79510648 -7.56141485     2    224   228   229   230
H 351.25690061 -4.56358877 -7.55575611     6    227    0    0    0
H 353.95549435 -5.05762387 -9.56387953     6    227    0    0    0
C 354.23654748 -7.06234891 -6.07668460     2    227   231   232   233
H 356.32034139 -7.33711866 -6.07051582     6    230    0    0    0
H 353.74360953 -6.84872076 -4.07982614     6    230    0    0    0
C 353.33512109 -9.63424458 -6.99756844     2    230   234   235   236
H 353.30185132 -9.88453091 -9.10096839     6    233    0    0    0
H 354.51895217 -11.18908944 -6.05067644     6    233    0    0    0
C 350.54707170 -10.31045297 -6.07789108     1    233   237   238   239
H 350.13896075 -12.32014075 -6.33168304     6    236    0    0    0
H 349.50297689 -8.91372182 -7.05602514     6    236    0    0    0
H 350.22151513 -9.91859618 -4.07549087     6    236    0    0    0
H 337.39594957 8.95397316 -32.48614298     6     241    0    0    0 
C 338.38475348 10.40882512 -31.45214685     1     240    242    243    244
H 340.25566762 9.78638302 -31.18978945     6     241    0    0    0
H 338.50644331 12.06875174 -32.53407171     6     241    0    0    0
C 337.18002276 10.55603436 -28.76125224     2     241    245    246    247
H 337.58706085 8.82956672 -27.64777557     6     244    0    0    0
H 338.09874368 11.97516479 -27.72110747     6     244    0    0    0
C 334.34630203 11.39875988 -28.83620523     2     244    248   249   250
H 333.92271139 12.19505344 -27.03083672     6     247    0    0    0
H 334.08697625 12.88737304 -30.15908108     6     247    0    0    0
C 332.25691636 9.39139453 -29.58848206     2     247   251   252   253
H 330.35249035 10.27332170 -29.28689381     6    250    0    0    0
H 332.33747544 8.68867682 -31.52526261     6    250    0    0    0
C 332.55148254 7.12215711 -27.88275702     2    250   254   255   256
H 334.34174891 6.40205022 -28.74259627     6    253    0    0    0
H 333.00944562 7.82166225 -25.92835243     6    253    0    0    0
C 330.56143895 5.08995881 -28.06922712     2    253   257   258   259
H 330.68192618 3.93855339 -26.39567421     6    256    0    0    0
H 328.69023118 5.77076113 -28.07419035     6    256    0    0    0
C 330.83116014 3.19990195 -30.23195849     2    256   260   261   262
H 330.41150186 4.13933366 -31.99185133     6    259    0    0    0
H 332.71701760 2.49332654 -30.35642981     6    259    0    0    0
C 329.12233527 0.93416897 -29.91851414     2    259   263   264   265
H 329.96132995 0.01451893 -28.12244822     6    262    0    0    0
H 327.22430055 1.56411817 -29.47503102     6    262    0    0    0
C 329.09180607 -1.31264836 -31.77592037     2    262   266   267   268
H 327.88448933 -2.66749016 -30.82771149     6    265    0    0    0
H 327.93642904 -1.01230606 -33.49789858     6    265    0    0    0
C 331.67648997 -2.38885461 -32.59358988     2    265   269   270   271
H 333.07344884 -0.82906271 -33.26231423     6    268    0    0    0
H 332.70805379 -3.20676858 -30.98224803     6    268    0    0    0
C 331.20256908 -4.30858395 -34.74712630     2    268   272   273   274
H 329.90634032 -5.78144894 -34.13303006     6    271    0    0    0
H 330.15665642 -3.18714390 -36.05341639     6    271    0    0    0
C 333.64188227 -5.39802128 -35.82395840     1    271   275   276   277
H 335.36824115 -4.05107907 -35.85491726     6    274    0    0    0
H 333.17510675 -6.15262054 -37.65087660     6    274    0    0    0
H 334.43221431 -6.99371141 -34.74432486     6    274    0    0    0
H 345.69030183 29.47865447 -8.47096110     6     279    0    0    0 
C 344.89306926 27.63529093 -8.28794533     1     278    280    281    282
H 345.14672601 26.80672952 -6.31960913     6     279    0    0    0
H 342.96122240 27.93961006 -8.62779621     6     279    0    0    0
C 345.97437160 25.60494806 -10.14148326     2     279    283    284    285
H 345.53097614 26.38043793 -11.97403066     6     282    0    0    0
H 347.86841833 25.65700416 -10.01563375     6     282    0    0    0
C 345.07306620 22.72364100 -10.09482937     2     282    286   287   288
H 345.18536103 22.07535170 -8.08862847     6     285    0    0    0
H 343.10172641 22.63532629 -10.85790484     6     285    0    0    0
C 346.85350300 21.03770751 -11.49371273     2     285   289   290   291
H 346.46083076 21.43238720 -13.46741471     6    288    0    0    0
H 348.81130730 21.68494519 -11.31025784     6    288    0    0    0
C 346.44790848 18.25005851 -11.18560853     2    288   292   293   294
H 346.47813732 18.00146617 -9.07108449     6    291    0    0    0
H 344.62280707 17.84356621 -11.88883248     6    291    0    0    0
C 348.51649499 16.43570209 -12.41045508     2    291   295   296   297
H 348.75353306 16.93775495 -14.31342036     6    294    0    0    0
H 350.28946532 17.01931009 -11.59865866     6    294    0    0    0
C 347.82156813 13.71855097 -12.41128495     2    294   298   299   300
H 347.21885666 13.25256683 -10.54182019     6    297    0    0    0
H 346.26360928 13.44879853 -13.59315229     6    297    0    0    0
C 349.87294586 11.99834314 -13.36272364     2    297   301   302   303
H 350.12887434 12.36001931 -15.35347166     6    300    0    0    0
H 351.69457283 12.12560910 -12.44171400     6    300    0    0    0
C 349.04266687 9.10203440 -12.95733258     2    300   304   305   306
H 348.56971138 8.75423330 -10.93619716     6    303    0    0    0
H 347.18517113 8.91771941 -13.95360148     6    303    0    0    0
C 350.83795903 6.99382315 -13.91584781     2    303   307   308   309
H 351.74537050 7.83657641 -15.61064302     6    306    0    0    0
H 352.48816440 6.81850652 -12.59565465     6    306    0    0    0
C 349.50385491 4.48369495 -14.80162209     2    306   310   311   312
H 348.51789696 3.31440224 -13.35211738     6    309    0    0    0
H 348.00491137 4.88831697 -16.10049440     6    309    0    0    0
C 351.13995849 2.74215848 -16.33172604     1    309   313   314   315
H 352.84929114 2.18632126 -15.38184694     6    312    0    0    0
H 352.01469439 3.63990550 -17.95629724     6    312    0    0    0
H 350.24859107 0.98611270 -16.91876055     6    312    0    0    0
H 353.60393349 34.21561951 -23.65102947     6     317    0    0    0 
C 354.20152180 32.31874001 -24.02690243     1     316    318    319    320
H 354.08651256 31.38413616 -22.12753457     6     317    0    0    0
H 352.91637443 31.53669962 -25.40641114     6     317    0    0    0
C 356.86722870 31.95059002 -25.25053948     2     317    321    322    323
H 357.02642111 32.98728739 -27.00643494     6     320    0    0    0
H 358.46528964 32.48138513 -24.12027367     6     320    0    0    0
C 357.20146512 29.17666296 -25.94869898     2     320    324   325   326
H 357.30873066 28.08977088 -24.17933607     6     323    0    0    0
H 355.55645763 28.50205538 -26.77787456     6     323    0    0    0
C 359.34322515 28.64257653 -27.70488693     2     323   327   328   329
H 358.76684304 29.07766169 -29.59841762     6    326    0    0    0
H 361.02745470 29.62867872 -27.20955371     6    326    0    0    0
C 359.93001709 25.77320476 -28.01664921     2    326   330   331   332
H 360.35844712 24.92013148 -26.16537477     6    329    0    0    0
H 358.62150417 24.44530602 -28.89254394     6    329    0    0    0
C 362.05756811 25.51718680 -29.85860729     2    329   333   334   335
H 363.61177503 26.61350518 -28.82759527     6    332    0    0    0
H 362.88089937 23.55191068 -30.07474113     6    332    0    0    0
C 361.51036749 26.29651712 -32.54743339     2    332   336   337   338
H 360.13629549 25.06557647 -33.45869273     6    335    0    0    0
H 360.73775396 28.18672683 -32.62668156     6    335    0    0    0
C 363.82775046 26.54047714 -34.25154617     2    335   339   340   341
H 363.40620383 28.10518550 -35.47525050     6    338    0    0    0
H 365.35295110 27.12056229 -32.96329316     6    338    0    0    0
C 364.46177649 24.10056902 -35.55958465     2    338   342   343   344
H 364.38318792 22.42469316 -34.37530387     6    341    0    0    0
H 362.81608920 23.53819984 -36.68833790     6    341    0    0    0
C 366.90642821 24.05911575 -37.11782555     2    341   345   346   347
H 366.60618178 22.36990126 -37.96887378     6    344    0    0    0
H 367.00033633 25.53254416 -38.39693847     6    344    0    0    0
C 369.22032234 23.71333179 -35.36532046     2    344   348   349   350
H 368.89787394 24.68555058 -33.57116673     6    347    0    0    0
H 369.57247063 21.66508316 -34.86891619     6    347    0    0    0
C 371.70003917 24.78286422 -36.38878569     1    347   351   352   353
H 373.18564844 24.10956114 -35.29807377     6    350    0    0    0
H 371.73101071 26.89692292 -36.43664494     6    350    0    0    0
H 372.01250051 24.33796880 -38.33432404     6    350    0    0    0
H 337.82926308 4.91512060 -21.45756910     6     355    0    0    0 
C 338.34812432 6.59580554 -22.36750492     1     354    356    357    358
H 339.62180153 6.27752119 -23.76537841     6     355    0    0    0
H 336.57261399 7.23379899 -23.20293126     6     355    0    0    0
C 339.27127904 8.45155300 -20.29982123     2     355    359    360    361
H 337.65952374 8.63037070 -19.08196273     6     358    0    0    0
H 340.86762335 7.61099037 -19.37117433     6     358    0    0    0
C 340.15950604 11.03314830 -21.57393585     2     358    362   363   364
H 341.14467904 10.79202259 -23.38891480     6     361    0    0    0
H 338.59880061 12.26358351 -22.02597026     6     361    0    0    0
C 342.05278694 12.57959329 -20.02492304     2     361   365   366   367
H 341.14112414 13.34359676 -18.41881594     6    364    0    0    0
H 343.59044597 11.44742912 -19.18960486     6    364    0    0    0
C 343.15039588 14.79997989 -21.47281567     2    364   368   369   370
H 344.63321961 14.23834095 -22.70870575     6    367    0    0    0
H 341.61155874 15.62056924 -22.62416682     6    367    0    0    0
C 344.23287240 17.13227434 -20.01397986     2    367   371   372   373
H 342.94576276 17.87339010 -18.58409439     6    370    0    0    0
H 345.83314793 16.48960325 -18.87815047     6    370    0    0    0
C 345.14442832 19.18062805 -21.70975453     2    370   374   375   376
H 346.71051201 18.51823797 -22.94867570     6    373    0    0    0
H 343.66821401 19.76421024 -23.09107653     6    373    0    0    0
C 346.14512162 21.59475352 -20.17962534     2    373   377   378   379
H 344.50304386 22.44561406 -19.12776578     6    376    0    0    0
H 347.38213363 20.67196062 -18.80979025     6    376    0    0    0
C 347.37089135 23.62884843 -21.62610482     2    376   380   381   382
H 348.64697092 22.48858592 -22.86426928     6    379    0    0    0
H 346.11077624 24.61526140 -23.06062834     6    379    0    0    0
C 348.76302088 25.61778259 -19.93772002     2    379   383   384   385
H 347.58800387 25.52261232 -18.12127242     6    382    0    0    0
H 350.53700925 24.84750308 -19.67069512     6    382    0    0    0
C 348.96907429 28.22192793 -20.86165670     2    382   386   387   388
H 350.43067570 29.20963855 -19.77890479     6    385    0    0    0
H 349.69272041 27.89868683 -22.75973109     6    385    0    0    0
C 346.46183705 29.76322051 -20.96501225     1    385   389   390   391
H 345.77638823 30.38086790 -19.08076024     6    388    0    0    0
H 345.04127622 28.35979712 -21.54171057     6    388    0    0    0
H 346.53869865 31.46006581 -22.05724102     6    388    0    0    0
H 378.41048113 18.52107553 -62.62870832     6     393    0    0    0 
C 377.30285886 17.04818087 -61.59788688     1     392    394    395    396
H 376.92395622 15.62376196 -62.99073121     6     393    0    0    0
H 378.40034665 16.37213187 -59.98038257     6     393    0    0    0
C 374.89529943 17.86645336 -60.51856198     2     393    397    398    399
H 375.34251094 19.17751507 -58.98853247     6     396    0    0    0
H 373.92354687 19.06175043 -61.89376611     6     396    0    0    0
C 373.60416061 15.56586974 -59.49174571     2     396    400   401   402
H 373.41139362 13.94339694 -60.75538931     6     399    0    0    0
H 374.73516181 14.89449508 -57.87328651     6     399    0    0    0
C 371.04592491 16.11327348 -58.29180380     2     399   403   404   405
H 371.11205124 17.06054023 -56.44653104     6    402    0    0    0
H 370.02110349 17.44986675 -59.52528535     6    402    0    0    0
C 369.23494949 13.77025350 -58.17725244     2    402   406   407   408
H 368.95966682 13.18913235 -60.13700047     6    405    0    0    0
H 370.17268100 12.10000692 -57.37506841     6    405    0    0    0
C 366.68093234 14.20066832 -56.88395888     2    405   409   410   411
H 366.93236441 14.94547910 -55.00690909     6    408    0    0    0
H 365.39017257 15.46063619 -57.96182035     6    408    0    0    0
C 365.16911918 11.55730893 -56.87210122     2    408   412   413   414
H 365.19231094 11.01338148 -58.87399248     6    411    0    0    0
H 366.16318049 9.99585419 -55.96410076     6    411    0    0    0
C 362.43144646 11.71934666 -56.15720522     2    411   415   416   417
H 362.12045763 12.18527677 -54.23246716     6    414    0    0    0
H 361.76891625 13.37158980 -57.17073096     6    414    0    0    0
C 361.00531825 9.35415784 -56.93512836     2    414   418   419   420
H 361.42414933 9.02468570 -58.83768271     6    417    0    0    0
H 361.88436944 7.85946937 -55.83671302     6    417    0    0    0
C 358.10368171 9.38046347 -56.27414284     2    417   421   422   423
H 357.70334903 9.78398814 -54.28633024     6    420    0    0    0
H 357.01004227 10.88248167 -57.40601106     6    420    0    0    0
C 356.75297667 6.89959302 -56.87553664     2    420   424   425   426
H 354.73518219 6.98262664 -56.46292386     6    423    0    0    0
H 356.41046012 6.80298337 -58.97030483     6    423    0    0    0
C 357.76037537 4.35927075 -55.89609208     1    423   427   428   429
H 356.67189536 3.01729132 -57.11634556     6    426    0    0    0
H 357.61693560 4.13818289 -53.91614346     6    426    0    0    0
H 359.66764551 3.93078823 -56.53309939     6    426    0    0    0
H 344.37426626 18.10930041 -53.10844746     6     431    0    0    0 
C 344.68777032 18.89426332 -54.93038207     1     430    432    433    434
H 343.95363638 17.40639923 -56.13315280     6     431    0    0    0
H 343.40066566 20.35326276 -55.60352455     6     431    0    0    0
C 347.53381637 19.56476718 -55.43730946     2     431    435    436    437
H 348.37638072 20.67145344 -53.89709738     6     434    0    0    0
H 348.58381488 17.83897331 -55.52053619     6     434    0    0    0
C 348.06935611 21.08007090 -57.80643543     2     434    438   439   440
H 347.21353112 20.53733376 -59.49835235     6     437    0    0    0
H 347.44500990 23.07816598 -57.24757352     6     437    0    0    0
C 350.95036541 21.31999484 -58.32261843     2     437   441   442   443
H 351.33743604 22.76450352 -59.84344131     6    440    0    0    0
H 351.87406444 22.07898582 -56.66457490     6    440    0    0    0
C 352.29744444 18.88121202 -59.29224410     2    440   444   445   446
H 352.53798616 17.67649575 -57.68206718     6    443    0    0    0
H 350.92099909 17.79592761 -60.51505138     6    443    0    0    0
C 354.88341687 19.41039905 -60.61113876     2    443   447   448   449
H 354.83750645 20.91025240 -61.91050863     6    446    0    0    0
H 355.99422915 20.15313881 -59.13209516     6    446    0    0    0
C 356.35239994 17.11480610 -61.77404397     2    446   450   451   452
H 356.06005881 15.42852518 -60.65219780     6    449    0    0    0
H 355.80010999 16.68513812 -63.68924921     6    449    0    0    0
C 359.22525382 17.62789414 -61.94821577     2    449   453   454   455
H 359.61077206 19.18945540 -63.20247785     6    452    0    0    0
H 359.90685823 18.30130539 -60.20471149     6    452    0    0    0
C 360.76965060 15.45150782 -63.02915990     2    452   456   457   458
H 361.06954503 13.78866639 -61.74966322     6    455    0    0    0
H 359.70458040 14.87252034 -64.73296365     6    455    0    0    0
C 363.42790847 16.23006775 -64.07213371     2    455   459   460   461
H 363.15575147 17.52591245 -65.71444038     6    458    0    0    0
H 364.66041905 17.39259145 -62.88934834     6    458    0    0    0
C 364.85491934 13.86095087 -64.98187304     2    458   462   463   464
H 364.85641761 12.55370047 -63.44112348     6    461    0    0    0
H 364.02262446 12.91894981 -66.45204544     6    461    0    0    0
C 367.57228516 14.39956844 -65.71705758     1    461   465   466   467
H 368.47696677 15.53820103 -64.39208041     6    464    0    0    0
H 367.64637401 15.58200366 -67.46119430     6    464    0    0    0
H 368.56562708 12.58680501 -66.21687284     6    464    0    0    0
H 340.99381767 28.41650924 -18.53996669     6     469    0    0    0 
C 340.50008453 27.89035359 -16.65583365     1     468    470    471    472
H 342.13176745 26.79050025 -15.90014968     6     469    0    0    0
H 340.36984721 29.44159996 -15.46909253     6     469    0    0    0
C 338.17585837 26.16853107 -16.48489282     2     469    473    474    475
H 337.98646597 25.64045571 -14.48201287     6     472    0    0    0
H 336.53455725 27.33720703 -16.87804499     6     472    0    0    0
C 338.41978053 23.81935173 -18.18962255     2     472    476   477   478
H 338.04554124 24.48528344 -20.18705720     6     475    0    0    0
H 340.38718964 23.03158450 -18.27086308     6     475    0    0    0
C 336.55431593 21.86087031 -17.22777281     2     475   479   480   481
H 336.95322348 21.09826741 -15.37073869     6    478    0    0    0
H 334.90832723 22.97419018 -16.77873398     6    478    0    0    0
C 335.88378361 19.74241617 -19.09928839     2    478   482   483   484
H 335.79060940 20.50719728 -21.06435668     6    481    0    0    0
H 337.31413937 18.24895844 -18.98833515     6    481    0    0    0
C 333.61079090 18.07849361 -18.17428758     2    481   485   486   487
H 334.20929544 17.01577312 -16.50847613     6    484    0    0    0
H 331.96898206 19.14074579 -17.50757175     6    484    0    0    0
C 332.81136421 16.15393942 -20.32130420     2    484   488   489   490
H 331.60147136 17.08224537 -21.76603503     6    487    0    0    0
H 334.56445036 15.70420975 -21.33481278     6    487    0    0    0
C 331.62962560 13.66185170 -19.42423020     2    487   491   492   493
H 332.93714973 12.66325707 -18.30729160     6    490    0    0    0
H 330.01748175 14.08516953 -18.23525062     6    490    0    0    0
C 330.76215044 12.00156478 -21.56902182     2    490   494   495   496
H 330.27727108 13.04744829 -23.23246185     6    493    0    0    0
H 332.27870277 10.69188639 -22.02148562     6    493    0    0    0
C 328.18534024 10.85439902 -20.99484530     2    493   497   498   499
H 328.13282971 9.79023625 -19.25922114     6    496    0    0    0
H 326.82709372 12.47004256 -20.64798808     6    496    0    0    0
C 327.29585481 9.03886385 -23.12862420     2    496   500   501   502
H 326.81208818 10.43136784 -24.68202074     6    499    0    0    0
H 328.99117487 7.82786050 -23.52733724     6    499    0    0    0
C 324.80482121 7.53655717 -22.63043321     1    499   503   504   505
H 324.74237407 6.51780778 -20.74487660     6    502    0    0    0
H 324.27093123 6.06447462 -23.98776091     6    502    0    0    0
H 323.33830339 9.02846226 -22.74955176     6    502    0    0    0
H 322.37471316 4.06487148 -43.67570579     6     507    0    0    0 
C 324.16106654 3.79499510 -42.61896715     1     506    508    509    510
H 324.46656863 5.27377780 -41.23432002     6     507    0    0    0
H 324.53459839 2.05647164 -41.73410873     6     507    0    0    0
C 326.19075855 3.92496834 -44.65282526     2     507    511    512    513
H 326.16178356 2.22743748 -45.86171974     6     510    0    0    0
H 325.77283904 5.49707751 -45.90470451     6     510    0    0    0
C 329.00020946 4.63706407 -43.82253649     2     510    514   515   516
H 329.01655379 6.47742441 -43.02387545     6     513    0    0    0
H 329.70924335 3.55388813 -42.09900633     6     513    0    0    0
C 330.97682291 4.44827623 -46.09270867     2     513   517   518   519
H 331.05191217 2.38459620 -46.72994856     6    516    0    0    0
H 330.13769421 5.31104069 -47.84390429     6    516    0    0    0
C 333.74976755 5.26584400 -45.63193665     2    516   520   521   522
H 334.06940844 7.06111519 -44.84830591     6    519    0    0    0
H 334.40322976 4.20974390 -43.94879171     6    519    0    0    0
C 335.31847821 5.02803685 -48.03592142     2    519   523   524   525
H 335.26650901 3.16045926 -48.70297009     6    522    0    0    0
H 334.23165857 6.10530048 -49.54925020     6    522    0    0    0
C 338.00719905 5.89729440 -47.92243974     2    522   526   527   528
H 338.26463953 7.56856973 -46.81346496     6    525    0    0    0
H 338.87895439 4.49214269 -46.68197226     6    525    0    0    0
C 339.32894847 6.30402565 -50.52990096     2    525   529   530   531
H 339.30635874 4.52842622 -51.55637057     6    528    0    0    0
H 338.28613194 7.65479464 -51.51519832     6    528    0    0    0
C 342.25927893 7.01996822 -50.21454610     2    528   532   533   534
H 342.53477825 8.53930035 -48.92453610     6    531    0    0    0
H 343.26776398 5.61550411 -49.14450016     6    531    0    0    0
C 343.59872663 7.58362069 -52.75410514     2    531   535   536   537
H 344.08631316 5.88399911 -53.64896905     6    534    0    0    0
H 342.54406237 8.85727158 -54.00014421     6    534    0    0    0
C 346.13302454 8.72245924 -52.46149754     2    534   538   539   540
H 345.79639992 10.53493696 -51.51884678     6    537    0    0    0
H 347.06334156 7.51654278 -51.18879870     6    537    0    0    0
C 347.60374915 8.85626489 -55.00248383     1    537   541   542   543
H 349.52969009 9.62929911 -54.90977758     6    540    0    0    0
H 346.47118707 9.95306874 -56.32628091     6    540    0    0    0
H 347.84226723 6.96120367 -55.77702707     6    540    0    0    0
H 365.12638447 16.44862727 -45.52461438     6     545    0    0    0 
C 364.71764864 18.40272054 -45.58623781     1     544    546    547    548
H 363.46638252 18.64574868 -47.13034874     6     545    0    0    0
H 363.32720998 18.76842816 -44.01662901     6     545    0    0    0
C 366.79785504 20.41329407 -45.47411529     2     545    549    550    551
H 367.07142070 21.01012074 -47.49277356     6     548    0    0    0
H 366.38750151 22.17545131 -44.44901683     6     548    0    0    0
C 369.33336726 19.25157691 -44.26103600     2     548    552   553   554
H 369.52307626 19.32487719 -42.25048169     6     551    0    0    0
H 369.34782394 17.15378669 -44.70884603     6     551    0    0    0
C 371.73156400 20.22617606 -45.63227556     2     551   555   556   557
H 371.54185244 20.24543001 -47.63243547     6    554    0    0    0
H 371.90094424 22.21952563 -45.26305418     6    554    0    0    0
C 374.21465235 18.76199370 -44.90561862     2    554   558   559   560
H 374.16325041 16.81963633 -45.78511122     6    557    0    0    0
H 375.69221555 19.81848536 -45.85898646     6    557    0    0    0
C 374.86719621 18.61228704 -41.99394216     2    557   561   562   563
H 374.37541776 20.39959614 -41.02835489     6    560    0    0    0
H 373.62619303 17.10996606 -41.27060873     6    560    0    0    0
C 377.66084856 18.14622625 -41.35550257     2    560   564   565   566
H 378.47192327 16.80152865 -42.54601110     6    563    0    0    0
H 378.73078172 19.70197029 -42.06917771     6    563    0    0    0
C 378.22365639 17.72210927 -38.47873150     2    563   567   568   569
H 377.31386797 19.14987994 -37.35489183     6    566    0    0    0
H 377.22544037 15.99919706 -37.93947276     6    566    0    0    0
C 380.97460561 17.12925143 -37.69444045     2    566   570   571   572
H 381.11520178 15.08152994 -37.75418821     6    569    0    0    0
H 382.50506363 17.89620674 -38.88195237     6    569    0    0    0
C 381.49087966 18.27866271 -35.02337479     2    569   573   574   575
H 381.40041733 20.28066980 -35.29942235     6    572    0    0    0
H 380.20151539 17.90616515 -33.58937366     6    572    0    0    0
C 384.21924289 17.93747168 -34.05342490     2    572   576   577   578
H 385.41575140 18.66327076 -35.41493378     6    575    0    0    0
H 384.59268874 18.98818627 -32.24033236     6    575    0    0    0
C 384.86544392 15.26277393 -33.48255566     1    575   579   580   581
H 383.75176170 14.13363671 -32.19198851     6    578    0    0    0
H 386.73587355 15.12142222 -32.77160126     6    578    0    0    0
H 384.87888735 13.99974185 -35.12966116     6    578    0    0    0
H 356.41449746 12.61527493 -14.43573901     6     583    0    0    0 
C 355.69896752 14.48298498 -13.85054307     1     582    584    585    586
H 353.93004307 14.58483880 -14.82161296     6     583    0    0    0
H 355.45553009 14.29673905 -11.76931780     6     583    0    0    0
C 357.34255392 16.94427679 -14.53248049     2     583    587    588    589
H 357.14372778 16.93457347 -16.54127101     6     586    0    0    0
H 356.33453650 18.57454737 -13.65225343     6     586    0    0    0
C 360.11583911 16.97583768 -13.72527068     2     586    590   591   592
H 360.16213284 17.55160001 -11.73758733     6     589    0    0    0
H 361.12074857 15.19026286 -13.89933864     6     589    0    0    0
C 361.36774483 19.09219793 -15.42179704     2     589   593   594   595
H 361.16410988 18.79913339 -17.34751101     6    592    0    0    0
H 360.42443142 21.05502862 -15.07282006     6    592    0    0    0
C 364.09117879 19.56510914 -14.81764057     2    592   596   597   598
H 364.12403695 20.60945623 -13.04869734     6    595    0    0    0
H 365.05349699 17.85250497 -14.37166384     6    595    0    0    0
C 365.65592314 21.06486430 -16.64128953     2    595   599   600   601
H 365.23540618 20.51799306 -18.67278277     6    598    0    0    0
H 365.05523257 22.89805758 -16.48010267     6    598    0    0    0
C 368.59158967 20.70585309 -16.54826410     2    598   602   603   604
H 369.28008568 21.27337979 -14.65785969     6    601    0    0    0
H 368.96568705 18.75621388 -17.13371283     6    601    0    0    0
C 369.94300043 22.31612330 -18.51243086     2    601   605   606   607
H 369.04778722 21.96661222 -20.26456733     6    604    0    0    0
H 369.70794312 24.40036022 -18.40136492     6    604    0    0    0
C 372.83299668 21.74679763 -18.49487319     2    604   608   609   610
H 373.50726387 22.00818969 -16.55660959     6    607    0    0    0
H 373.33943458 19.78935980 -18.60033240     6    607    0    0    0
C 374.04526140 23.38296084 -20.63075557     2    607   611   612   613
H 373.57510460 22.91712980 -22.67267499     6    610    0    0    0
H 373.49404594 25.36370255 -20.48641774     6    610    0    0    0
C 376.81733966 23.08585322 -20.16822260     2    610   614   615   616
H 377.31382584 23.15335876 -18.08203996     6    613    0    0    0
H 377.43317171 21.15636874 -20.87417147     6    613    0    0    0
C 378.29668822 25.03684260 -21.60648100     1    613   617   618   619
H 378.02584723 24.85629663 -23.64607332     6    616    0    0    0
H 380.33964166 25.04439321 -21.36925288     6    616    0    0    0
H 377.89573165 26.97087565 -21.25630561     6    616    0    0    0
H 361.92607467 -1.89427286 -45.44978093     6     621    0    0    0 
C 362.47120360 -0.54246199 -44.05905129     1     620    622    623    624
H 364.48785112 -0.25597888 -44.30344423     6     621    0    0    0
H 361.54281536 1.25189691 -44.44574490     6     621    0    0    0
C 361.80150134 -1.78072469 -41.51663421     2     621    625    626    627
H 362.46533732 -0.36112890 -40.10457308     6     624    0    0    0
H 359.78380544 -1.75619868 -41.32528806     6     624    0    0    0
C 362.86336525 -4.32771359 -41.17025715     2     624    628   629   630
H 361.68927952 -5.64387894 -42.33888952     6     627    0    0    0
H 364.79021157 -4.62776236 -41.81937178     6     627    0    0    0
C 362.79303256 -5.10196153 -38.24091411     2     627   631   632   633
H 364.11803193 -3.96180304 -37.17892898     6    630    0    0    0
H 360.96606090 -4.66315447 -37.54499814     6    630    0    0    0
C 363.54267963 -7.93269888 -38.01864467     2    630   634   635   636
H 362.32832853 -9.02154506 -39.14240315     6    633    0    0    0
H 365.34702037 -8.19750319 -38.88588455     6    633    0    0    0
C 363.57575506 -9.05430382 -35.30185905     2    633   637   638   639
H 364.90056200 -8.23402740 -33.97960287     6    636    0    0    0
H 361.83540805 -8.88961621 -34.22336193     6    636    0    0    0
C 364.57650039 -11.86358680 -35.52172551     2    636   640   641   642
H 363.64339673 -13.06314779 -36.98560819     6    639    0    0    0
H 366.56528781 -11.65892455 -35.75966918     6    639    0    0    0
C 363.96120153 -13.51552730 -33.26765562     2    639   643   644   645
H 364.36016240 -12.63950784 -31.45839781     6    642    0    0    0
H 361.93487995 -13.93940760 -33.37971279     6    642    0    0    0
C 365.25117536 -16.09873600 -33.38090158     2    642   646   647   648
H 364.64025034 -16.94917293 -35.17224503     6    645    0    0    0
H 367.28343951 -16.03468451 -33.54296650     6    645    0    0    0
C 364.23627977 -17.65750221 -31.09622918     2    645   649   650   651
H 362.79217606 -16.43824607 -30.25216150     6    648    0    0    0
H 363.26320506 -19.36456689 -31.82611348     6    648    0    0    0
C 366.31410927 -18.18368121 -29.05082073     2    648   652   653   654
H 365.53989501 -19.64218182 -27.84763606     6    651    0    0    0
H 368.02777755 -18.97405356 -29.88308035     6    651    0    0    0
C 366.95678891 -15.72935432 -27.45534005     1    651   655   656   657
H 368.22002037 -14.29501663 -28.31992595     6    654    0    0    0
H 368.18277043 -16.28636994 -25.82021800     6    654    0    0    0
H 365.29467981 -15.02480920 -26.56491577     6    654    0    0    0
H 357.80242372 9.69589863 -21.86924116     6     659    0    0    0 
C 358.51886445 9.65331669 -19.82208619     1     658    660    661    662
H 356.92436464 9.70777682 -18.54103543     6     659    0    0    0
H 359.81765001 8.16460213 -19.61019768     6     659    0    0    0
C 359.90604909 12.18407688 -19.47506949     2     659    663    664    665
H 358.68110418 13.65797185 -19.99569109     6     662    0    0    0
H 360.46617577 12.37126530 -17.61779689     6     662    0    0    0
C 362.24564995 12.46613944 -21.18074373     2     662    666   667   668
H 363.63416494 11.17333252 -20.38633819     6     665    0    0    0
H 362.01812851 11.98110005 -23.14135682     6     665    0    0    0
C 363.62036750 14.96695509 -21.15044561     2     665   669   670   671
H 362.33619562 16.18570289 -22.16582453     6    668    0    0    0
H 363.69969546 15.41393275 -19.15655007     6    668    0    0    0
C 366.17024170 14.95108746 -22.58664235     2    668   672   673   674
H 367.43319324 14.49184389 -21.10292712     6    671    0    0    0
H 366.12092898 13.45188707 -23.98372273     6    671    0    0    0
C 367.05485340 17.58070480 -23.65653472     2    671   675   676   677
H 366.10942151 17.91832614 -25.45548102     6    674    0    0    0
H 366.41442235 18.88542849 -22.22588862     6    674    0    0    0
C 369.92451486 17.63751186 -24.36781053     2    674   678   679   680
H 370.91379024 19.32253579 -24.04401551     6    677    0    0    0
H 370.79689387 16.41959540 -23.06768430     6    677    0    0    0
C 370.48792548 16.53486936 -26.96508415     2    677   681   682   683
H 369.33347208 14.93338778 -27.48891424     6    680    0    0    0
H 369.97911135 17.62922824 -28.51166057     6    680    0    0    0
C 373.28690151 15.75261920 -27.16820964     2    680   684   685   686
H 373.82019480 14.21836569 -25.82722528     6    683    0    0    0
H 373.59256201 14.97117973 -28.91633586     6    683    0    0    0
C 375.19740246 17.99665959 -26.67026357     2    683   687   688   689
H 374.62444886 20.02537760 -27.12152744     6    686    0    0    0
H 375.42059614 18.21065031 -24.58795864     6    686    0    0    0
C 377.77356841 17.65171132 -28.14335733     2    686   690   691   692
H 378.57767090 15.73589386 -27.73530464     6    689    0    0    0
H 377.53759981 17.42491717 -30.18625623     6    689    0    0    0
C 379.65132467 19.70690131 -27.65702153     1    689   693   694   695
H 381.28433089 19.66175428 -28.83853020     6    692    0    0    0
H 380.05528782 19.47095579 -25.71191195     6    692    0    0    0
H 378.72997472 21.49495118 -27.76595786     6    692    0    0    0
H 388.77024563 22.44554677 -49.38462218     6     697    0    0    0 
C 388.00484402 23.32057532 -47.57639608     1     696    698    699    700
H 389.16602464 22.48919912 -46.07548313     6     697    0    0    0
H 388.47093707 25.33292898 -47.56749257     6     697    0    0    0
C 385.20853369 22.52111212 -47.51358474     2     697    701    702    703
H 385.21287033 20.45819279 -47.81401147     6     700    0    0    0
H 384.40739564 23.15131331 -45.78688878     6     700    0    0    0
C 383.65683501 23.71697278 -49.59045412     2     700    704   705   706
H 383.82105890 25.79476684 -49.64990076     6     703    0    0    0
H 384.51002539 22.98063539 -51.25179035     6     703    0    0    0
C 380.95741441 22.80984666 -49.55215464     2     703   707   708   709
H 381.02155116 20.82656388 -49.68209720     6    706    0    0    0
H 380.07034574 23.33665481 -47.75280029     6    706    0    0    0
C 379.60556072 23.91608607 -51.89731471     2    706   710   711   712
H 379.62683688 25.95723010 -51.64846017     6    709    0    0    0
H 380.68867279 23.39092002 -53.62962379     6    709    0    0    0
C 376.95558179 23.03923531 -51.93298190     2    709   713   714   715
H 376.74559558 21.12033243 -52.23463368     6    712    0    0    0
H 376.15165689 23.49111747 -50.11225505     6    712    0    0    0
C 375.40478870 24.40216833 -53.91198423     2    712   716   717   718
H 375.32991366 26.32537872 -53.40417707     6    715    0    0    0
H 376.33146063 24.01148055 -55.72135058     6    715    0    0    0
C 372.74471561 23.46328373 -53.88269611     2    715   719   720   721
H 372.69373075 21.45718282 -54.53321900     6    718    0    0    0
H 372.00171411 23.38658110 -52.01183755     6    718    0    0    0
C 371.26428042 25.04442404 -55.73698869     2    718   722   723   724
H 371.03201904 27.01910797 -55.43812527     6    721    0    0    0
H 372.26514494 24.74807603 -57.46005963     6    721    0    0    0
C 368.62750537 23.75068737 -56.34928257     2    721   725   726   727
H 368.82463208 21.84010512 -57.22989349     6    724    0    0    0
H 367.60810257 23.54159416 -54.55355593     6    724    0    0    0
C 367.03845201 25.16088013 -58.26265699     2    724   728   729   730
H 367.92357983 25.61863791 -60.11520137     6    727    0    0    0
H 365.25515587 24.12121243 -58.51833550     6    727    0    0    0
C 366.01457132 27.65660123 -57.28108826     1    727   731   732   733
H 365.45195584 27.35565393 -55.22539642     6    730    0    0    0
H 364.26751749 28.23965067 -58.29696396     6    730    0    0    0
H 367.27398772 29.31330277 -57.34155545     6    730    0    0    0
H 349.15568928 34.39034462 -32.18401030     6     735    0    0    0 
C 348.19778480 35.95462942 -31.19410154     1     734    736    737    738
H 349.51649568 37.25998219 -30.50684606     6     735    0    0    0
H 346.87386996 36.98347546 -32.32004756     6     735    0    0    0
C 346.96198823 34.57777964 -28.93765458     2     735    739    740    741
H 348.23116455 34.12225819 -27.46090531     6     738    0    0    0
H 345.54458851 35.95618453 -28.26501025     6     738    0    0    0
C 345.81113592 31.89337457 -29.80617479     2     738    742   743   744
H 344.45271669 32.00932684 -31.43322046     6     741    0    0    0
H 347.26548430 30.63802856 -30.47756094     6     741    0    0    0
C 344.22954260 30.63741179 -27.74314187     2     741   745   746   747
H 345.55153547 29.95113783 -26.30043028     6    744    0    0    0
H 343.34068496 32.09347255 -26.52107490     6    744    0    0    0
C 342.38702388 28.52904891 -28.41036541     2    744   748   749   750
H 341.09783203 29.47960380 -29.62881666     6    747    0    0    0
H 343.44691508 26.97944850 -29.17058104     6    747    0    0    0
C 340.75794468 27.69544309 -26.12906552     2    747   751   752   753
H 342.11729632 27.25813648 -24.69145653     6    750    0    0    0
H 339.67324877 29.25293795 -25.42553334     6    750    0    0    0
C 339.04152623 25.53010126 -26.85628300     2    750   754   755   756
H 337.19681280 25.83791182 -26.05153349     6    753    0    0    0
H 338.46082533 25.60426602 -28.86874070     6    753    0    0    0
C 339.98644098 22.99566016 -25.91726269     2    753   757   758   759
H 341.97631768 23.08495592 -26.53472106     6    756    0    0    0
H 339.99272194 22.74235682 -23.83323020     6    756    0    0    0
C 338.63183578 20.77971016 -27.04496660     2    756   760   761   762
H 339.15417641 20.24742767 -28.92842431     6    759    0    0    0
H 339.27825574 19.20187114 -26.01246432     6    759    0    0    0
C 335.66292571 20.72356842 -27.17648748     2    759   763   764   765
H 334.97965151 21.44818027 -25.33246242     6    762    0    0    0
H 335.04655341 22.04586036 -28.59689179     6    762    0    0    0
C 334.59612817 18.10687681 -27.82792109     2    762   766   767   768
H 335.46900579 17.17508492 -29.38830805     6    765    0    0    0
H 334.53797699 16.98225880 -26.08877610     6    765    0    0    0
C 331.79899634 18.22425022 -28.48779976     1    765   769   770   771
H 330.70119190 19.53534147 -27.34381764     6    768    0    0    0
H 331.18817759 16.34078346 -28.00657061     6    768    0    0    0
H 331.60469465 18.60238279 -30.57798924     6    768    0    0    0
H 355.00472228 -16.36449805 -39.53885905     6     773    0    0    0 
C 355.10792118 -16.53849215 -41.55346558     1     772    774    775    776
H 356.98678588 -17.24295934 -42.02657423     6     773    0    0    0
H 353.94629722 -18.10792920 -42.04055114     6     773    0    0    0
C 354.30848850 -14.12289739 -42.96875151     2     773    777    778    779
H 353.63642784 -14.52089059 -44.99585334     6     776    0    0    0
H 352.46624723 -13.78825614 -42.02812608     6     776    0    0    0
C 356.20430673 -12.02671689 -42.98781053     2     776    780   781   782
H 355.44847034 -10.52248055 -44.17346293     6     779    0    0    0
H 356.31598895 -11.10960935 -41.18086565     6     779    0    0    0
C 358.84167717 -12.76393345 -44.00870865     2     779   783   784   785
H 360.09072265 -13.31346412 -42.51054240     6    782    0    0    0
H 358.42014438 -14.44068803 -45.12424317     6    782    0    0    0
C 360.33503800 -10.81718641 -45.64034953     2    782   786   787   788
H 360.15323256 -9.08229659 -44.75017804     6    785    0    0    0
H 362.24659819 -11.32093149 -45.48924835     6    785    0    0    0
C 359.50029990 -10.72953199 -48.28997770     2    785   789   790   791
H 359.14337861 -12.59444738 -49.00558408     6    788    0    0    0
H 357.69046771 -9.89486729 -48.63664286     6    788    0    0    0
C 361.16932792 -9.08959575 -50.07160821     2    788   792   793   794
H 361.47058211 -7.35507271 -48.96354806     6    791    0    0    0
H 363.04216465 -10.08602894 -50.31969773     6    791    0    0    0
C 360.04418161 -8.37552591 -52.62555920     2    791   795   796   797
H 358.91566398 -9.84025126 -53.45559022     6    794    0    0    0
H 358.57044174 -6.95963000 -52.33576450     6    794    0    0    0
C 362.05800214 -7.76633677 -54.58951334     2    794   798   799   800
H 363.55726111 -6.56529570 -53.72200538     6    797    0    0    0
H 362.78706500 -9.58420559 -55.34503143     6    797    0    0    0
C 360.83724589 -6.19623290 -56.83642874     2    797   801   802   803
H 359.08191259 -6.86228449 -57.54658851     6    800    0    0    0
H 360.39123118 -4.50327763 -55.83391183     6    800    0    0    0
C 362.69020843 -5.85406425 -59.08174241     2    800   804   805   806
H 364.52652753 -4.97312008 -58.49897323     6    803    0    0    0
H 363.22790247 -7.70589481 -60.02741169     6    803    0    0    0
C 361.55649955 -4.25779916 -61.27739225     1    803   807   808   809
H 360.43261466 -2.55688919 -60.75553271     6    806    0    0    0
H 360.12663611 -5.34221791 -62.38948228     6    806    0    0    0
H 363.01204090 -3.67740013 -62.63426490     6    806    0    0    0
H 352.98487366 17.49411848 -18.60148380     6     811    0    0    0 
C 351.90530542 16.69577484 -20.18732575     1     810    812    813    814
H 350.00482286 16.76502361 -19.29567714     6     811    0    0    0
H 352.04801301 17.89555691 -21.87844956     6     811    0    0    0
C 352.56751229 14.00656255 -20.45421376     2     811    815    816    817
H 354.41277021 13.70707735 -21.18986750     6     814    0    0    0
H 352.68566653 13.03872526 -18.72146734     6     814    0    0    0
C 350.47404607 12.79285843 -22.24661453     2     814    818   819   820
H 348.60030764 13.43510897 -21.63387011     6     817    0    0    0
H 350.75916124 13.32178716 -24.29121418     6     817    0    0    0
C 350.24498915 9.90173580 -21.96321687     2     817   821   822   823
H 351.40710893 8.91561485 -23.25649218     6    820    0    0    0
H 350.48844807 9.41740678 -20.02001221     6    820    0    0    0
C 347.63024420 8.79075881 -22.52342255     2    820   824   825   826
H 346.38329145 9.37284528 -21.07747343     6    823    0    0    0
H 346.69510364 9.54040450 -24.12388275     6    823    0    0    0
C 347.66353513 5.86966841 -22.69733450     2    823   827   828   829
H 348.60915041 5.45610613 -24.55876874     6    826    0    0    0
H 348.92803439 5.22851081 -21.24161538     6    826    0    0    0
C 345.11531604 4.64660020 -22.65643948     2    826   830   831   832
H 344.42837448 4.82543011 -20.92548030     6    829    0    0    0
H 343.68440812 5.62579107 -23.82875099     6    829    0    0    0
C 345.42564972 1.91501489 -23.70684052     2    829   833   834   835
H 345.85410899 2.09212324 -25.62017512     6    832    0    0    0
H 347.05538199 0.89130771 -22.95868964     6    832    0    0    0
C 342.98159553 0.60653015 -23.50401735     2    832   836   837   838
H 342.43253617 0.07814111 -21.58566748     6    835    0    0    0
H 341.44150161 1.89653298 -23.97343603     6    835    0    0    0
C 342.78074006 -1.79241188 -25.19029473     2    835   839   840   841
H 342.93025578 -1.25402390 -27.18393394     6    838    0    0    0
H 344.51659168 -2.96282665 -24.84142774     6    838    0    0    0
C 340.38133624 -3.31283074 -24.77093156     2    838   842   843   844
H 340.37282940 -4.26818212 -23.06193181     6    841    0    0    0
H 338.93871506 -1.80151472 -24.89466994     6    841    0    0    0
C 339.93465897 -5.07887281 -27.01703669     1    841   845   846   847
H 339.28118700 -4.06932656 -28.62942522     6    844    0    0    0
H 338.44074641 -6.46903270 -26.71741116     6    844    0    0    0
H 341.68296427 -6.08486704 -27.31562610     6    844    0    0    0
H 384.58083264 19.82658991 -17.86167313     6     849    0    0    0 
C 384.93069040 20.61008740 -16.07048757     1     848    850    851    852
H 386.94038030 20.28532507 -15.81579826     6     849    0    0    0
H 384.37628564 22.58959886 -16.33773110     6     849    0    0    0
C 383.56478436 19.34822898 -13.69998928     2     849    853    854    855
H 384.22883979 17.31131457 -13.69238865     6     852    0    0    0
H 384.19896280 20.31778504 -11.98618603     6     852    0    0    0
C 380.67728095 19.78812716 -13.74324976     2     852    856   857   858
H 380.09475585 21.73104709 -13.84149864     6     855    0    0    0
H 380.17306697 18.80496465 -15.52331214     6     855    0    0    0
C 379.27790009 18.51777861 -11.41805145     2     855   859   860   861
H 379.63802535 16.49812265 -11.41851836     6    858    0    0    0
H 379.89412899 19.04005228 -9.62521810     6    858    0    0    0
C 376.39767487 18.88103464 -11.42676793     2    858   862   863   864
H 375.91571962 20.86861439 -11.98853557     6    861    0    0    0
H 375.65379863 17.55047748 -12.84304287     6    861    0    0    0
C 375.00737545 18.35995794 -9.00017741     2    861   865   866   867
H 375.50934328 16.44175686 -8.36114654     6    864    0    0    0
H 375.63274762 19.79112054 -7.49048340     6    864    0    0    0
C 372.13938300 18.54811077 -9.64911029     2    864   868   869   870
H 371.66476004 20.49598213 -10.10359857     6    867    0    0    0
H 371.60211814 17.47358483 -11.40076236     6    867    0    0    0
C 370.33647784 17.71735493 -7.53322708     2    867   871   872   873
H 370.96311247 15.83847154 -6.87243222     6    870    0    0    0
H 370.76303467 18.91952994 -5.97803697     6    870    0    0    0
C 367.48419945 17.62552751 -8.30083737     2    870   874   875   876
H 367.07651350 19.20031180 -9.56851998     6    873    0    0    0
H 367.14522398 15.85852953 -9.40273418     6    873    0    0    0
C 365.55111251 17.75660292 -6.06554375     2    873   877   878   879
H 365.95524261 16.35413693 -4.62007202     6    876    0    0    0
H 365.89014418 19.44087353 -4.90718456     6    876    0    0    0
C 362.85424140 17.58468612 -7.07281311     2    876   880   881   882
H 362.28128051 19.24194607 -8.16493863     6    879    0    0    0
H 362.59104329 16.04906911 -8.47186959     6    879    0    0    0
C 360.93820079 17.39193480 -4.78860441     1    879   883   884   885
H 360.21826461 19.29455944 -4.03827417     6    882    0    0    0
H 361.62496584 16.05399684 -3.39882284     6    882    0    0    0
H 359.37040212 16.47772760 -5.47259220     6    882    0    0    0
H 354.96883818 0.59171971 -24.20067551     6     887    0    0    0 
C 357.03480260 0.90196361 -23.94380502     1     886    888    889    890
H 357.08032778 1.64487972 -21.98971003     6     887    0    0    0
H 358.14353469 -0.82036806 -24.30598601     6     887    0    0    0
C 357.84323084 2.78322451 -25.86861816     2     887    891    892    893
H 359.70090304 3.50003595 -25.45147875     6     890    0    0    0
H 357.71735422 1.84029937 -27.74291583     6     890    0    0    0
C 356.46155266 5.28388095 -26.03138566     2     890    894   895   896
H 354.58825748 5.08068948 -26.81807537     6     893    0    0    0
H 356.26943062 6.04255275 -24.14241132     6     893    0    0    0
C 357.93668810 7.29801629 -27.52190694     2     893   897   898   899
H 359.89358848 7.27772931 -26.96905558     6    896    0    0    0
H 357.98784435 6.33723313 -29.38286324     6    896    0    0    0
C 356.81903089 9.91375079 -27.51450180     2    896   900   901   902
H 354.85428727 9.53355507 -27.94842306     6    899    0    0    0
H 356.92390906 10.44680242 -25.54537696     6    899    0    0    0
C 358.07498785 11.91133249 -29.14205254     2    899   903   904   905
H 359.99716290 11.95015753 -28.48512561     6    902    0    0    0
H 358.10956029 11.39677215 -31.09290212     6    902    0    0    0
C 357.03417105 14.51355431 -28.97898975     2    902   906   907   908
H 357.79029760 15.62465822 -30.52270042     6    905    0    0    0
H 354.79379333 14.55849673 -29.05210366     6    905    0    0    0
C 358.09353104 15.84142944 -26.66521062     2    905   909   910   911
H 358.14920904 14.60120599 -25.05134891     6    908    0    0    0
H 360.22029455 16.13202300 -26.85681353     6    908    0    0    0
C 356.55074502 18.28588554 -26.29496707     2    908   912   913   914
H 357.18602328 19.48610658 -27.79920560     6    911    0    0    0
H 354.49010932 18.20043739 -26.41455085     6    911    0    0    0
C 357.22648444 19.64877877 -23.86653751     2    911   915   916   917
H 357.25442821 18.14471721 -22.34679735     6    914    0    0    0
H 359.12273719 20.37514518 -24.06635536     6    914    0    0    0
C 355.64969898 21.93796349 -23.42297477     2    914   918   919   920
H 355.74316016 22.98976093 -25.10503167     6    917    0    0    0
H 353.69867284 21.51995618 -22.99200178     6    917    0    0    0
C 356.27391513 23.38491195 -20.95925854     1    917   921   922   923
H 355.22052235 25.05367878 -21.13133155     6    920    0    0    0
H 358.24858690 23.83122390 -21.00785149     6    920    0    0    0
H 355.72688669 22.38235577 -19.20225911     6    920    0    0    0
H 378.32934760 4.61945237 -23.36990946     6     925    0    0    0 
C 378.18803570 2.98155891 -22.17424454     1     924    926    927    928
H 376.15630207 2.69544082 -22.40834908     6     925    0    0    0
H 379.27661280 1.38762274 -22.90386167     6     925    0    0    0
C 378.64858640 3.65551871 -19.40288620     2     925    929    930    931
H 380.54685297 4.30307669 -19.11885551     6     928    0    0    0
H 377.53740662 5.29305479 -18.71079362     6     928    0    0    0
C 377.92976882 1.51918256 -17.53183855     2     928    932   933   934
H 379.12046009 -0.02886755 -18.07874461     6     931    0    0    0
H 378.58109893 2.07375643 -15.60353181     6     931    0    0    0
C 375.02030518 0.77765946 -17.34327061     2     931   935   936   937
H 373.91860006 2.56345841 -17.76370657     6    934    0    0    0
H 374.50101655 -0.37119498 -18.99331953     6    934    0    0    0
C 374.10719913 -0.45375368 -14.78218001     2    934   938   939   940
H 375.06132413 -2.27770765 -14.81074993     6    937    0    0    0
H 374.63815724 0.81568209 -13.27316795     6    937    0    0    0
C 371.34667696 -1.14337273 -14.63044364     2    937   941   942   943
H 370.59279484 -1.69432453 -16.38876608     6    940    0    0    0
H 371.20220680 -2.91854393 -13.59547237     6    940    0    0    0
C 369.71390320 0.75511539 -13.19935284     2    940   944   945   946
H 370.67374186 0.87680241 -11.36462435     6    943    0    0    0
H 369.50524275 2.67581231 -14.04753438     6    943    0    0    0
C 366.91285016 -0.23622663 -12.83234332     2    943   947   948   949
H 366.28527030 -1.42931825 -14.44718538     6    946    0    0    0
H 366.94081528 -1.69501816 -11.33983525     6    946    0    0    0
C 365.03250330 1.97996470 -12.09958798     2    946   950   951   952
H 365.79174442 2.90748492 -10.33846011     6    949    0    0    0
H 364.95313469 3.31436520 -13.56271158     6    949    0    0    0
C 362.39642957 1.12099911 -11.25682718     2    949   953   954   955
H 361.99978011 -0.36934150 -12.74736042     6    952    0    0    0
H 362.48291661 0.13536256 -9.43290298     6    952    0    0    0
C 360.28028829 3.14280947 -11.43002180     2    952   956   957   958
H 358.66167227 2.50320897 -10.23102686     6    955    0    0    0
H 360.98710197 5.06316934 -10.84490132     6    955    0    0    0
C 359.07926570 3.48993746 -14.10575122     1    955   959   960   961
H 357.84619915 5.18477272 -14.25758991     6    958    0    0    0
H 357.69172417 1.89343295 -14.40654420     6    958    0    0    0
H 360.56494736 3.72353289 -15.61779364     6    958    0    0    0
H 345.46138822 12.91582264 -35.74348621     6     963    0    0    0 
C 344.64006039 11.44002082 -36.83239690     1     962    964    965    966
H 345.21398846 9.56892435 -36.31382414     6     963    0    0    0
H 342.59800082 11.58566311 -36.33748597     6     963    0    0    0
C 344.57531421 11.92340719 -39.71092699     2     963    967    968    969
H 343.59753032 10.44073172 -40.62361566     6     966    0    0    0
H 343.62360035 13.77957542 -40.31690643     6     966    0    0    0
C 347.05449694 12.03837580 -40.92239890     2     966    970   971   972
H 348.41583235 13.37373941 -39.96522261     6     969    0    0    0
H 347.69264350 10.01997511 -40.58929405     6     969    0    0    0
C 346.92178053 12.43601486 -43.80667447     2     969   973   974   975
H 346.56673654 10.71577343 -44.89945313     6    972    0    0    0
H 345.47106821 13.68665076 -44.50209043     6    972    0    0    0
C 349.42266983 13.61122234 -44.70192670     2    972   976   977   978
H 349.61978471 15.50206435 -43.72544449     6    975    0    0    0
H 350.85628675 12.45873276 -44.04664716     6    975    0    0    0
C 349.09116236 14.13522175 -47.56930055     2    975   979   980   981
H 348.63013800 12.41502178 -48.53536443     6    978    0    0    0
H 347.57035243 15.47739127 -47.91937540     6    978    0    0    0
C 351.63540184 15.14733824 -48.60757393     2    978   982   983   984
H 351.84466277 17.12582869 -48.05117061     6    981    0    0    0
H 353.23798376 14.42144793 -47.54619018     6    981    0    0    0
C 351.83548195 14.70495346 -51.52402480     2    981   985   986   987
H 352.09316590 12.61130855 -51.71529021     6    984    0    0    0
H 350.01704914 15.09531531 -52.48230474     6    984    0    0    0
C 353.93577011 16.10528810 -52.95232777     2    984   988   989   990
H 353.83029505 15.18225193 -54.67641493     6    987    0    0    0
H 353.46306812 18.20597233 -53.19115098     6    987    0    0    0
C 356.54764460 15.60531460 -51.86960398     2    987   991   992   993
H 356.55984687 16.48140110 -49.95633688     6    990    0    0    0
H 356.91674160 13.55365858 -51.81327054     6    990    0    0    0
C 358.50178292 17.00914419 -53.46575791     2    990   994   995   996
H 358.68326456 16.27350798 -55.42705062     6    993    0    0    0
H 358.23716913 19.03820593 -53.54694554     6    993    0    0    0
C 361.08884402 17.13557940 -52.04359782     1    993   997   998   999
H 360.90378841 18.44068271 -50.44399844     6    996    0    0    0
H 362.77701456 17.46179364 -53.28463822     6    996    0    0    0
H 361.33940390 15.19086707 -51.27512115     6    996    0    0    0
H 334.88435832 17.52072942 -34.62760339     6     1001    0    0    0 
C 335.01238509 19.62625092 -34.99487394     1     1000    1002    1003    1004
H 333.46719675 20.08860840 -36.35160847     6     1001    0    0    0
H 334.61550291 20.58738722 -33.18448269     6     1001    0    0    0
C 337.62341639 20.75725583 -35.88658018     2     1001    1005    1006    1007
H 337.51927474 22.70174926 -35.71965330     6     1004    0    0    0
H 338.99529591 20.07944972 -34.45871344     6     1004    0    0    0
C 338.18783377 19.96203921 -38.52657959     2     1004    1008   1009   1010
H 337.90353816 17.89064860 -38.64256808     6     1007    0    0    0
H 337.00614912 20.92220349 -39.97152499     6     1007    0    0    0
C 340.89394578 20.37644378 -39.10310535     2     1007   1011   1012   1013
H 341.41060714 22.15885262 -38.20390666     6    1010    0    0    0
H 341.90457055 18.74785137 -38.15326374     6    1010    0    0    0
C 341.37570597 20.33606941 -41.95003723     2    1010   1014   1015   1016
H 340.39269552 18.56472923 -42.61850187     6    1013    0    0    0
H 340.38077974 21.86120269 -42.84160839     6    1013    0    0    0
C 344.13104722 20.22736284 -42.69514625     2    1013   1017   1018   1019
H 345.08888602 21.88728912 -41.80837115     6    1016    0    0    0
H 344.76229866 18.50091827 -41.95538540     6    1016    0    0    0
C 344.44359106 20.36742206 -45.53974788     2    1016   1020   1021   1022
H 343.86244415 18.46346497 -46.37919074     6    1019    0    0    0
H 342.98294242 21.72624985 -46.16965807     6    1019    0    0    0
C 346.92983492 21.64102435 -46.61113766     2    1019   1023   1024   1025
H 348.53355255 20.88033486 -45.76364299     6    1022    0    0    0
H 347.09349406 21.53025539 -48.67747379     6    1022    0    0    0
C 346.81815200 24.55341820 -46.02882038     2    1022   1026   1027   1028
H 344.88408807 25.33472466 -46.13554076     6    1025    0    0    0
H 347.18294069 24.97018848 -44.07356890     6    1025    0    0    0
C 348.23046741 26.38664395 -47.76029100     2    1025   1029   1030   1031
H 350.34165579 25.93188858 -47.81137673     6    1028    0    0    0
H 347.52375079 25.97696803 -49.64015175     6    1028    0    0    0
C 347.53055424 29.06333254 -47.12068428     2    1028   1032   1033   1034
H 345.54889407 29.58391499 -47.45676716     6    1031    0    0    0
H 347.97691074 29.08555875 -45.03635987     6    1031    0    0    0
C 349.07123824 31.06975573 -48.69315526     1    1031   1035   1036   1037
H 348.62699606 33.03263568 -48.07666594     6    1034    0    0    0
H 348.51284440 30.74253586 -50.68229573     6    1034    0    0    0
H 351.15087160 30.63472159 -48.42746967     6    1034    0    0    0
H 353.83234137 -4.61649380 -40.91012564     6     1039    0    0    0 
C 354.54789380 -6.32593669 -40.01482459     1     1038    1040    1041    1042
H 353.61361808 -8.16390720 -40.64185345     6     1039    0    0    0
H 356.56001953 -6.45073637 -40.29684611     6     1039    0    0    0
C 354.14305026 -6.13428473 -37.06060984     2     1039    1043    1044    1045
H 355.21850299 -4.55065029 -36.49006867     6     1042    0    0    0
H 352.08087634 -5.74392138 -36.64794431     6     1042    0    0    0
C 354.88885854 -8.54940623 -35.78679074     2     1042    1046   1047   1048
H 353.77588534 -10.05356957 -36.62193648     6     1045    0    0    0
H 356.98030440 -8.78522067 -36.14830009     6     1045    0    0    0
C 354.04934989 -8.51822154 -33.00052960     2     1045   1049   1050   1051
H 355.05251119 -7.05974268 -32.16817394     6    1048    0    0    0
H 352.13733864 -8.05591567 -33.04442848     6    1048    0    0    0
C 354.42155436 -10.94321564 -31.48976037     2    1048   1052   1053   1054
H 353.92593166 -12.45881185 -32.71154028     6    1051    0    0    0
H 356.49820696 -11.40665840 -31.26905648     6    1051    0    0    0
C 353.15037400 -11.08408340 -28.94079431     2    1051   1055   1056   1057
H 353.62126416 -9.50048682 -27.56059262     6    1054    0    0    0
H 351.04747207 -10.97999054 -29.09685715     6    1054    0    0    0
C 353.50652839 -13.58206960 -27.32080302     2    1054   1058   1059   1060
H 352.63245045 -14.94750953 -28.69351354     6    1057    0    0    0
H 355.43522882 -14.06700309 -27.16101651     6    1057    0    0    0
C 352.18181760 -13.63192320 -24.78023303     2    1057   1061   1062   1063
H 353.29476513 -13.00148843 -23.12790659     6    1060    0    0    0
H 350.46709629 -12.49057127 -24.83618224     6    1060    0    0    0
C 351.22732998 -16.18479165 -24.12587736     2    1060   1064   1065   1066
H 350.00135351 -16.94334394 -25.58748354     6    1063    0    0    0
H 352.72565007 -17.55564363 -23.97682281     6    1063    0    0    0
C 349.86252749 -16.37331253 -21.52292846     2    1063   1067   1068   1069
H 351.08253873 -15.41681031 -20.03448881     6    1066    0    0    0
H 348.20352471 -15.21330017 -21.83638384     6    1066    0    0    0
C 348.87821912 -18.91069112 -20.80933291     2    1066   1070   1071   1072
H 347.47923575 -19.54879682 -22.06439346     6    1069    0    0    0
H 350.56199742 -20.02946892 -21.09599529     6    1069    0    0    0
C 348.14095811 -19.33269873 -18.04749484     1    1069   1073   1074   1075
H 348.18448391 -21.39158338 -17.76340286     6    1072    0    0    0
[...]
 1803      H     381.5470279600    -7.9812442800   -34.7474622900
 1804      H     382.8384321500    -5.4489455300   -33.0405001600
 1805      C     379.1558327300    -4.4781832300   -34.4567190900
 1806      H     379.3805395500    -2.4785811800   -34.4283669700
 1807      H     378.0195213000    -4.6700612000   -36.0776030000
 1808      C     377.4432928900    -5.3966552700   -32.2649197300
 1809      H     376.7284278900    -7.2744499400   -32.7527367100
 1810      H     378.6049097400    -5.7562628700   -30.5737472900
 1811      C     375.1542822100    -3.5917769300   -31.7116963800
 1812      H     375.8723536900    -1.7968074500   -31.2711119400
 1813      H     374.1578747200    -3.1637870000   -33.4285575200
 1814      C     373.5346523300    -4.5851257200   -29.5281218400
 1815      H     373.0498066500    -6.6772118100   -29.6562010000
 1816      H     374.6532140700    -4.1889342700   -27.8686340500
 1817      C     371.1714272900    -3.0678571800   -29.2246024800
 1818      H     371.6329280700    -1.0751031600   -29.5093568500
 1819      H     369.7544587300    -3.3708352100   -30.5481990600
 1820      C     369.9607739800    -3.3707048100   -26.6261506800
 1821      H     368.8902638300    -5.1720177900   -26.6371403900
 1822      H     371.4681948900    -3.7109485700   -25.1353528800
 1823      C     368.3953908600    -1.2168753700   -25.8349530500
 1824      H     369.7992570300     0.2104930500   -25.6145240500
 1825      H     367.1698222300    -0.9137954300   -27.4796103100
 1826      C     366.8918771800    -1.4950085900   -23.4125502300
 1827      H     365.8576646200    -3.3209506700   -23.4719319900
 1828      H     368.2334133100    -1.3868569700   -21.8801255000
 1829      C     365.1849499700     0.6140938500   -22.9100715600
 1830      H     366.3440013300     2.4294975100   -22.9556213700
 1831      H     363.4788687000     0.7932789300   -23.9621775900
 1832      C     364.1116074300     0.3064540500   -20.3106446700
 1833      H     365.3796356600    -0.0172750000   -18.7484460800
 1834      H     362.7924904000    -1.3331494900   -20.4041137600
 1835      H     362.9291925800     1.8860860300   -19.8035573100
 1836      H     365.7010272900     4.4367102400   -29.7159909500
 1837      C     365.0255591300     6.3634266000   -29.7203509100
 1838      H     365.5845970500     7.4545114900   -31.4304162500
 1839      H     362.8780766400     6.3675706300   -29.7559164600
 1840      C     365.8386145700     7.4370931100   -27.1060274100
 1841      H     365.1530525200     9.2429314200   -26.8860893900
 1842      H     365.0059293600     6.1167380800   -25.6692427400
 1843      C     368.7593745400     7.1786174800   -26.4551027900
 1844      H     369.3596816900     5.2279289100   -26.4227572200
 1845      H     369.8141617800     7.9809407200   -28.1245894100
 1846      C     369.7266790400     8.6136532900   -24.1603428000
 1847      H     369.6812899100    10.6852205900   -24.6078953700
 1848      H     368.6944617500     8.0215120500   -22.4932429300
 1849      C     372.4937019100     7.9393836400   -23.6531213100
 1850      H     372.9053497400     6.0480914800   -23.9652613700
 1851      H     373.6822293400     8.8638197300   -24.9418546000
 1852      C     373.2588727000     8.8092929800   -20.9421125300
 1853      H     372.1142620600     7.6566449500   -19.5540766300
 1854      H     375.1871626700     8.0828705200   -20.8976179800
 1855      C     373.4156134200    11.6863723900   -20.4673240900
 1856      H     375.1706119400    12.4113667400   -21.2191791700
 1857      H     371.9059079000    12.5716629400   -21.5992531100
 1858      C     373.4280293100    12.4206222800   -17.6580544100
 1859      H     373.7875101900    14.4537139300   -17.4830774700
 1860      H     371.5682917300    12.2252651200   -16.8977713500
 1861      C     375.1391077200    10.7858995400   -15.9364874200
 1862      H     374.5068984900     8.8623670400   -15.8218808600
 1863      H     377.0094318600    10.9918161100   -16.7442491500
 1864      C     375.0584026800    11.8380210300   -13.2011484800
 1865      H     375.9353960200    13.6350311900   -13.0771685700
 1866      H     373.2034565200    12.1011272700   -12.4364053600
 1867      C     376.5323540100    10.1455560300   -11.4608910500
 1868      H     375.2099791000     8.6474268100   -10.8643592600
 1869      H     378.1044400600     9.3259963000   -12.5415094200
 1870      C     377.4946412800    11.6450822200    -9.2413484500
 1871      H     378.4328493100    10.4570252300    -7.9051270800
 1872      H     376.1675360900    12.5598727600    -7.8930126500
 1873      H     378.7355895900    13.2486629500    -9.6266359700
 1874      H     378.3562691500    15.8180308500   -49.5470582000
 1875      C     377.5292682800    14.0426387700   -50.0928981800
 1876      H     378.8085754800    12.5409850300   -50.9714005200
 1877      H     377.3000963900    13.2701976500   -48.3092974000
 1878      C     375.0174053100    14.1588471700   -51.2812487100
 1879      H     374.1863631700    16.0175065400   -50.6223468800
 1880      H     375.2923648900    14.2765384400   -53.2908153500
 1881      C     373.3191106000    11.8401978000   -50.6371038300
 1882      H     374.0023381700    10.4576735800   -52.0455091800
 1883      H     373.7347265400    10.9921894300   -48.8556556800
 1884      C     370.5474723200    12.6264835200   -50.7192203100
 1885      H     370.0391039900    14.1437926200   -49.3370262800
 1886      H     370.2329349200    13.5895419800   -52.4933671300
 1887      C     368.8896727500    10.2677306300   -50.2119499800
 1888      H     369.0935118800     9.1050745000   -51.8606660000
 1889      H     369.5917979600     9.2637337600   -48.5150162000
 1890      C     366.0773183000    11.0461167000   -49.7645616200
 1891      H     365.9777712600    11.9160408900   -48.0060816500
 1892      H     365.7731565800    12.7219711300   -50.9559151000
 1893      C     364.2017617400     8.8981424100   -50.0901750800
 1894      H     364.0084660500     8.3907993200   -52.0293173900
 1895      H     364.9536510300     7.1343889600   -49.0828584100
 1896      C     361.4813577800     9.5645859800   -49.0023533700
 1897      H     361.6642039600     9.8442460500   -46.9926967900
 1898      H     361.1130121300    11.4651877000   -49.7316882200
 1899      C     359.5947093200     7.5209016500   -49.6739744200
 1900      H     359.5142489700     7.1887658900   -51.7575456800
 1901      H     360.3586826000     5.8168783000   -48.8372435600
 1902      C     357.1014857500     8.1008022000   -48.3916197300
 1903      H     357.3046328000     7.5931553700   -46.3887792900
 1904      H     356.6369748600    10.1262786100   -48.1579705300
 1905      C     355.0434183000     6.4359204100   -49.5591512600
 1906      H     354.6547141100     6.9238635200   -51.4587272500
 1907      H     355.5724689000     4.5199081000   -49.7272768000
 1908      C     352.6312272600     6.6867473900   -48.0445065600
 1909      H     351.4906729600     8.3814354700   -48.5232854800
 1910      H     352.7656738200     6.7692012600   -46.0071140900
 1911      H     351.3761751700     4.9967166200   -48.3052530600
 ----------------------------------------------------------------
 Nuclear Repulsion Energy =           0.00000000 hartrees
 There are     2498 alpha and     2498 beta electrons

 Total QAlloc Memory Limit   2000 MB
 Mega-Array Size       204 MB
 MEM_STATIC part       192 MB
   **** Step 1: MM calculation on the entire system **** 
 OPLSAA force field loaded.
Reading user-defined FF parameters...
 Reading user defined atom types.
 Found 3 user defined AtomTypes
finished.
Determining angles, torsions, etc. from user defined input
Determining VDW/Coulomb pairs... (useList = 0)

 Time req'd to get MM system information: 0.2 s (CPU) 0.3 s (wall)

 ------ MM Energies ------
   Ebond:           548.039171723639
   Eangle:          883.247437095933
   EUreyBrad:         0.000000000000
   Eimptors:          0.000000000000
   Etorsion:        239.171350024808
   Evdw:        1413969.946983077331
   Ecoulomb:        183.994062580742
   Etot:        1415824.399004502455 Kcal/mol (   2256.259808713712 hartree)
 -------------------------
 Time req'd to calc MM energy: 0.1 s (CPU) 0.1 s (wall)
 OPLSAA force field loaded.
Reading user-defined FF parameters...
 Reading user defined atom types.
 Found 3 user defined AtomTypes
finished.
 Time req'd to get MM system information: 0.0 s (CPU) 0.0 s (wall)
 Time req'd to calc MM gradient: 0.2 s (CPU) 0.2 s (wall)
   **** Step 2: MM calculation on the model system **** 
 Reading user defined atom types.
 Found 3 user defined AtomTypes
 ----------------------------------------------------------------
             Standard Nuclear Orientation (Bohr)
    I     Atom           X                Y                Z
 ----------------------------------------------------------------
    1      Fe    362.7241077200    11.7414672900   -40.9890924900
    2      C     360.1367971600    12.7104472500   -43.1852208800
    3      C     365.9519521300    11.7665362700   -41.9974128000
    4      C     363.1710635100    14.8753599600   -39.7038319800
    5      C     362.0819558600    10.8389938100   -37.8439463600
    6      C     362.4664895300     8.5866708800   -42.0745165300
    7      O     358.6334117500    13.3668848200   -44.5351808100
    8      O     367.8881983100    12.0594671500   -42.8736424900
    9      O     363.3899822700    16.7813237900   -38.7085401600
   10      O     361.7294051500    10.1711310400   -35.7737566100
   11      O     361.9862663800     6.6840040600   -42.9860302300
 ----------------------------------------------------------------
 Nuclear Repulsion Energy =         807.38218815 hartrees
 There are       48 alpha and       48 beta electrons
 OPLSAA force field loaded.
Reading user-defined FF parameters...
 Reading user defined atom types.
 Found 3 user defined AtomTypes
finished.
Determining VDW/Coulomb pairs... (useList = 0)

 No MM bonds in system. Return all possible pairs.
 Time req'd to get MM system information: 0.0 s (CPU) 0.0 s (wall)

 ------ MM Energies ------
   Ebond:             0.000000000000
   Eangle:            0.000000000000
   EUreyBrad:         0.000000000000
   Eimptors:          0.000000000000
   Etorsion:          0.000000000000
   Evdw:        1414411.334871316794
   Ecoulomb:         -6.658519521782
   Etot:        1414404.676351794973 Kcal/mol (   2253.997336642262 hartree)
 -------------------------
 Eold: 2256.2598087 mm_energy: 2253.9973366 Enew:    2.2624721
 Time req'd to calc MM energy: 0.0 s (CPU) 0.0 s (wall)
 OPLSAA force field loaded.
Reading user-defined FF parameters...
 Reading user defined atom types.
 Found 3 user defined AtomTypes
finished.
Determining VDW/Coulomb pairs... (useList = 0)

 No MM bonds in system. Return all possible pairs.
 Time req'd to get MM system information: 0.0 s (CPU) 0.0 s (wall)
 Number of fixed atoms: 0
 Time req'd to calc MM gradient: 0.0 s (CPU) 0.0 s (wall)
   **** Step 3: QM calculation on the model system **** 
 Requested basis set is def2-mSVP
 There are 80 shells and 174 basis functions

                       Distance Matrix (Bohrs)
             Fe(  1)   C (  2)   C (  3)   C (  4)   C (  5)   C (  6)
   C (  2)  3.529317
   C (  3)  3.381763  6.009816
   C (  4)  3.416570  5.100362  4.760109
   C (  5)  3.334481  5.984580  5.752260  4.575760
   C (  6)  3.346230  4.864839  4.718680  6.757528  4.808175
   O (  7)  5.652479  2.124493  7.909641  6.797625  7.940737  6.602863
   O (  8)  5.506404  7.784926  2.145376  6.342579  7.778165  6.487977
   O (  9)  5.571756  6.869929  6.521385  2.161303  6.145709  8.907018
   O ( 10)  5.536706  7.994644  7.688245  6.297114  2.203638  6.538607
   O ( 11)  5.487267  6.306999  6.521975  8.903644  6.611666  2.163703
             O (  7)   O (  8)   O (  9)   O ( 10)
   O (  8)  9.493215
   O (  9)  8.260333  7.738085
   O ( 10)  9.826524  9.586706  7.420588
   O ( 11)  7.635601  7.983798 11.055460  8.015168

 A cutoff of  1.0D-11 yielded   2504 shell pairs
 There are     12888 function pairs (     14758 Cartesian)
 Smallest overlap matrix eigenvalue = 2.38E-03
 Guess MOs from SCF MO coefficient file
 Reading MOs from coefficient file
 Reading MOs from coefficient file
 A restricted Kohn-Sham SCF calculation will be
 performed using Pulay DIIS extrapolation
 Exchange:  B88      Correlation:  P86
 Using SG-1 standard quadrature grid
 SCF converges when DIIS error is below 1.0E-08
 Using Q-Chem read-in guess as SCF_GUESS READ specified.

 using 2 threads for integral computing
 -------------------------------------------------------
 OpenMP Integral computing Module                
 Release: version 1.0, May 2013, Q-Chem Inc. Pittsburgh 
 -------------------------------------------------------
 ---------------------------------------
  Cycle       Energy         DIIS Error
 ---------------------------------------
    1   -1830.5160158819      4.36E-10
    2   -1830.5160158827      1.58E-09 Convergence criterion met
 ---------------------------------------
 SCF time:  CPU 2.82 s  wall 1.57 s
 E(QM + QM/MM):    -1830.5160158827 E(MM):    2.2624721 E(Tot): -1828.253543811230 
 SCF   energy in the final basis set = -1828.25354381
 Total energy in the final basis set = -1828.25354381

 --------------------------------------------------------------

                    Orbital Energies (a.u.)
 --------------------------------------------------------------

 Alpha MOs
 -- Occupied --
******** -29.6275 -25.5874 -25.5732 -25.5718 -18.8853 -18.8809 -18.8806
-18.8749 -18.8663 -10.0501 -10.0464 -10.0369 -10.0367 -10.0346  -3.3134
 -2.1501  -2.1223  -2.1187  -1.0744  -1.0698  -1.0656  -1.0642  -1.0393
 -0.5701  -0.5236  -0.5160  -0.5143  -0.5093  -0.4576  -0.4473  -0.4452
 -0.4398  -0.4368  -0.4337  -0.4299  -0.4251  -0.4193  -0.4187  -0.4076
 -0.4073  -0.3984  -0.3945  -0.3782  -0.2724  -0.2688  -0.2298  -0.2140
 -- Virtual --
 -0.0892  -0.0787  -0.0763  -0.0675  -0.0618  -0.0593  -0.0572  -0.0482
 -0.0390  -0.0204  -0.0154   0.0133   0.1921   0.2204   0.2248   0.2769
  0.3024   0.3385   0.3454   0.4025   0.4140   0.4209   0.4370   0.4400
  0.4615   0.4779   0.5066   0.5107   0.5221   0.5654   0.5818   0.5996
  0.6337   0.6583   0.6611   0.6660   0.7389   0.7435   0.7570   0.7605
  0.7776   0.8288   0.8456   0.8776   0.8916   0.9062   0.9458   0.9552
  0.9761   0.9841   0.9960   1.0052   1.0158   1.0198   1.0497   1.0605
  1.2426   1.2982   1.3039   1.3340   1.3965   1.4057   1.4105   1.4138
  1.4158   1.4235   1.4244   1.4321   1.4548   1.4691   1.4718   1.4986
  1.5194   1.5325   1.5706   1.5942   1.6364   1.6479   1.6822   1.6940
  1.7201   1.8261   1.8396   1.8449   1.8508   1.8581   1.8606   1.8657
  1.8688   1.8866   1.8900   1.8964   1.9054   1.9095   1.9132   1.9656
  2.4055   2.4437   2.4529   2.4827   2.4935   2.5009   2.5034   2.5155
  2.5238   2.5399   2.6721   2.6813   2.6881   2.7013   2.7072   2.8384
  2.8504   2.9176   2.9492   3.0035  13.2764  13.3134  13.3437  13.3579
 13.4778  24.9342  24.9498  24.9625  24.9918  25.0391
 --------------------------------------------------------------

          Ground-State Mulliken Net Atomic Charges

     Atom                 Charge (a.u.)
  ----------------------------------------
      1 Fe                   -0.488564
      2 C                     0.207800
      3 C                     0.202683
      4 C                     0.187013
      5 C                     0.201051
      6 C                     0.174866
      7 O                    -0.074776
      8 O                    -0.091255
      9 O                    -0.092585
     10 O                    -0.126204
     11 O                    -0.100027
  ----------------------------------------
  Sum of atomic charges =     0.000000

 -----------------------------------------------------------------
                    Cartesian Multipole Moments
 -----------------------------------------------------------------
    Charge (ESU x 10^10)
                -0.0000
    Dipole Moment (Debye)
         X       0.1229756340      Y       0.1110041042      Z      -0.2659187287
       Tot       0.3133012735
    Quadrupole Moments (Debye-Ang)
        XX     -21.2537     XY      21.4116     YY     -66.8251
        XZ     -53.1621     YZ      -3.8568     ZZ     -58.8215
    Octopole Moments (Debye-Ang^2)
       XXX  -25837.7200    XXY    3701.3866    XYY  -12829.1506
       YYY   -1260.7983    XXZ   -9120.7331    XYZ    -740.5789
       YYZ    1440.2871    XZZ  -11253.4105    YZZ    -320.9863
       ZZZ    4191.5563
    Hexadecapole Moments (Debye-Ang^3)
      XXXX ************   XXXY  549735.6530   XXYY ************
      XYYY -242057.3153   YYYY  -16513.9290   XXXZ ************
      XXYZ -132880.0389   XYYZ  276501.8939   YYYZ   27215.8013
      XXZZ ************   XYZZ  -61636.7747   YYZZ  -33987.0893
      XZZZ  803859.1757   YZZZ   25101.3706   ZZZZ -187473.4704
 -----------------------------------------------------------------
 Calculating MO derivatives via CPSCF
 Full subspace dimension requested for CIS/TDDFT
 MAX_CIS_SUBSPACE fits in available memory
    1     0    36    0.0387198  
    2     0    36    0.0062824  
    3     0    36    0.0005731  
    4     0    36    0.0000401  
    5    35     1    0.0000011  
    6    36     0    0.0000000  Converged
 Time for AOints: 6.6 s (CPU) 3.4 s (wall)
 ------------------------------------------------------------------------------
                     AOints        : Timing summary (seconds)
 ------------------------------------------------------------------------------
     job step          cpu (% of tot)      sys (% of tot)     wall (% of tot)
 ------------------------------------------------------------------------------
  AOints            0.6576E+01 ( 3.6)   0.1300E-04 (12.6)   0.3352E+01 ( 3.7)
 ------------------------------------------------------------------------------
   Grand Totals     0.1806E+03          0.1030E-03          0.9100E+02
 ------------------------------------------------------------------------------
 Polarizability Matrix (a.u.)
            1           2           3
    1 -83.6069063  -2.8942629  -1.9706860
    2  -2.8942629 -92.9751560  -5.8231269
    3  -1.9706860  -5.8231269 -90.2232892
 Derivative of Dipole Moment Matrix (a.u.)
            1           2           3
    1  -1.8908726  -0.0005694   0.0259441
    2  -0.0336213  -1.9568441  -0.0606220
    3   0.0022595   0.1009238  -1.9149518
    4   1.4595777  -0.4156177   0.9392229
    5  -0.4332861   0.5509865  -0.3842988
    6   0.9027585  -0.3838476   1.2419666
    7   2.1641338   0.0856088  -0.6551957
    8   0.1866771   0.4091655  -0.0562893
    9  -0.6648189  -0.0578360   0.6685711
   10   0.4634600   0.2132221   0.0906058
   11   0.1768586   1.9384553   0.6172376
   12   0.1183390   0.7488414   0.7267660
   13   0.5090782   0.0703560  -0.2688054
   14   0.1173293   0.5638571  -0.5798784
   15  -0.4079940  -0.5794224   2.1775746
   16   0.4784976   0.2537117   0.0857364
   17   0.2139277   2.0259759   0.5893950
   18   0.0973548   0.6222943   0.6777357
   19  -1.0220958   0.3372803  -0.7510344
   20   0.3736268  -0.2852041   0.3273812
   21  -0.7632403   0.3073546  -0.8278317
   22  -1.5609255  -0.0487145   0.4972299
   23  -0.2008776  -0.1546011   0.0764642
   24   0.5924414   0.0351216  -0.3827002
   25  -0.1734952  -0.1581019  -0.0717030
   26  -0.1613108  -1.3636453  -0.5222819
   27  -0.0950365  -0.6493424  -0.4246191
   28  -0.2400487  -0.0578578   0.2070577
   29  -0.0881323  -0.3001184   0.4630007
   30   0.2857880   0.4369741  -1.5712770
   31  -0.1873096  -0.2793175  -0.0990581
   32  -0.1511915  -1.4280273  -0.4701083
   33  -0.0678514  -0.5810613  -0.3712342
 -----------------------------------------
 Net:  -0.00000  -0.00000  -0.00000
 -----------------------------------------

 Calculating analytic Hessian of the SCF energy
