                  Welcome to Q-Chem
     A Quantum Leap Into The Future Of Chemistry


 Q-Chem 5.4 (devel), Q-Chem, Inc., Pleasanton, CA (2021)

 E. Epifanovsky,  A. T. B. Gilbert,  Xintian Feng,  Joonho Lee,  Yuezhi Mao,  
 N. Mardirossian,  P. Pokhilko,  A. White,  M. Wormit,  M. P. Coons,  
 A. L. Dempwolff,  Zhengting Gan,  D. Hait,  P. R. Horn,  L. D. Jacobson,  
 I. Kaliman,  J. Kussmann,  A. W. Lange,  Ka Un Lao,  D. S. Levine,  Jie Liu,  
 S. C. McKenzie,  A. F. Morrison,  K. Nanda,  F. Plasser,  D. R. Rehn,  
 M. L. Vidal,  Zhi-Qiang You,  Ying Zhu,  B. Alam,  B. Albrecht,  
 A. Aldossary,  E. Alguire,  J. H. Andersen,  D. Barton,  K. Begam,  A. Behn,  
 Y. A. Bernard,  E. J. Berquist,  H. Burton,  A. Carreras,  K. Carter-Fenk,  
 R. Chakraborty,  A. D. Chien,  K. D. Closser,  V. Cofer-Shabica,  
 S. Dasgupta,  Jia Deng,  M. de Wergifosse,  M. Diedenhofen,  Hainam Do,  
 S. Ehlert,  Po-Tung Fang,  S. Fatehi,  Qingguo Feng,  T. Friedhoff,  
 J. Gayvert,  Qinghui Ge,  G. Gidofalvi,  M. Goldey,  J. Gomes,  
 C. Gonzalez-Espinoza,  S. Gulania,  A. Gunina,  M. W. D. Hanson-Heine,  
 P. H. P. Harbach,  A. W. Hauser,  M. F. Herbst,  M. Hernandez Vera,  
 M. Hodecker,  Z. C. Holden,  S. Houck,  Xunkun Huang,  Kerwin Hui,  
 B. C. Huynh,  M. Ivanov,  Hyunjun Ji,  Hanjie Jiang,  B. Kaduk,  S. Kaehler,  
 K. Khistyaev,  Jaehoon Kim,  P. Klunzinger,  Z. Koczor-Benda,  
 Joong Hoon Koh,  D. Kosenkov,  L. Koulias,  T. Kowalczyk,  C. M. Krauter,  
 K. Kue,  A. Kunitsa,  T. Kus,  A. Landau,  K. V. Lawler,  D. Lefrancois,  
 S. Lehtola,  Rain Li,  Yi-Pei Li,  Jiashu Liang,  M. Liebenthal,  
 Hung-Hsuan Lin,  You-Sheng Lin,  Fenglai Liu,  Kuan-Yu Liu,  
 M. Loipersberger,  A. Luenser,  A. Manjanath,  P. Manohar,  E. Mansoor,  
 S. F. Manzer,  Shan-Ping Mao,  A. V. Marenich,  T. Markovich,  S. Mason,  
 S. A. Maurer,  P. F. McLaughlin,  M. F. S. J. Menger,  J.-M. Mewes,  
 S. A. Mewes,  P. Morgante,  J. W. Mullinax,  K. J. Oosterbaan,  G. Paran,  
 Alexander C. Paul,  Suranjan K. Paul,  F. Pavosevic,  Zheng Pei,  S. Prager,  
 E. I. Proynov,  E. Ramos,  B. Rana,  A. E. Rask,  A. Rettig,  R. M. Richard,  
 F. Rob,  E. Rossomme,  T. Scheele,  M. Scheurer,  M. Schneider,  
 N. Sergueev,  S. M. Sharada,  W. Skomorowski,  D. W. Small,  C. J. Stein,  
 Yu-Chuan Su,  E. J. Sundstrom,  Zhen Tao,  J. Thirman,  T. Tsuchimochi,  
 N. M. Tubman,  S. P. Veccham,  O. Vydrov,  J. Wenzel,  J. Witte,  A. Yamada,  
 Kun Yao,  S. Yeganeh,  S. R. Yost,  A. Zech,  Igor Ying Zhang,  Xing Zhang,  
 Yu Zhang,  D. Zuev,  A. Aspuru-Guzik,  A. T. Bell,  N. A. Besley,  
 K. B. Bravaya,  B. R. Brooks,  D. Casanova,  Jeng-Da Chai,  S. Coriani,  
 C. J. Cramer,  A. E. DePrince, III,  R. A. DiStasio Jr.,  A. Dreuw,  
 B. D. Dunietz,  T. R. Furlani,  W. A. Goddard III,  S. Grimme,  
 S. Hammes-Schiffer,  T. Head-Gordon,  W. J. Hehre,  Chao-Ping Hsu,  
 T.-C. Jagau,  Yousung Jung,  A. Klamt,  Jing Kong,  D. S. Lambrecht,  
 WanZhen Liang,  N. J. Mayhall,  C. W. McCurdy,  J. B. Neaton,  
 C. Ochsenfeld,  J. A. Parkhill,  R. Peverati,  V. A. Rassolov,  Yihan Shao,  
 L. V. Slipchenko,  T. Stauch,  R. P. Steele,  J. E. Subotnik,  
 A. J. W. Thom,  A. Tkatchenko,  D. G. Truhlar,  T. Van Voorhis,  
 T. A. Wesolowski,  K. B. Whaley,  H. L. Woodcock III,  P. M. Zimmerman,  
 S. Faraji,  P. M. W. Gill,  M. Head-Gordon,  J. M. Herbert,  A. I. Krylov

 Additional authors for Version 5.4.1: 
 S. Kotaru,  Shaozhi Li,  Xiangyuan Li,  F. Matz,  A. Molle,  Haisheng Ren,  
 Yingli Su,  Hung-Yi Tsai,  C. Utku,  Fang Wang

 Contributors to earlier versions of Q-Chem not listed above: 
 R. D. Adamson,  B. Austin,  R. Baer,  J. Baker,  G. J. O. Beran,  
 K. Brandhorst,  S. T. Brown,  E. F. C. Byrd,  A. K. Chakraborty,  
 G. K. L. Chan,  Chun-Min Chang,  Yunqing Chen,  C.-L. Cheng,  
 Siu Hung Chien,  D. M. Chipman,  D. L. Crittenden,  H. Dachsel,  
 R. J. Doerksen,  A. D. Dutoi,  R. G. Edgar,  J. Fosso-Tande,  
 L. Fusti-Molnar,  D. Ghosh,  A. Ghysels,  A. Golubeva-Zadorozhnaya,  
 J. Gonthier,  M. S. Gordon,  S. R. Gwaltney,  G. Hawkins,  J. E. Herr,  
 A. Heyden,  S. Hirata,  E. G. Hohenstein,  G. Kedziora,  F. J. Keil,  
 C. Kelley,  Jihan Kim,  R. A. King,  R. Z. Khaliullin,  P. P. Korambath,  
 W. Kurlancheek,  A. Laurent,  A. M. Lee,  M. S. Lee,  S. V. Levchenko,  
 Ching Yeh Lin,  D. Liotard,  E. Livshits,  R. C. Lochan,  I. Lotan,  
 L. A. Martinez-Martinez,  P. E. Maslen,  N. Nair,  D. P. O'Neill,  
 D. Neuhauser,  E. Neuscamman,  C. M. Oana,  R. Olivares-Amaya,  R. Olson,  
 T. M. Perrine,  B. Peters,  P. A. Pieniazek,  A. Prociuk,  Y. M. Rhee,  
 J. Ritchie,  M. A. Rohrdanz,  E. Rosta,  N. J. Russ,  H. F. Schaefer III,  
 M. W. Schmidt,  N. E. Schultz,  S. Sharma,  N. Shenvi,  C. D. Sherrill,  
 A. C. Simmonett,  A. Sodt,  T. Stein,  D. Stuck,  K. S. Thanthiriwatte,  
 V. Vanovschi,  L. Vogt,  Tao Wang,  A. Warshel,  M. A. Watson,  
 C. F. Williams,  Q. Wu,  X. Xu,  Jun Yang,  W. Zhang,  Yan Zhao

 Please cite Q-Chem as follows:
 Y. Shao et al., Mol. Phys. 113, 184-215 (2015)
 DOI: 10.1080/00268976.2014.952696

 Q-Chem 5.4.1 for Intel X86 EM64T Linux

 Parts of Q-Chem use Armadillo 9.900.5 (Nocturnal Misbehaviour).
 http://arma.sourceforge.net/

 Q-Chem begins on Wed Jun  1 23:30:23 2022  

 Host: p09r14n13.grace.hpc.yale.internal
0

     Scratch files written to /home/tl686/scratch60/qchem_dev/scratch/qchem244397//
 Processing $rem in /home/tl686/qchem_dev/qchem/config/preferences:
 Processing $rem in /home/tl686/.qchemrc:
Applying user defined connections for MM calculations

 Checking the input file for inconsistencies... 	...done.

--------------------------------------------------------------
User input:
--------------------------------------------------------------
$molecule
0   1
 Fe -1428.55004985 14.95135768 38.56412344    -1  0   0   0   0
C -1427.22792424 16.06403466 35.58186889    -2  0   0   0   0 
C -1428.99584301 15.10779940 42.13413391    -2  0   0   0   0
C -1430.39170489 17.69832065 38.43525092    -2  0   0   0   0
C -1430.69647695 12.50550690 37.72361329    -2  0   0   0   0
C -1425.43980513 13.54051729 39.20928857    -2  0   0   0   0
O -1426.40279982 16.99140993 33.76635433    -3  0   0   0   0
O -1428.93285701 15.42098310 44.27233300    -3  0   0   0   0 
O -1431.80855751 19.47625994 38.56747730    -3  0   0   0   0
O -1432.05132082 10.92956656 36.91172668    -3  0   0   0   0 
O -1423.47666845 12.62705508 39.42306984    -3  0   0   0   0
H -1447.20420287 38.41223173 29.82273390      6     13    0    0    0 
C -1446.65931068 39.23726268 28.00331152     1     12    14    15    16
H -1447.15052076 41.24944848 28.12138613     6     13    0    0    0
H -1444.64568723 39.10699444 27.50397682     6     13    0    0    0
C -1447.99996375 37.86588294 25.75061029     2     13    17    18    19
H -1450.09633734 37.55234641 25.91746398     6     16    0    0    0
H -1447.79317200 38.74504176 23.90091977     6     16    0    0    0
C -1447.02044863 35.16479772 25.51592697     2     16    20   21   22
H -1445.02605181 35.15126669 25.39967048     6     19    0    0    0
H -1447.67172821 34.17504555 27.12898137     6     19    0    0    0
C -1448.00851174 33.75847215 23.09879829     2     19   23   24   25
H -1449.93770445 33.15806798 23.38543046     6    22    0    0    0
H -1448.03840589 35.18526984 21.56163960     6    22    0    0    0
C -1446.29918733 31.71475907 22.31749060     2    22   26   27   28
H -1444.34857811 32.38002909 22.01274764     6    25    0    0    0
H -1446.28876595 30.21310530 23.63558793     6    25    0    0    0
C -1446.94855335 30.42059540 19.78674463     2    25   29   30   31
H -1448.68579357 29.41160004 20.17193895     6    28    0    0    0
H -1447.12960873 31.79600667 18.33488054     6    28    0    0    0
C -1444.95689467 28.32093972 19.04939172     2    28   32   33   34
H -1443.25600099 29.39510577 18.89481866     6    31    0    0    0
H -1444.66186346 26.94489933 20.64508115     6    31    0    0    0
C -1445.79760291 26.87833498 16.52375837     2    31   35   36   37
H -1447.83252819 26.43825018 16.36685972     6    34    0    0    0
H -1445.55670997 28.16673811 14.93990522     6    34    0    0    0
C -1444.12528310 24.46237183 16.09418702     2    34   38   39   40
H -1442.28950159 24.79734950 16.67062056     6    37    0    0    0
H -1444.70666392 22.79655246 17.29446924     6    37    0    0    0
C -1444.21211239 23.50495911 13.37392271     2    37   41   42   43
H -1446.01485661 23.10980635 12.70073792     6    40    0    0    0
H -1443.53521893 25.16407997 12.22196423     6    40    0    0    0
C -1442.41506304 21.27480061 12.86871968     2    40   44   45   46
H -1440.53324082 21.59474606 13.72699614     6    43    0    0    0
H -1443.19189120 19.45477675 13.77821794     6    43    0    0    0
C -1441.92387452 20.74744402 10.12952488     1    43   47   48   49
H -1440.80644259 19.00813580 9.70174767     6    46    0    0    0
H -1440.79845593 22.38989716 9.37434392     6    46    0    0    0
H -1443.63162331 20.48410688 8.89465206     6    46    0    0    0
H -1425.89046184 12.68184612 26.25076738     6     51    0    0    0 
C -1426.42346469 13.74243687 27.90376566     1     50    52    53    54
H -1427.43161288 12.42688060 29.26963906     6     51    0    0    0
H -1424.72864857 14.42702608 28.77886352     6     51    0    0    0
C -1428.18747326 16.00417502 27.29218235     2     51    55    56    57
H -1428.97682663 16.82291563 28.96067250     6     54    0    0    0
H -1427.22723985 17.53513906 26.40546544     6     54    0    0    0
C -1430.28994078 15.13832139 25.50372103     2     54    58   59   60
H -1431.02957329 13.42359413 26.24620264     6     57    0    0    0
H -1431.95176235 16.38787595 25.44592353     6     57    0    0    0
C -1429.46881899 15.26774603 22.75366707     2     57   61   62   63
H -1428.98536654 17.26074568 22.29942576     6    60    0    0    0
H -1428.00469931 13.88826416 22.26434112     6    60    0    0    0
C -1431.82531343 14.55462721 21.14070514     2    60   64   65   66
H -1432.47472678 12.65136059 21.55600367     6    63    0    0    0
H -1433.34133025 15.84231261 21.63504211     6    63    0    0    0
C -1431.31154387 14.81514287 18.35905272     2    63   67   68   69
H -1433.11350942 15.15475715 17.30571361     6    66    0    0    0
H -1429.98030943 16.30678467 18.03721323     6    66    0    0    0
C -1430.13195643 12.48181782 17.07545358     2    66   70   71   72
H -1428.14759916 12.29214793 17.80175248     6    69    0    0    0
H -1431.19482237 10.82907953 17.66918486     6    69    0    0    0
C -1429.70200224 12.64672292 14.17766644     2    69   73   74   75
H -1431.53538585 13.16716773 13.48382056     6    72    0    0    0
H -1428.38211866 14.18727693 13.82000181     6    72    0    0    0
C -1428.83595141 10.09063113 13.04542258     2    72   76   77   78
H -1427.08665952 9.51631300 13.92662813     6    75    0    0    0
H -1430.25113809 8.55165070 13.41400809     6    75    0    0    0
C -1428.37878330 10.40925968 10.18897523     2    75   79   80   81
H -1430.14911196 10.35331346 9.20320811     6    78    0    0    0
H -1427.74991500 12.46337548 9.88016840     6    78    0    0    0
C -1426.74218856 8.28844916 9.21214239     2    78   82   83   84
H -1424.71412927 8.90189794 9.56196049     6    81    0    0    0
H -1427.01752097 6.51944297 10.18741673     6    81    0    0    0
C -1427.01595099 8.07488525 6.35045031     1    81   85   86   87
H -1426.12385439 6.54835654 5.81670811     6    84    0    0    0
H -1426.21237288 9.69797767 5.36675890     6    84    0    0    0
H -1428.88333609 7.65995701 5.76176821     6    84    0    0    0
H -1453.43236216 32.50047294 30.65821640     6     89    0    0    0 
C -1453.47941768 30.44297447 29.99694733     1     88    90    91    92
H -1452.43603738 29.28679362 31.37132869     6     89    0    0    0
H -1455.55780140 29.83348068 30.22759905     6     89    0    0    0
C -1452.62974575 30.13231455 27.30653578     2     89    93    94    95
H -1453.30093516 31.70994110 26.03751672     6     92    0    0    0
H -1450.51057665 29.91986230 27.13290739     6     92    0    0    0
C -1453.77559078 27.76098605 26.01379499     2     92    96   97   98
H -1453.01944282 26.08641523 26.88562765     6     95    0    0    0
H -1455.82659862 27.81347356 26.17814694     6     95    0    0    0
C -1453.17452653 27.52340626 23.15657236     2     95   99   100   101
H -1454.00845716 29.08834474 22.05576988     6    98    0    0    0
H -1451.03734073 27.72512801 22.98449825     6    98    0    0    0
C -1454.18221365 25.12045039 22.13248358     2    98   102   103   104
H -1452.96088989 23.60816385 22.53884718     6    101    0    0    0
H -1456.04669843 24.75799701 22.99651712     6    101    0    0    0
C -1454.42697307 25.30926489 19.16445134     2    101   105   106   107
H -1455.96667711 26.66142959 18.84133226     6    104    0    0    0
H -1452.73561401 26.27132100 18.47001620     6    104    0    0    0
C -1454.78265492 22.73665989 17.89898298     2    104   108   109   110
H -1452.93589162 21.75640609 17.66748322     6    107    0    0    0
H -1455.84371269 21.57168112 19.25043612     6    107    0    0    0
C -1456.15962589 23.05166233 15.35053686     2    107   111   112   113
H -1458.03924530 23.32443397 15.73561401     6    110    0    0    0
H -1455.72811721 24.81431503 14.33828037     6    110    0    0    0
C -1455.49720730 20.72014710 13.58908630     2    110   114   115   116
H -1453.40026037 20.75917534 13.26258142     6    113    0    0    0
H -1455.82785167 19.11815389 14.67203343     6    113    0    0    0
C -1456.95312426 21.24804464 11.08284718     2    113   117   118   119
H -1458.91710656 20.84750703 11.49390796     6    116    0    0    0
H -1456.80951472 23.21222488 10.30180255     6    116    0    0    0
C -1455.99212461 19.73402902 8.79944959     2    116   120   121   122
H -1456.37362484 20.99862583 7.23745635     6    119    0    0    0
H -1453.91777795 19.86650153 9.08141618     6    119    0    0    0
C -1456.84299414 17.14237941 8.34266713     1    119   123   124   125
H -1455.90988744 16.63218518 6.69235463     6    122    0    0    0
H -1458.82464447 17.10413506 8.27743990     6    122    0    0    0
H -1456.25917301 15.75717447 9.76958198     6    122    0    0    0
H -1465.66009920 16.08349714 51.60445384     6     127    0    0    0 
C -1464.04623449 15.17190696 52.45969076     1     126    128    129    130
H -1464.03583887 15.94559771 54.37135099     6     127    0    0    0
H -1464.30822748 13.20136157 52.34731481     6     127    0    0    0
C -1461.84477015 16.02890585 50.85861214     2     127    131    132    133
H -1462.16734178 15.32780744 48.93519831     6     130    0    0    0
H -1461.45848680 18.03986867 50.93518789     6     130    0    0    0
C -1459.57285220 14.38740795 51.56384381     2     130    134   135   136
H -1459.14812059 14.76103671 53.57448773     6     133    0    0    0
H -1459.82635784 12.38073788 51.23614814     6     133    0    0    0
C -1457.07612659 15.15451632 50.16481848     2     133   137   138   139
H -1457.25777428 14.62149107 48.13115889     6    136    0    0    0
H -1456.70916510 17.25525729 50.13328228     6    136    0    0    0
C -1454.77878775 13.64645025 50.98427696     2    136   140   141   142
H -1454.31622062 13.95932025 53.00139877     6    139    0    0    0
H -1454.92569434 11.65597628 50.60995553     6    139    0    0    0
C -1452.61663361 14.92331754 49.69303518     2    139   143   144   145
H -1453.11469748 15.12932536 47.81069557     6    142    0    0    0
H -1452.39344120 16.98871076 50.19340166     6    142    0    0    0
C -1450.22123666 13.37919891 49.95193301     2    142   146   147   148
H -1449.64935299 13.06873065 51.99804702     6    145    0    0    0
H -1450.56090563 11.37465655 49.39148289     6    145    0    0    0
C -1447.91554599 14.38108762 48.40517518     2    145   149   150   151
H -1448.40587784 14.44586518 46.34552696     6    148    0    0    0
H -1447.69217302 16.38154097 49.12534288     6    148    0    0    0
C -1445.50744986 12.76928752 48.88291665     2    148   152   153   154
H -1444.78236220 13.01492543 50.80321330     6    151    0    0    0
H -1445.90566112 10.78025168 48.42263473     6    151    0    0    0
C -1443.45390656 13.40999370 46.94785446     2    151   155   156   157
H -1441.87980697 12.13447871 47.37030917     6    154    0    0    0
H -1444.20118428 12.84203865 45.17279214     6    154    0    0    0
C -1442.48573091 16.20258515 46.88852050     2    154   158   159   160
H -1443.91188173 17.68669400 46.64616441     6    157    0    0    0
H -1441.69598235 16.45796326 48.62497273     6    157    0    0    0
C -1440.60298568 16.62027432 44.75899086     1    157   161   162   163
H -1439.95589260 18.57681152 44.61674910     6    160    0    0    0
H -1441.27501211 16.21994019 42.80746166     6    160    0    0    0
H -1439.06691740 15.40658466 45.00285882     6    160    0    0    0
H -1465.90259652 -0.18200127 36.39058814     6     165    0    0    0 
C -1465.98071915 -1.47799990 38.08084437     1     164    166    167    168
H -1467.34023920 -0.75855250 39.53751630     6     165    0    0    0
H -1466.57647230 -3.41695285 37.55638976     6     165    0    0    0
C -1463.46041642 -1.43054304 39.45784290     2     165    169    170    171
H -1462.08412092 -2.66630425 38.47832509     6     168    0    0    0
H -1462.83312870 0.42302887 39.64897943     6     168    0    0    0
C -1463.49404133 -2.91322241 41.99649879     2     168    172   173   174
H -1464.87470883 -2.14831964 43.23893993     6     171    0    0    0
H -1463.94613076 -4.95434303 41.68534320     6     171    0    0    0
C -1460.97731136 -2.72973126 43.51280878     2     171   175   176   177
H -1459.53038837 -2.69012756 42.14504580     6    174    0    0    0
H -1460.89794541 -1.02299252 44.54261279     6    174    0    0    0
C -1460.55565599 -4.85331381 45.53331400     2    174   178   179   180
H -1462.03053275 -4.61630749 46.93633667     6    177    0    0    0
H -1460.95325449 -6.58617105 44.74782927     6    177    0    0    0
C -1457.90896111 -5.01975306 46.66524844     2    177   181   182   183
H -1456.60688255 -5.28538426 45.28255064     6    180    0    0    0
H -1457.53308403 -3.02680393 47.30429208     6    180    0    0    0
C -1457.34542381 -6.93290636 48.75560413     2    180   184   185   186
H -1458.66792751 -6.94393406 50.34098968     6    183    0    0    0
H -1457.61746860 -8.85013049 47.96574720     6    183    0    0    0
C -1454.53112147 -6.54727890 49.39891013     2    183   187   188   189
H -1453.30792592 -6.67771758 47.70995546     6    186    0    0    0
H -1454.31908548 -4.77717228 50.41533702     6    186    0    0    0
C -1453.76418881 -8.64863647 51.24593204     2    186   190   191   192
H -1455.32746236 -8.84698171 52.57513612     6    189    0    0    0
H -1453.84390838 -10.31017061 50.07875179     6    189    0    0    0
C -1451.17527314 -8.13355460 52.38447401     2    189   193   194   195
H -1449.73176104 -8.11717264 50.89048937     6    192    0    0    0
H -1451.10184535 -6.38363762 53.39170711     6    192    0    0    0
C -1450.43874875 -10.11813039 54.25149407     2    192   196   197   198
H -1451.54695125 -9.95905129 56.06756190     6    195    0    0    0
H -1450.62957750 -11.95548264 53.31907458     6    195    0    0    0
C -1447.73026208 -9.94879355 55.17392282     1    195   199   200   201
H -1447.32214794 -11.63739861 56.30268623     6    198    0    0    0
H -1447.37354043 -8.12426636 56.13259206     6    198    0    0    0
H -1446.45816614 -10.04903661 53.50524503     6    198    0    0    0
H -1451.30471452 0.14440919 24.59819633     6     203    0    0    0 
C -1452.59687385 -1.00500005 23.54766014     1     202    204    205    206
H -1452.55439754 -2.76326609 24.54834516     6     203    0    0    0
H -1454.37572785 -0.13292256 23.37975542     6     203    0    0    0
C -1451.67264204 -1.17926176 20.92387143     2     203    207    208    209
H -1452.98951397 -2.27562159 19.76265134     6     206    0    0    0
H -1451.79347671 0.69249900 20.09565721     6     206    0    0    0
C -1448.93167399 -2.22013693 20.67179890     2     206    210   211   212
H -1448.52789769 -1.70453328 18.80065328     6     209    0    0    0
H -1447.56022285 -1.25691220 21.93261996     6     209    0    0    0
C -1448.49257049 -5.18928325 20.85520700     2     209   213   214   215
H -1448.33028907 -5.93593160 22.77446033     6    212    0    0    0
H -1450.18506340 -6.23515338 20.14453988     6    212    0    0    0
C -1446.26939418 -6.31429829 19.21594002     2    212   216   217   218
H -1446.82033601 -6.53342094 17.33204480     6    215    0    0    0
H -1444.78348553 -4.91157069 19.12588411     6    215    0    0    0
C -1445.32207364 -8.82420976 20.44963064     2    215   219   220   221
H -1444.98717801 -8.74668412 22.46032680     6    218    0    0    0
H -1446.78272629 -10.39646949 20.49776033     6    218    0    0    0
C -1442.99684740 -9.74006713 18.96572178     2    218   222   223   224
H -1443.35718873 -10.24638777 17.05469096     6    221    0    0    0
H -1441.79987321 -8.07708836 18.63930493     6    221    0    0    0
C -1441.95586283 -12.10063105 20.27634619     2    221   225   226   227
H -1441.93814778 -11.79268473 22.24737438     6    224    0    0    0
H -1443.31279137 -13.77790362 20.38900600     6    224    0    0    0
C -1439.21134962 -12.80814960 19.58528920     2    224   228   229   230
H -1439.17863693 -13.09526951 17.56039067     6    227    0    0    0
H -1437.80828184 -11.35322183 19.92149802     6    227    0    0    0
C -1438.39869514 -15.30544518 21.07281241     2    227   231   232   233
H -1438.83085138 -14.86635618 23.10178477     6    230    0    0    0
H -1439.72887555 -16.84849459 20.60550011     6    230    0    0    0
C -1435.82986057 -16.23032731 20.59060323     2    230   234   235   236
H -1435.86609728 -16.61656555 18.57299147     6    233    0    0    0
H -1434.69255750 -14.63525998 20.81945168     6    233    0    0    0
C -1434.80490947 -18.27903724 22.25003192     1    233   237   238   239
H -1432.92954147 -18.76922953 21.61215480     6    236    0    0    0
H -1435.84362483 -20.07106887 22.21081251     6    236    0    0    0
H -1434.36536889 -17.66733426 24.18082173     6    236    0    0    0
H -1435.71902114 8.59598438 5.85564539     6     241    0    0    0 
C -1437.38295586 8.95711027 6.97803148     1     240    242    243    244
H -1438.77705323 7.41537752 6.71805546     6     241    0    0    0
H -1436.97063972 8.90405385 9.03551239     6     241    0    0    0
C -1438.77857558 11.54710231 6.52386575     2     241    245    246    247
H -1439.31749042 11.73208037 4.54121159     6     244    0    0    0
H -1440.63888442 11.43666143 7.31913141     6     244    0    0    0
C -1437.46522406 13.86901007 7.57982468     2     244    248   249   250
H -1438.71988890 15.56672163 7.94246383     6     247    0    0    0
H -1437.08659432 13.59655466 9.64620687     6     247    0    0    0
C -1434.97089284 14.48087653 6.48553246     2     247   251   252   253
H -1433.98729466 15.95280817 7.31118332     6    250    0    0    0
H -1433.94773342 12.77000937 6.46574701     6    250    0    0    0
C -1435.07823173 15.07262952 3.63730545     2    250   254   255   256
H -1435.96722815 13.51431538 2.56015192     6    253    0    0    0
H -1436.41849188 16.64847669 3.29299581     6    253    0    0    0
C -1432.68816776 15.88256245 2.26703402     2    253   257   258   259
H -1433.37182795 16.03199629 0.37264420     6    256    0    0    0
H -1432.16023215 17.69719777 3.04523293     6    256    0    0    0
C -1430.75776059 13.68792344 2.14373860     2    256   260   261   262
H -1429.85802979 13.57654701 4.00075195     6    259    0    0    0
H -1431.54072362 11.90605559 1.62460922     6    259    0    0    0
C -1428.53754174 14.27824822 0.40406648     2    259   263   264   265
H -1429.26645796 14.61817714 -1.51712327     6    262    0    0    0
H -1427.59894043 16.08661183 1.00914358     6    262    0    0    0
C -1426.38351792 12.36027929 0.16039869     2    262   266   267   268
H -1425.34870144 12.23343696 1.87219552     6    265    0    0    0
H -1427.37477305 10.60541031 -0.22648087     6    265    0    0    0
C -1424.48788379 12.82147655 -1.91980938     2    265   269   270   271
H -1425.46604653 12.61544703 -3.73873001     6    268    0    0    0
H -1423.57153485 14.72317624 -1.87296659     6    268    0    0    0
C -1422.59001891 10.57962251 -2.08115484     2    268   272   273   274
H -1421.67173253 10.44438301 -0.22342468     6    271    0    0    0
H -1423.56160790 8.85488903 -2.34171510     6    271    0    0    0
C -1420.69547309 11.06805048 -4.19015637     1    271   275   276   277
H -1421.50385253 10.49414656 -5.93003673     6    274    0    0    0
H -1418.91148908 9.92502784 -3.67723975     6    274    0    0    0
H -1420.16935212 13.03153746 -4.29854081     6    274    0    0    0
H -1456.71750320 -0.50202361 14.82098760     6     279    0    0    0 
C -1455.47116751 0.44695528 13.59564495     1     278    280    281    282
H -1456.29782340 0.53416396 11.74358587     6     279    0    0    0
H -1455.09494364 2.33707654 14.17281760     6     279    0    0    0
C -1452.94230756 -1.10523622 13.56985399     2     279    283    284    285
H -1452.12643886 -0.95845909 15.51894478     6     282    0    0    0
H -1453.15209379 -2.99576508 13.03528530     6     282    0    0    0
C -1451.07802161 0.20093715 11.79906729     2     282    286   287   288
H -1451.83781151 0.14291041 9.93532562     6     285    0    0    0
H -1450.97103006 2.11101563 12.35828821     6     285    0    0    0
C -1448.55400442 -1.18212036 11.91553141     2     285   289   290   291
H -1447.77555100 -1.35807352 13.77469710     6    288    0    0    0
H -1448.85578429 -3.06044739 11.49174578     6    288    0    0    0
C -1446.55194566 -0.01994672 10.19476232     2    288   292   293   294
H -1446.91480914 -0.21403652 8.20255173     6    291    0    0    0
H -1446.49157911 2.07212388 10.44651612     6    291    0    0    0
C -1443.97753909 -1.10214177 10.55842763     2    291   295   296   297
H -1443.29356661 -0.53942931 12.43527081     6    294    0    0    0
H -1444.35236303 -3.17258294 10.70473130     6    294    0    0    0
C -1442.02393945 -0.73692784 8.51673296     2    294   298   299   300
H -1442.50919689 -1.61412506 6.75196263     6    297    0    0    0
H -1441.98088729 1.16684286 8.05170592     6    297    0    0    0
C -1439.49807169 -1.81521022 9.35405367     2    297   301   302   303
H -1438.70384337 -0.50905546 10.78937615     6    300    0    0    0
H -1439.81652836 -3.77771459 10.10098900     6    300    0    0    0
C -1437.54105961 -2.03078138 7.29684361     2    300   304   305   306
H -1438.22981898 -3.12612958 5.77144498     6    303    0    0    0
H -1437.49612928 0.04562604 6.66711918     6    303    0    0    0
C -1434.93437941 -3.10977685 7.77742660     2    303   307   308   309
H -1433.79298779 -2.72401072 6.16380444     6    306    0    0    0
H -1434.16674071 -2.02820799 9.38994239     6    306    0    0    0
C -1434.96932896 -5.93354385 8.31809360     2    306   310   311   312
H -1436.23972987 -6.41118776 9.75430656     6    309    0    0    0
H -1435.47678813 -6.67150752 6.38396116     6    309    0    0    0
C -1432.26218851 -6.91867898 9.01006513     1    309   313   314   315
H -1432.21901871 -8.86070100 9.82787560     6    312    0    0    0
H -1431.09064865 -5.93080954 10.46568573     6    312    0    0    0
H -1431.14705636 -6.77850578 7.11187544     6    312    0    0    0
H -1445.51291180 13.16524791 26.08772451     6     317    0    0    0 
C -1444.36142934 12.13442046 27.50159606     1     316    318    319    320
H -1445.67552398 11.08058096 28.63662934     6     317    0    0    0
H -1443.03715882 10.74228193 26.74427386     6     317    0    0    0
C -1442.81794154 14.05197778 29.00067559     2     317    321    322    323
H -1441.58496369 13.07147116 30.24772906     6     320    0    0    0
H -1441.44598567 15.21912246 28.13073803     6     320    0    0    0
C -1444.52630774 15.77263711 30.51785190     2     320    324   325   326
H -1445.68696675 16.86682933 29.15971646     6     323    0    0    0
H -1446.06953672 14.82121507 31.59025139     6     323    0    0    0
C -1442.93032829 17.68428416 32.08237870     2     323   327   328   329
H -1441.51556305 16.93165540 33.30425605     6    326    0    0    0
H -1441.60158476 18.62778562 30.86173255     6    326    0    0    0
C -1444.61444506 19.67714990 33.41691474     2    326   330   331   332
H -1445.82135313 20.46073411 32.12412527     6    329    0    0    0
H -1445.84268465 18.60788395 34.73204604     6    329    0    0    0
C -1442.87080982 21.57364522 34.58087903     2    329   333   334   335
H -1441.28783910 21.89296401 33.32573754     6    332    0    0    0
H -1443.74452749 23.41036445 34.57511312     6    332    0    0    0
C -1441.74898118 20.81369226 37.23162045     2    332   336   337   338
H -1443.04884100 20.70254682 38.74031508     6    335    0    0    0
H -1440.73400870 18.99273880 37.09134057     6    335    0    0    0
C -1439.92334365 22.72221200 38.16087833     2    335   339   340   341
H -1439.03019396 21.64681602 39.72202126     6    338    0    0    0
H -1438.42894500 23.27788256 36.76419037     6    338    0    0    0
C -1441.22899184 25.07920354 39.26279893     2    338   342   343   344
H -1441.71010811 26.30031084 37.65879075     6    341    0    0    0
H -1443.08212822 24.62366734 40.13823192     6    341    0    0    0
C -1439.48238327 26.64078989 41.01829687     2    341   345   346   347
H -1440.39562335 28.41922751 41.14369256     6    344    0    0    0
H -1439.11325289 25.64261477 42.83060283     6    344    0    0    0
C -1436.89028946 27.28139058 39.81114164     2    344   348   349   350
H -1435.73167114 25.62326829 39.88537127     6    347    0    0    0
H -1437.01529251 27.67877197 37.80663543     6    347    0    0    0
C -1435.64461622 29.42410685 41.30185669     1    347   351   352   353
H -1433.68326329 29.58753185 40.78359561     6    350    0    0    0
H -1435.88320150 29.67923556 43.33779591     6    350    0    0    0
H -1436.43237919 31.24618229 40.80522187     6    350    0    0    0
H -1443.75219804 5.82208874 15.12187924     6     355    0    0    0 
C -1444.36108723 6.03463270 17.04395228     1     354    356    357    358
H -1443.76457374 4.27147443 17.84695296     6     355    0    0    0
H -1443.21481745 7.60741418 17.60274816     6     355    0    0    0
C -1447.19906698 6.33367074 17.58516476     2     355    359    360    361
H -1447.88092172 7.82717028 16.40985305     6     358    0    0    0
H -1448.31350037 4.62147511 17.08665432     6     358    0    0    0
C -1447.52626731 6.90207530 20.44000892     2     358    362   363   364
H -1446.58052914 5.39265839 21.56402748     6     361    0    0    0
H -1446.68425294 8.73903953 20.80079424     6     361    0    0    0
C -1450.39851094 6.94699169 21.14480636     2     361   365   366   367
H -1451.36908259 8.31986586 19.86075655     6    364    0    0    0
H -1451.22866019 5.02227114 20.76385289     6    364    0    0    0
C -1451.01352738 7.44174916 23.98821229     2    364   368   369   370
H -1449.68935694 6.40488245 25.19043095     6    367    0    0    0
H -1450.74104957 9.42334282 24.26434722     6    367    0    0    0
C -1453.93298904 7.04338489 24.49399800     2    367   371   372   373
H -1454.95953808 8.11498422 23.11183105     6    370    0    0    0
H -1454.07761856 4.98128171 24.44055198     6    370    0    0    0
C -1454.57318549 7.61062653 27.32917030     2    370   374   375   376
H -1453.09695928 6.86526709 28.50171003     6    373    0    0    0
H -1454.63132125 9.63011784 27.87360390     6    373    0    0    0
C -1457.13243278 6.38210564 27.96020825     2    373   377   378   379
H -1458.58387567 7.00456276 26.64782305     6    376    0    0    0
H -1457.03161809 4.43844474 27.35786388     6    376    0    0    0
C -1458.07604150 6.81248541 30.67640852     2    376   380   381   382
H -1458.41215990 8.78977509 30.93949966     6    379    0    0    0
H -1459.98743576 6.05884511 30.68370870     6    379    0    0    0
C -1456.49958841 5.37602175 32.74974621     2    379   383   384   385
H -1456.88494586 3.42103371 32.73333196     6    382    0    0    0
H -1454.57759829 5.65831718 32.19294406     6    382    0    0    0
C -1457.02994474 6.43745521 35.38833104     2    382   386   387   388
H -1455.70574270 5.62035514 36.67113179     6    385    0    0    0
H -1456.73895839 8.54388571 35.51556045     6    385    0    0    0
C -1459.67412009 5.68206155 36.38596659     1    385   389   390   391
H -1460.51162497 6.87615057 37.82272200     6    388    0    0    0
H -1459.50130264 4.04026959 37.29180943     6    388    0    0    0
H -1461.10600209 5.22999507 34.90560369     6    388    0    0    0
H -1421.80079892 31.54937393 48.73875924     6     393    0    0    0 
C -1420.31356341 30.77423777 47.40842393     1     392    394    395    396
H -1419.07969355 32.42060413 47.30227121     6     393    0    0    0
H -1419.41854704 29.11952399 48.42392718     6     393    0    0    0
C -1421.08940642 29.70631166 44.77967685     2     393    397    398    399
H -1422.61524024 28.19928140 44.92361493     6     396    0    0    0
H -1421.82397258 31.33760052 43.63684470     6     396    0    0    0
C -1418.76005179 28.63465312 43.39541847     2     396    400   401   402
H -1417.33263952 29.88761271 44.09790926     6     399    0    0    0
H -1418.45365539 26.72109588 44.12317410     6     399    0    0    0
C -1419.17359569 28.78892022 40.51924339     2     399   403   404   405
H -1420.77318276 27.69394425 39.81924422     6    402    0    0    0
H -1419.31510394 30.62276027 39.93165797     6    402    0    0    0
C -1416.78238146 27.66263328 38.99696132     2    402   406   407   408
H -1415.13125529 28.91685737 39.47464415     6    405    0    0    0
H -1416.57354922 25.65960511 39.56076176     6    405    0    0    0
C -1417.04528786 27.86703581 36.19289978     2    405   409   410   411
H -1418.78324748 27.06481850 35.52659354     6    408    0    0    0
H -1417.27293438 29.90860574 35.67332394     6    408    0    0    0
C -1414.93415980 26.57681909 34.47433213     2    408   412   413   414
H -1413.19838371 27.35916554 35.32447747     6    411    0    0    0
H -1415.16503280 24.49544440 34.82942753     6    411    0    0    0
C -1415.20259499 26.94358248 31.59226506     2    411   415   416   417
H -1417.13129201 26.49432181 31.03264718     6    414    0    0    0
H -1414.87965381 28.95241744 31.17491001     6    414    0    0    0
C -1413.33475847 25.18537509 30.11771557     2    414   418   419   420
H -1411.36603989 25.59900443 30.44378453     6    417    0    0    0
H -1413.51584254 23.19439250 30.62621322     6    417    0    0    0
C -1413.85924714 25.60848841 27.32346653     2    417   421   422   423
H -1415.82705353 25.09055117 26.97894392     6    420    0    0    0
H -1413.71885094 27.63438597 27.05420730     6    420    0    0    0
C -1412.03852243 24.16798028 25.54711499     2    420   424   425   426
H -1412.07468556 24.91973574 23.59261048     6    423    0    0    0
H -1410.10101349 24.38372904 26.05900149     6    423    0    0    0
C -1412.61542372 21.24857250 25.27296846     1    423   427   428   429
H -1411.60697197 19.95809928 26.42346776     6    426    0    0    0
H -1412.27212669 20.57875505 23.31212407     6    426    0    0    0
H -1414.48764195 20.92088487 25.47621342     6    426    0    0    0
H -1426.61409406 25.38748095 12.38179325     6     431    0    0    0 
C -1426.59427226 27.43318969 12.08637714     1     430    432    433    434
H -1424.79840425 28.17568150 11.41637438     6     431    0    0    0
H -1427.97474704 27.47687560 10.52404245     6     431    0    0    0
C -1427.60517061 28.66624419 14.56454577     2     431    435    436    437
H -1429.23605881 27.57927835 15.06232544     6     434    0    0    0
H -1426.15062283 28.36995519 16.12097935     6     434    0    0    0
C -1428.20834486 31.39297867 14.55872895     2     434    438   439   440
H -1426.62926613 32.49357668 13.95277420     6     437    0    0    0
H -1429.82433506 31.74789303 13.49404347     6     437    0    0    0
C -1428.55039333 32.49381470 17.20029199     2     437   441   442   443
H -1429.65032649 34.25720865 17.20689562     6    440    0    0    0
H -1429.50384817 31.05623938 18.40787886     6    440    0    0    0
C -1426.04804209 32.93508949 18.71245117     2    440   444   445   446
H -1425.26664471 31.09915868 19.14792443     6    443    0    0    0
H -1424.76114232 34.08907620 17.56717323     6    443    0    0    0
C -1426.47177116 34.27634554 21.28439054     2    443   447   448   449
H -1427.11116526 36.19713216 20.89097280     6    446    0    0    0
H -1428.05777860 33.27400576 22.10891536     6    446    0    0    0
C -1424.39244739 34.21323110 23.08508960     2    446   450   451   452
H -1424.40613295 32.14765960 23.85181385     6    449    0    0    0
H -1422.68590266 34.69541847 22.07719523     6    449    0    0    0
C -1424.75811041 36.02746674 25.31323530     2    449   453   454   455
H -1426.17566637 37.48240975 24.81903268     6    452    0    0    0
H -1425.40114751 34.84867809 26.87733766     6    452    0    0    0
C -1422.42464360 37.28675079 26.14206747     2    452   456   457   458
H -1420.94092021 36.01790243 26.70385619     6    455    0    0    0
H -1421.58111455 38.37169823 24.68473647     6    455    0    0    0
C -1422.73467446 39.12481448 28.16287975     2    455   459   460   461
H -1421.05649324 40.25458588 28.47015247     6    458    0    0    0
H -1424.13086867 40.38084361 27.42988290     6    458    0    0    0
C -1423.44617101 37.95807270 30.74020817     2    458   462   463   464
H -1425.06207672 36.71452596 30.65066124     6    461    0    0    0
H -1421.77432036 36.89469617 31.54320643     6    461    0    0    0
C -1424.02455566 39.97854308 32.74894717     1    461   465   466   467
H -1425.66160301 41.00148281 32.14582861     6    464    0    0    0
H -1422.38320725 41.29410612 32.85532689     6    464    0    0    0
H -1424.07935540 39.26137289 34.70801303     6    464    0    0    0
H -1455.11393994 19.42470505 32.37794998     6     469    0    0    0 
C -1456.90711943 20.22130477 31.63993426     1     468    470    471    472
H -1458.34010599 18.93129585 32.44586121     6     469    0    0    0
H -1457.00507304 22.06940025 32.45230463     6     469    0    0    0
C -1457.12070301 20.18673044 28.81645980     2     469    473    474    475
H -1458.92834561 20.88809252 28.13257724     6     472    0    0    0
H -1455.94893564 21.73770150 28.18426366     6     472    0    0    0
C -1456.50257049 17.84192276 27.34835264     2     472    476   477   478
H -1454.49680707 17.46675237 27.61167878     6     475    0    0    0
H -1457.54608570 16.18632913 28.02205678     6     475    0    0    0
C -1456.83443023 18.12773332 24.49520567     2     475   479   480   481
H -1458.74008439 18.73464682 24.17606010     6    478    0    0    0
H -1455.38932455 19.38686894 23.54406651     6    478    0    0    0
C -1456.61127558 15.59352903 23.25363993     2    478   482   483   484
H -1454.91178806 14.72784041 24.18840332     6    481    0    0    0
H -1458.22793264 14.45217330 23.77834223     6    481    0    0    0
C -1456.44853320 15.68761820 20.40717580     2    481   485   486   487
H -1458.05612733 16.45763953 19.55731665     6    484    0    0    0
H -1454.91749221 16.97107255 19.68151508     6    484    0    0    0
C -1455.83451340 13.11541582 19.18656806     2    484   488   489   490
H -1454.13439887 12.36078726 20.01988224     6    487    0    0    0
H -1457.12556784 11.67242447 19.92671151     6    487    0    0    0
C -1455.85634982 13.37118777 16.28994738     2    487   491   492   493
H -1457.40566186 14.39821134 15.51965686     6    490    0    0    0
H -1454.29651923 14.53871375 15.78361686     6    490    0    0    0
C -1455.45249859 10.69342740 15.14367347     2    490   494   495   496
H -1453.66857593 10.09741310 15.97704260     6    493    0    0    0
H -1456.80806552 9.27076954 15.74569961     6    493    0    0    0
C -1455.00345618 10.84641928 12.19194013     2    493   497   498   499
H -1456.60649219 11.20456982 10.99835528     6    496    0    0    0
H -1454.03479411 12.58487935 11.81135590     6    496    0    0    0
C -1453.32405434 8.72192359 10.99891477     2    496   500   501   502
H -1451.50847690 8.63308206 12.06855355     6    499    0    0    0
H -1454.00504468 6.84089125 11.19895458     6    499    0    0    0
C -1452.89237409 9.35418457 8.16680765     1    499   503   504   505
H -1451.78231913 7.83527323 7.28285030     6    502    0    0    0
H -1451.65179640 10.97779025 7.90278947     6    502    0    0    0
H -1454.55188900 9.27546170 7.02858902     6    502    0    0    0
H -1415.19577593 13.54586163 -0.70343437     6     507    0    0    0 
C -1415.81957915 15.50911141 -0.10093639     1     506    508    509    510
H -1414.02560138 16.51321974 -0.53580431     6     507    0    0    0
H -1417.20813332 16.26474909 -1.52390397     6     507    0    0    0
C -1416.49499149 15.67498067 2.68165858     2     507    511    512    513
H -1418.21062461 14.51545661 3.15309784     6     510    0    0    0
H -1415.03481585 14.90640604 3.88372791     6     510    0    0    0
C -1416.64336588 18.38112683 3.89803222     2     510    514   515   516
H -1415.04397416 19.57378501 3.39734842     6     513    0    0    0
H -1418.28114111 19.30758917 2.96774261     6     513    0    0    0
C -1417.14087458 18.40374871 6.50482755     2     513   517   518   519
H -1418.83950763 17.13106446 7.04303307     6    516    0    0    0
H -1415.63695801 17.47006463 7.57256118     6    516    0    0    0
C -1418.33337938 20.72145783 7.76586398     2    516   520   521   522
H -1417.44054697 22.33088166 6.83780635     6    519    0    0    0
H -1420.27903584 20.74521714 7.22919620     6    519    0    0    0
C -1417.97711870 20.66603260 10.65734054     2    519   523   524   525
H -1419.08624216 19.18330700 11.51263290     6    522    0    0    0
H -1415.98203650 20.26894774 10.96148034     6    522    0    0    0
C -1418.80579357 23.07497794 11.95257623     2    522   526   527   528
H -1417.65449926 24.71455498 11.27853636     6    525    0    0    0
H -1420.80301469 23.49851393 11.69303955     6    525    0    0    0
C -1418.56273655 23.03491917 14.89466459     2    525   529   530   531
H -1419.02577011 21.07545104 15.54222491     6    528    0    0    0
H -1416.50996285 22.99391748 15.29610355     6    528    0    0    0
C -1420.07416713 25.11669972 16.33742997     2    528   532   533   534
H -1419.83048819 26.77243178 15.14612455     6    531    0    0    0
H -1422.10780339 24.53127688 16.25802093     6    531    0    0    0
C -1419.20117646 25.54729147 19.18752034     2    531   535   536   537
H -1419.53559791 23.81008290 20.39891226     6    534    0    0    0
H -1417.19321931 25.88464609 19.43784641     6    534    0    0    0
C -1420.74891687 27.69126868 20.35467972     2    534   538   539   540
H -1420.73576078 29.24513486 19.13758705     6    537    0    0    0
H -1422.72541021 27.06594089 20.35641320     6    537    0    0    0
C -1419.81722453 28.21418993 23.12387980     1    537   541   542   543
H -1420.98232244 29.76907816 23.68042155     6    540    0    0    0
H -1417.88994324 28.96295146 23.11710051     6    540    0    0    0
H -1420.07656468 26.62389241 24.41549015     6    540    0    0    0
H -1426.65199652 26.55590322 37.70895429     6     545    0    0    0 
C -1427.02207670 26.64217048 39.66320744     1     544    546    547    548
H -1425.36347992 26.54812127 40.70804216     6     545    0    0    0
H -1427.70126814 28.59396051 40.05713811     6     545    0    0    0
C -1429.02965131 24.62996820 40.44206173     2     545    549    550    551
H -1430.82802245 25.03133561 39.51934757     6     548    0    0    0
H -1428.15763292 22.80654460 39.81578985     6     548    0    0    0
C -1429.49416328 24.41547471 43.28156485     2     548    552   553   554
H -1427.83110687 24.36262098 44.34780901     6     551    0    0    0
H -1430.62069767 26.01578167 43.92910170     6     551    0    0    0
C -1431.31831097 22.09984010 43.95111189     2     551   555   556   557
H -1433.22174444 22.47942187 43.20870974     6    554    0    0    0
H -1430.92839839 20.44491644 42.85828186     6    554    0    0    0
C -1431.34279548 21.45909860 46.67377759     2    554   558   559   560
H -1429.58006704 20.72081852 47.21132290     6    557    0    0    0
H -1431.95095395 23.17010688 47.70696984     6    557    0    0    0
C -1433.33495070 19.38678323 47.23396103     2    557   561   562   563
H -1435.00446565 20.54360790 46.94339500     6    560    0    0    0
H -1433.52492810 17.80059286 45.96985614     6    560    0    0    0
C -1432.95715065 18.19540250 49.95095816     2    560   564   565   566
H -1431.04973759 17.33804286 50.00518617     6    563    0    0    0
H -1432.89968370 19.65020891 51.29403862     6    563    0    0    0
C -1435.00081266 16.20195022 50.47910375     2    563   567   568   569
H -1436.73661911 16.73122647 49.50674117     6    566    0    0    0
H -1434.36811798 14.41149674 49.58467480     6    566    0    0    0
C -1435.52522898 15.65749410 53.33067867     2    566   570   571   572
H -1433.79682862 15.50309276 54.36545294     6    569    0    0    0
H -1436.47580973 17.14287810 54.17136004     6    569    0    0    0
C -1437.23010611 13.41941615 53.69529949     2    569   573   574   575
H -1438.90803555 13.76895059 52.61273562     6    572    0    0    0
H -1436.42382801 11.79912402 52.86483487     6    572    0    0    0
C -1437.85650706 12.81821414 56.40468037     2    572   576   577   578
H -1438.53271192 14.44511677 57.50385654     6    575    0    0    0
H -1439.25809236 11.38153300 56.50822958     6    575    0    0    0
C -1435.65535507 11.81809805 58.00236439     1    575   579   580   581
H -1434.90052726 10.08911417 57.37816105     6    578    0    0    0
H -1436.07598062 11.80152502 60.05842326     6    578    0    0    0
H -1434.08816222 13.17331181 57.81278287     6    578    0    0    0
H -1452.88915689 -5.17807104 28.84249267     6     583    0    0    0 
C -1451.88454747 -5.24388834 30.70409865     1     582    584    585    586
H -1452.17978902 -7.15490398 31.13436047     6     583    0    0    0
H -1449.90719862 -4.82107183 30.63653361     6     583    0    0    0
C -1453.33188733 -3.52935405 32.37915007     2     583    587    588    589
H -1453.28002185 -1.48922493 31.78416928     6     586    0    0    0
H -1455.26169483 -4.12489917 32.68094212     6     586    0    0    0
C -1452.14916928 -3.58308716 35.10975748     2     586    590   591   592
H -1452.38564412 -5.55682572 35.84323951     6     589    0    0    0
H -1450.17512647 -3.23318740 34.95060843     6     589    0    0    0
C -1453.39843139 -1.48495171 36.73940792     2     589   593   594   595
H -1453.03383241 0.48860565 35.87645643     6    592    0    0    0
H -1455.42821684 -1.35997268 36.59835445     6    592    0    0    0
C -1452.34085215 -1.62504336 39.49654236     2    592   596   597   598
H -1453.05051710 -3.37728400 40.33724272     6    595    0    0    0
H -1450.35104516 -1.85935699 39.54388602     6    595    0    0    0
C -1453.32250480 0.70166746 41.07225518     2    595   599   600   601
H -1452.81075848 2.56558282 40.24650016     6    598    0    0    0
H -1455.49919309 0.77436928 41.02547463     6    598    0    0    0
C -1452.33855557 0.35814876 43.82667188     2    598   602   603   604
H -1453.28349708 -1.42047442 44.56537105     6    601    0    0    0
H -1450.37901657 -0.10594749 43.70736899     6    601    0    0    0
C -1452.83539486 2.62199168 45.74185753     2    601   605   606   607
H -1452.06558643 4.27229509 44.83063036     6    604    0    0    0
H -1454.74582814 3.01823564 46.13553390     6    604    0    0    0
C -1451.45702354 2.30813426 48.30981323     2    604   608   609   610
H -1452.41297501 0.57933159 49.09385158     6    607    0    0    0
H -1449.50290344 2.00176048 47.92588046     6    607    0    0    0
C -1451.91356193 4.55889857 49.80694426     2    607   611   612   613
H -1450.67802041 6.12258563 49.18939585     6    610    0    0    0
H -1453.80617812 5.32319370 49.61612116     6    610    0    0    0
C -1451.47491541 3.91900735 52.64423524     2    610   614   615   616
H -1452.92974001 2.58898160 53.16482406     6    613    0    0    0
H -1449.75962302 2.88167177 52.54196622     6    613    0    0    0
C -1451.00817279 6.09489086 54.43520453     1    613   617   618   619
H -1450.95495396 5.30761874 56.36977944     6    616    0    0    0
H -1452.56649580 7.39334046 54.84636769     6    616    0    0    0
H -1449.44235105 7.27893855 53.81754578     6    616    0    0    0
H -1411.54488506 3.79024856 31.41019742     6     621    0    0    0 
C -1413.43337817 4.22749867 31.82510845     1     620    622    623    624
H -1413.73595806 4.97048295 33.83707405     6     621    0    0    0
H -1414.01812074 5.37262791 30.32874144     6     621    0    0    0
C -1415.02977586 1.81231196 31.67594564     2     621    625    626    627
H -1417.02331355 2.24035380 32.22274244     6     624    0    0    0
H -1415.09516724 1.05931829 29.78008738     6     624    0    0    0
C -1414.20386567 -0.33577228 33.26081077     2     624    628   629   630
H -1412.18344082 -0.42863686 33.22422219     6     627    0    0    0
H -1414.59341106 0.26093227 35.14086869     6     627    0    0    0
C -1415.74696156 -2.54045807 32.56681915     2     627   631   632   633
H -1417.64337824 -2.23887876 32.99989820     6    630    0    0    0
H -1415.87862366 -2.84089005 30.54478348     6    630    0    0    0
C -1414.70772987 -5.08889580 33.75762027     2    630   634   635   636
H -1413.00194107 -5.56821939 32.93399733     6    633    0    0    0
H -1414.19561575 -4.79270798 35.62841841     6    633    0    0    0
C -1416.60765233 -7.37944955 33.49545623     2    633   637   638   639
H -1418.39411230 -6.86772616 34.39295082     6    636    0    0    0
H -1416.85515285 -7.81199631 31.49286758     6    636    0    0    0
C -1415.77406852 -9.89446952 34.75065799     2    636   640   641   642
H -1413.67906044 -9.74505970 34.87186974     6    639    0    0    0
H -1416.43735256 -10.11896525 36.75279596     6    639    0    0    0
C -1416.35968499 -12.18276346 33.15476536     2    639   643   644   645
H -1418.32024515 -12.66545000 33.53628004     6    642    0    0    0
H -1416.25941580 -11.71797078 31.10983080     6    642    0    0    0
C -1414.77394530 -14.49237225 33.87607704     2    642   646   647   648
H -1415.12887860 -15.91344474 32.31792488     6    645    0    0    0
H -1412.81251835 -14.24745076 34.03944382     6    645    0    0    0
C -1415.92155772 -16.01246674 36.14574583     2    645   649   650   651
H -1416.02166697 -14.75049340 37.77379325     6    648    0    0    0
H -1417.76579709 -16.71758075 35.47752551     6    648    0    0    0
C -1414.27211352 -18.45425900 36.75122152     2    648   652   653   654
H -1413.31847492 -18.91537047 35.09175091     6    651    0    0    0
H -1412.97762618 -18.06589791 38.27102670     6    651    0    0    0
C -1415.80971815 -20.58771419 37.95145275     1    651   655   656   657
H -1416.75260109 -20.16656101 39.74310733     6    654    0    0    0
H -1414.44703284 -22.04940624 38.17937459     6    654    0    0    0
H -1417.30928726 -21.16516486 36.79471366     6    654    0    0    0
H -1443.43540218 -5.18338600 36.21263233     6     659    0    0    0 
C -1443.91939020 -3.41253523 37.09570246     1     658    660    661    662
H -1444.25142224 -2.08859330 35.52040990     6     659    0    0    0
H -1445.77130587 -3.44200815 38.01507738     6     659    0    0    0
C -1441.69155407 -2.76583895 38.87684721     2     659    663    664    665
H -1441.82841564 -4.16356117 40.39576784     6     662    0    0    0
H -1440.05678613 -3.28317089 37.86056382     6     662    0    0    0
C -1441.36104460 0.03401916 39.51519635     2     662    666   667   668
H -1439.42473446 0.39374893 39.98843819     6     665    0    0    0
H -1441.76139289 1.15628366 37.87100531     6     665    0    0    0
C -1442.96177677 1.04973578 41.83182307     2     665   669   670   671
H -1444.94071268 0.82925720 41.42395272     6    668    0    0    0
H -1442.46767778 -0.14959319 43.56671469     6    668    0    0    0
C -1442.45626373 3.84463126 42.47934305     2    668   672   673   674
H -1440.58136740 4.48629740 42.80102965     6    671    0    0    0
H -1443.15837998 4.87695230 40.73936463     6    671    0    0    0
C -1443.99983144 4.80553556 44.68719804     2    671   675   676   677
H -1443.76628557 6.86097165 44.89535581     6    674    0    0    0
H -1445.99527619 4.34867558 44.39255680     6    674    0    0    0
C -1443.08822906 3.89605850 47.37343827     2    674   678   679   680
H -1444.76832055 4.27772577 48.62957667     6    677    0    0    0
H -1442.53984390 1.95750907 47.56152287     6    677    0    0    0
C -1440.98529130 5.58085822 48.30141977     2    677   681   682   683
H -1439.56023586 6.00348931 46.77391077     6    680    0    0    0
H -1441.74176115 7.51869228 48.47113059     6    680    0    0    0
C -1439.66246496 4.86903212 50.85211011     2    680   684   685   686
H -1439.13449455 2.86852196 50.98363431     6    683    0    0    0
H -1438.07290314 6.14770723 50.90238410     6    683    0    0    0
C -1441.25766150 5.42426939 53.00252556     2    683   687   688   689
H -1441.70028753 7.41435326 53.08731153     6    686    0    0    0
H -1442.99246535 4.41090779 53.10592558     6    686    0    0    0
C -1439.95029780 4.87853229 55.63215698     2    686   690   691   692
H -1439.31475220 2.90480773 56.02099097     6    689    0    0    0
H -1438.16001582 5.87000407 55.74930697     6    689    0    0    0
C -1441.73049478 5.84604789 57.71939353     1    689   693   694   695
H -1440.89904832 5.46320828 59.58334537     6    692    0    0    0
H -1443.59960634 5.10558067 57.48376961     6    692    0    0    0
H -1442.18498210 7.88113726 57.80248072     6    692    0    0    0
H -1432.50157683 20.29218571 59.82218152     6     697    0    0    0 
C -1431.28926981 20.33940753 58.22066945     1     696    698    699    700
H -1429.40980132 21.04750308 59.06657318     6     697    0    0    0
H -1430.85253018 18.53595466 57.34844272     6     697    0    0    0
C -1432.45398033 22.23327947 56.20275355     2     697    701    702    703
H -1434.00008123 21.42967603 55.11928789     6     700    0    0    0
H -1433.24868951 23.77027149 57.25222464     6     700    0    0    0
C -1430.40317032 23.46695700 54.49362214     2     700    704   705   706
H -1429.02866011 24.48785474 55.59351571     6     703    0    0    0
H -1429.27235442 22.04440453 53.64348407     6     703    0    0    0
C -1431.28540693 25.48300326 52.70731060     2     703   707   708   709
H -1432.49911212 24.64316428 51.32338826     6    706    0    0    0
H -1432.31456433 26.92339013 53.82710987     6    706    0    0    0
C -1429.21221637 27.04208605 51.32277996     2    706   710   711   712
H -1427.74034937 27.76477809 52.78650798     6    709    0    0    0
H -1428.20213623 25.64230733 50.11527825     6    709    0    0    0
C -1430.24061797 29.02550621 49.52692175     2    709   713   714   715
H -1431.73176803 28.46961341 48.22747989     6    712    0    0    0
H -1431.18124235 30.42548238 50.58863403     6    712    0    0    0
C -1428.09701982 30.30438538 47.96494835     2    712   716   717   718
H -1426.38514363 30.73004307 49.05001005     6    715    0    0    0
H -1427.43953590 28.89990619 46.58619823     6    715    0    0    0
C -1428.68711064 32.90227858 46.66778932     2    715   719   720   721
H -1429.60410936 32.07668535 45.06789799     6    718    0    0    0
H -1430.12595347 33.66807055 47.88134616     6    718    0    0    0
C -1426.56704357 34.63406700 45.80727192     2    718   722   723   724
H -1425.21844890 34.43905638 47.22895180     6    721    0    0    0
H -1425.81285972 33.85336574 43.94865931     6    721    0    0    0
C -1427.44848096 37.29619703 45.29614110     2    721   725   726   727
H -1428.71366599 36.89649560 43.70451371     6    724    0    0    0
H -1428.49385783 37.95682301 46.92538295     6    724    0    0    0
C -1425.47488184 39.18433663 44.45122361     2    724   728   729   730
H -1424.38929261 39.53658287 46.17644682     6    727    0    0    0
H -1424.19486763 38.19000477 43.09217769     6    727    0    0    0
C -1426.84397682 41.64725026 43.50450701     1    727   731   732   733
H -1427.78085143 42.69751825 45.16206825     6    730    0    0    0
H -1428.18724033 41.23109876 42.01389398     6    730    0    0    0
H -1425.65934581 43.20399511 42.83882493     6    730    0    0    0
H -1445.34977789 23.32483459 23.36447201     6     735    0    0    0 
C -1447.42302602 23.37191743 23.29180402     1     734    736    737    738
H -1448.13081487 25.02303200 24.30232374     6     735    0    0    0
H -1448.16715318 23.72158726 21.37712056     6     735    0    0    0
C -1448.43418328 20.93309489 24.42001273     2     735    739    740    741
H -1447.50490155 20.66413130 26.28455630     6     738    0    0    0
H -1450.43453215 20.80896513 24.86550728     6     738    0    0    0
C -1447.71149862 18.85081649 22.60447480     2     738    742   743   744
H -1447.99229895 19.54947552 20.70532128     6     741    0    0    0
H -1445.68561436 18.45133329 22.90347975     6     741    0    0    0
C -1449.15613469 16.33413167 23.13186624     2     741   745   746   747
H -1448.62244108 15.43314135 25.00947999     6    744    0    0    0
H -1451.14411713 16.41039499 22.94676731     6    744    0    0    0
C -1448.30403337 14.23079145 21.12115194     2    744   748   749   750
H -1446.44854896 13.49439123 21.52276696     6    747    0    0    0
H -1449.38570384 12.54905757 21.44236375     6    747    0    0    0
C -1448.69344615 15.18159180 18.41684248     2    747   751   752   753
H -1450.57153150 15.93834432 18.32457871     6    750    0    0    0
H -1447.39441888 16.59874791 18.15977436     6    750    0    0    0
C -1448.27352948 13.33578602 16.25119328     2    750   754   755   756
H -1446.47602096 12.55620320 16.88467274     6    753    0    0    0
H -1449.71455796 11.91851870 16.28002528     6    753    0    0    0
C -1448.13433098 14.98550065 13.71854937     2    753   757   758   759
H -1450.04655859 15.74994919 13.33641489     6    756    0    0    0
H -1446.90142010 16.58493560 14.10234884     6    756    0    0    0
C -1447.24755205 13.66552483 11.33192770     2    756   760   761   762
H -1445.28046620 13.43387228 11.37949811     6    759    0    0    0
H -1447.74677925 11.63674873 11.21429966     6    759    0    0    0
C -1447.86941656 15.17706396 8.93025270     2    759   763   764   765
H -1449.92907758 15.34182927 8.68657920     6    762    0    0    0
H -1447.13470239 17.09105271 9.12334089     6    762    0    0    0
C -1446.71277108 13.87430659 6.58570880     2    762   766   767   768
H -1444.79486223 13.59258244 7.35478514     6    765    0    0    0
H -1447.47159162 11.85192713 6.10303089     6    765    0    0    0
C -1446.91580480 15.51152899 4.22936356     1    765   769   770   771
H -1448.78400911 16.11162478 3.62927299     6    768    0    0    0
H -1446.11273988 14.57615352 2.62554668     6    768    0    0    0
H -1445.96631298 17.26253167 4.73015342     6    768    0    0    0
H -1409.64688920 -8.63352939 28.69506145     6     773    0    0    0 
C -1408.06814316 -8.28821069 27.50437988     1     772    774    775    776
H -1406.73935269 -7.51588587 28.91757853     6     773    0    0    0
H -1407.16014339 -10.02834809 27.00429982     6     773    0    0    0
C -1408.73652492 -6.56899289 25.25718246     2     773    777    778    779
H -1407.00830816 -6.52856184 24.25768512     6     776    0    0    0
H -1409.96054612 -7.53642028 23.93944925     6     776    0    0    0
C -1409.53126594 -4.02661350 26.01320232     2     776    780   781   782
H -1411.31715255 -3.82967109 27.03917373     6     779    0    0    0
H -1408.44218735 -3.08816600 27.46920163     6     779    0    0    0
C -1409.72967763 -2.10220249 23.89221108     2     779   783   784   785
H -1407.98773609 -1.87148935 22.74304153     6    782    0    0    0
H -1411.11839697 -2.78798393 22.57776145     6    782    0    0    0
C -1410.35997015 0.60883658 24.60020348     2    782   786   787   788
H -1411.29974572 1.61063461 23.05086074     6    785    0    0    0
H -1411.82336474 0.71495260 26.05863557     6    785    0    0    0
C -1407.97628941 2.22608092 25.26231412     2    785   789   790   791
H -1407.08109080 1.51482655 27.03595183     6    788    0    0    0
H -1406.64077681 2.03001020 23.61062037     6    788    0    0    0
C -1408.59813213 4.99275267 25.85515168     2    788   792   793   794
H -1410.12670706 5.65987057 24.66053988     6    791    0    0    0
H -1409.51300547 5.15279286 27.68871572     6    791    0    0    0
C -1406.34972295 6.71823590 25.48789484     2    791   795   796   797
H -1404.62285151 5.84226860 25.98874799     6    794    0    0    0
H -1406.23000274 7.21791275 23.52734932     6    794    0    0    0
C -1406.63072190 9.10185508 27.04661823     2    794   798   799   800
H -1408.39636243 9.88237097 26.30395424     6    797    0    0    0
H -1407.16376131 8.99163088 28.98510099     6    797    0    0    0
C -1404.50242813 11.12304946 26.68320520     2    797   801   802   803
H -1402.82763959 10.46511861 27.61937642     6    800    0    0    0
H -1404.29867602 11.12700536 24.68483240     6    800    0    0    0
C -1405.23123484 13.88456607 27.44544146     2    800   804   805   806
H -1407.00621164 14.46835389 26.42660376     6    803    0    0    0
H -1405.68719925 14.08335080 29.39987535     6    803    0    0    0
C -1403.31577513 15.88294482 26.80953801     1    803   807   808   809
H -1403.10647589 15.97768379 24.76173756     6    806    0    0    0
H -1401.57453665 15.75600815 27.81108892     6    806    0    0    0
H -1404.11734065 17.80285283 27.35647981     6    806    0    0    0
H -1447.95914661 7.20883234 33.66525186     6     811    0    0    0 
C -1448.60962489 5.45254571 32.89716610     1     810    812    813    814
H -1449.64947416 4.15106171 34.11902388     6     811    0    0    0
H -1449.89616370 6.39180126 31.57166689     6     811    0    0    0
C -1446.63799351 3.93261785 31.49137143     2     811    815    816    817
H -1445.23782802 3.06272994 32.56715909     6     814    0    0    0
H -1447.53749639 2.43994131 30.38485782     6     814    0    0    0
C -1445.08811244 5.56993771 29.73777502     2     814    818   819   820
H -1446.38819368 6.61591737 28.57497170     6     817    0    0    0
H -1443.79949173 6.79273487 30.91578047     6     817    0    0    0
C -1443.21369658 4.01638419 28.04684758     2     817   821   822   823
H -1441.63883842 3.02376364 29.12507589     6    820    0    0    0
H -1444.26767408 2.44268669 27.30942700     6    820    0    0    0
C -1442.03682596 5.68389603 25.90321590     2    820   824   825   826
H -1443.34776987 6.79979072 24.75108654     6    823    0    0    0
H -1440.50337220 6.85619011 26.52397749     6    823    0    0    0
C -1440.50310761 4.06343706 24.06545752     2    823   827   828   829
H -1438.99453324 2.96982933 24.94921962     6    826    0    0    0
H -1441.88575067 2.87089481 23.03681590     6    826    0    0    0
C -1439.05825979 5.43528563 22.12027149     2    826   830   831   832
H -1440.30037886 6.58591768 21.18190542     6    829    0    0    0
H -1437.73495890 6.76909861 23.00002024     6    829    0    0    0
C -1437.77663132 3.70493743 20.22566743     2    829   833   834   835
H -1436.30797163 2.66849507 21.14459082     6    832    0    0    0
H -1439.13756632 2.22875455 19.89585639     6    832    0    0    0
C -1436.93876972 5.12171873 17.84305079     2    832   836   837   838
H -1438.68590367 5.83563013 16.90509095     6    835    0    0    0
H -1435.65636941 6.75221979 18.50222349     6    835    0    0    0
C -1435.03903218 3.62033437 16.12567080     2    835   839   840   841
H -1433.35089336 2.87539506 17.09213892     6    838    0    0    0
H -1436.03462240 1.81029441 15.81708499     6    838    0    0    0
C -1434.38342851 5.17818803 13.75488735     2    838   842   843   844
H -1436.00786294 5.08196236 12.51728662     6    841    0    0    0
H -1433.81747211 7.34648838 14.07572880     6    841    0    0    0
C -1432.48506884 3.85929859 12.18874822     1    841   845   846   847
H -1430.54573229 3.89531283 12.85122765     6    844    0    0    0
H -1432.24980206 4.60376938 10.27912223     6    844    0    0    0
H -1433.00533182 1.83665150 11.80386863     6    844    0    0    0
H -1457.83080775 -3.59829792 59.22049887     6     849    0    0    0 
C -1456.49993007 -4.40880071 60.57245232     1     848    850    851    852
H -1457.49962097 -4.67585998 62.28021957     6     849    0    0    0
H -1455.95265887 -6.37658977 60.04069492     6     849    0    0    0
C -1454.13902623 -2.73840086 60.80014647     2     849    853    854    855
H -1454.69742619 -0.84319968 61.28376526     6     852    0    0    0
H -1453.07443097 -3.48870576 62.38323728     6     852    0    0    0
C -1452.53179334 -2.75106229 58.37354323     2     852    856   857   858
H -1452.11912627 -4.86409805 58.12712845     6     855    0    0    0
H -1453.77030475 -2.24251829 56.86445265     6     855    0    0    0
C -1450.11040227 -1.35271775 58.52970397     2     855   859   860   861
H -1450.47425696 0.68781034 58.80311390     6    858    0    0    0
H -1449.25880645 -2.11950015 60.23826926     6    858    0    0    0
C -1448.23936675 -1.84417204 56.32525893     2    858   862   863   864
H -1448.09217651 -3.87699490 56.44209599     6    861    0    0    0
H -1449.23346090 -1.38863540 54.67267923     6    861    0    0    0
C -1445.65039029 -0.50853096 56.40303424     2    861   865   866   867
H -1445.90367057 1.54285657 55.97584859     6    864    0    0    0
H -1444.96224267 -0.35539905 58.43852077     6    864    0    0    0
C -1443.59841250 -1.72736013 54.67310831     2    864   868   869   870
H -1441.95224856 -0.71439520 55.17035359     6    867    0    0    0
H -1443.31306257 -3.67924035 55.13538081     6    867    0    0    0
C -1443.94664325 -1.34129804 51.72762778     2    867   871   872   873
H -1444.60175122 0.64913465 51.56077591     6    870    0    0    0
H -1442.16253713 -1.85835841 51.03022798     6    870    0    0    0
C -1445.80271830 -3.46768442 50.63287476     2    870   874   875   876
H -1445.06606901 -5.32480895 51.26407159     6    873    0    0    0
H -1447.88163541 -3.19836493 51.29019147     6    873    0    0    0
C -1445.72993046 -3.30423106 47.68273777     2    873   877   878   879
H -1445.86136453 -1.35487443 47.01828725     6    876    0    0    0
H -1443.78529493 -4.03736585 47.05280328     6    876    0    0    0
C -1447.76979182 -4.84044943 46.25176691     2    876   880   881   882
H -1447.70214429 -6.76971016 46.97523378     6    879    0    0    0
H -1449.58627960 -4.00505456 46.71221085     6    879    0    0    0
C -1447.16459980 -4.92068022 43.29147197     1    879   883   884   885
H -1445.41318013 -5.77726733 42.55212902     6    882    0    0    0
H -1447.14726199 -2.99187301 42.62647323     6    882    0    0    0
H -1448.58865435 -5.95084021 42.20948318     6    882    0    0    0
H -1430.06862134 8.24323818 23.98311413     6     887    0    0    0 
C -1430.70939345 6.30518655 23.92705386     1     886    888    889    890
H -1431.90162605 6.14234280 22.28574089     6     887    0    0    0
H -1429.07619200 4.93219000 23.43401243     6     887    0    0    0
C -1431.91488595 5.17087413 26.32624077     2     887    891    892    893
H -1432.89840145 3.28761367 25.87712157     6     890    0    0    0
H -1430.40448504 4.79883600 27.66524573     6     890    0    0    0
C -1433.74627986 7.07658338 27.67010007     2     890    894   895   896
H -1432.62744626 8.79968287 28.23746415     6     893    0    0    0
H -1435.15589076 7.95319405 26.38289108     6     893    0    0    0
C -1434.93717981 5.96253293 30.17627782     2     893   897   898   899
H -1435.46779942 3.96286187 29.95543477     6    896    0    0    0
H -1433.52219919 5.86986000 31.69996558     6    896    0    0    0
C -1437.15430320 7.52382146 30.93508186     2    896   900   901   902
H -1436.87018424 9.54750485 30.52854690     6    899    0    0    0
H -1438.85704797 7.04301880 30.04776125     6    899    0    0    0
C -1437.64786907 7.17475400 33.80421385     2    899   903   904   905
H -1438.53471924 5.38714867 34.37031732     6    902    0    0    0
H -1435.99381991 7.53720911 35.06859969     6    902    0    0    0
C -1439.57975477 9.11854747 34.72049765     2    902   906   907   908
H -1438.55972847 10.92579416 34.67957754     6    905    0    0    0
H -1441.00735290 9.08622740 33.21048523     6    905    0    0    0
C -1440.86834582 8.70280150 37.38569395     2    905   909   910   911
H -1441.08208278 6.63711842 37.69723954     6    908    0    0    0
H -1439.84392958 9.47856796 38.95543233     6    908    0    0    0
C -1443.37708197 10.09068197 37.46544745     2    908   912   913   914
H -1443.28058625 11.88355404 36.34962774     6    911    0    0    0
H -1444.75170775 8.83173292 36.62093891     6    911    0    0    0
C -1444.38140748 10.78456574 40.04181184     2    911   915   916   917
H -1444.20635249 9.07120052 41.15466551     6    914    0    0    0
H -1443.21202504 12.14761009 40.97157699     6    914    0    0    0
C -1447.05465312 11.89757314 39.87508378     2    914   918   919   920
H -1447.16165881 12.97982260 41.64814658     6    917    0    0    0
H -1447.12720830 13.29695401 38.38055257     6    917    0    0    0
C -1449.28118488 9.99846417 39.71140351     1    917   921   922   923
H -1449.49577242 8.70543322 41.21753189     6    920    0    0    0
H -1449.20386228 9.04106694 37.92379974     6    920    0    0    0
H -1451.06084512 11.19136363 39.89595061     6    920    0    0    0
H -1428.52773939 -15.06505846 39.66226314     6     925    0    0    0 
C -1429.13061966 -15.61558218 41.48348699     1     924    926    927    928
H -1430.52092756 -17.20211783 41.55075238     6     925    0    0    0
H -1427.24929384 -16.23063388 42.31037272     6     925    0    0    0
C -1430.11620545 -13.52631138 43.22473804     2     925    929    930    931
H -1430.05816966 -14.12668863 45.19921777     6     928    0    0    0
H -1428.68212801 -11.99482313 42.94607499     6     928    0    0    0
C -1432.72642469 -12.46797642 42.55004163     2     928    932   933   934
H -1434.04029335 -14.11307652 42.09655704     6     931    0    0    0
H -1433.23442436 -11.62130640 44.37439345     6     931    0    0    0
C -1432.67720541 -10.26509646 40.54509361     2     931   935   936   937
H -1431.95325565 -8.57430814 41.50651327     6    934    0    0    0
H -1431.13367021 -10.57356180 38.97826279     6    934    0    0    0
C -1435.35589269 -9.40943364 39.65714817     2    934   938   939   940
H -1436.55633864 -9.97465800 41.31920242     6    937    0    0    0
H -1435.67680850 -7.38148782 39.42209784     6    937    0    0    0
C -1436.41834946 -10.81563795 37.29873434     2    937   941   942   943
H -1435.24191476 -10.46604203 35.57716316     6    940    0    0    0
H -1436.35356044 -12.92203015 37.50346654     6    940    0    0    0
C -1438.97124821 -9.89059048 36.27553424     2    940   944   945   946
H -1440.26095776 -9.47099239 37.80466316     6    943    0    0    0
H -1438.88018752 -8.14522892 34.97890061     6    943    0    0    0
C -1439.90361499 -11.89047943 34.43828829     2    943   947   948   949
H -1438.66602124 -12.61256843 32.85436265     6    946    0    0    0
H -1440.37015376 -13.49178489 35.65388402     6    946    0    0    0
C -1442.40049272 -11.21005654 33.25083583     2    946   950   951   952
H -1443.61554075 -10.60509778 34.90897201     6    949    0    0    0
H -1441.97142736 -9.56404228 32.07779016     6    949    0    0    0
C -1443.52832562 -13.09766322 31.32096016     2    949   953   954   955
H -1442.57490168 -13.32715588 29.43773685     6    952    0    0    0
H -1443.17148930 -15.16058485 31.91117393     6    952    0    0    0
C -1446.35223325 -12.80341100 31.07695116     2    952   956   957   958
H -1447.02101264 -14.35314886 29.76857197     6    955    0    0    0
H -1447.51966637 -13.09164151 32.82572232     6    955    0    0    0
C -1446.99824543 -10.19285262 30.02648045     1    955   959   960   961
H -1448.99763050 -9.89111670 29.53649482     6    958    0    0    0
H -1446.01842920 -9.61814118 28.30483390     6    958    0    0    0
H -1446.47407522 -8.69366951 31.31109673     6    958    0    0    0
H -1434.27488058 23.13369174 17.51266391     6     963    0    0    0 
C -1432.36053316 22.56187390 17.07988240     1     962    964    965    966
H -1432.81055585 20.80392864 16.14790100     6     963    0    0    0
H -1431.76429846 24.04823246 15.85611916     6     963    0    0    0
C -1430.71028753 22.11482253 19.36702257     2     963    967    968    969
H -1431.27894257 20.42447137 20.24704861     6     966    0    0    0
H -1428.74639531 21.71285294 18.79672304     6     966    0    0    0
C -1430.47020138 24.27857222 21.44577840     2     966    970   971   972
H -1429.74387332 25.94391182 20.52496961     6     969    0    0    0
H -1432.38861596 24.78705531 22.15143330     6     969    0    0    0
C -1428.66578205 23.65444771 23.68488032     2     969   973   974   975
H -1429.25660804 21.85607526 24.50002280     6    972    0    0    0
H -1426.74930570 23.22752947 23.19875487     6    972    0    0    0
C -1428.64976385 25.70552818 25.75067767     2    972   976   977   978
H -1429.16568660 27.48624444 24.94262435     6    975    0    0    0
H -1430.23744017 25.29990652 27.03053407     6    975    0    0    0
C -1426.16467002 25.65559806 27.31294044     2    975   979   980   981
H -1426.08534774 24.07694318 28.54737790     6    978    0    0    0
H -1424.41170026 25.57129553 26.06252674     6    978    0    0    0
C -1425.90263081 28.11952509 28.96643432     2    978   982   983   984
H -1426.32530141 30.08141953 28.02552352     6    981    0    0    0
H -1427.15539603 27.90611835 30.59180158     6    981    0    0    0
C -1423.27607734 28.26093463 30.25438474     2    981   985   986   987
H -1423.12393981 26.80613827 31.68300230     6    984    0    0    0
H -1421.82285579 28.34702773 28.87426144     6    984    0    0    0
C -1422.94874979 30.72710808 31.87321478     2    984   988   989   990
H -1420.93225015 31.15911553 31.80365757     6    987    0    0    0
H -1423.64148489 32.22535485 30.71511990     6    987    0    0    0
C -1423.95275894 30.69787510 34.56505660     2    987   991   992   993
H -1426.04972249 30.64448561 34.36739946     6    990    0    0    0
H -1423.30542556 28.96916728 35.56230067     6    990    0    0    0
C -1423.31079181 33.04701939 36.13187786     2    990   994   995   996
H -1421.33557858 33.30293698 36.15015705     6    993    0    0    0
H -1424.05252310 34.73679826 35.14576700     6    993    0    0    0
C -1424.06638381 33.02860460 38.87028499     1    993   997   998   999
H -1426.10958401 32.71661083 39.06422161     6    996    0    0    0
H -1423.64065561 34.72046344 39.97112632     6    996    0    0    0
H -1423.15947189 31.50629065 39.61349428     6    996    0    0    0
H -1434.03010337 22.58006473 5.28946212     6     1001    0    0    0 
C -1434.83691102 21.77462201 6.98499762     1     1000    1002    1003    1004
H -1436.79952423 21.45084073 6.44625401     6     1001    0    0    0
H -1433.89468180 19.90280631 7.07514730     6     1001    0    0    0
C -1434.53846858 23.27739137 9.44534622     2     1001    1005    1006    1007
H -1435.22227299 22.21917747 11.11528671     6     1004    0    0    0
H -1432.43728300 23.50845643 9.87530497     6     1004    0    0    0
C -1436.17875667 25.52023111 9.60548909     2     1004    1008   1009   1010
H -1435.66738191 26.87020620 8.20971824     6     1007    0    0    0
H -1438.18257753 25.10674461 9.44331100     6     1007    0    0    0
C -1435.79852155 26.78019080 12.13548561     2     1007   1011   1012   1013
H -1436.09715576 25.44462670 13.66364707     6    1010    0    0    0
H -1433.81516565 27.39153566 12.28059100     6    1010    0    0    0
C -1437.48399845 29.15649793 12.43287291     2    1010   1014   1015   1016
H -1436.72412741 30.63486889 11.30140953     6    1013    0    0    0
H -1439.36431332 28.83216351 11.89065759     6    1013    0    0    0
C -1437.33212645 29.78906742 15.26615928     2    1013   1017   1018   1019
H -1437.87462363 28.18843427 16.39650348     6    1016    0    0    0
H -1435.34280816 30.24845073 15.49737468     6    1016    0    0    0
C -1439.01289938 31.95188746 15.87792334     2    1016   1020   1021   1022
H -1439.20856508 33.16646315 14.15269609     6    1019    0    0    0
H -1440.92927290 31.41044828 16.03440544     6    1019    0    0    0
C -1438.04243687 33.82593356 17.97448336     2    1019   1023   1024   1025
H -1436.22467176 34.40622916 17.29648841     6    1022    0    0    0
H -1439.47351991 35.30826200 18.12468995     6    1022    0    0    0
C -1437.87456593 32.59151558 20.60603297     2    1022   1026   1027   1028
H -1439.82419040 32.54313113 21.08377691     6    1025    0    0    0
H -1437.02809648 30.73190327 20.54432541     6    1025    0    0    0
C -1436.48221939 34.45659098 22.34484328     2    1025   1029   1030   1031
H -1434.57335582 35.28070146 21.58817545     6    1028    0    0    0
H -1437.67216515 36.07768320 22.68624144     6    1028    0    0    0
C -1436.14719619 33.27204658 24.92910301     2    1028   1032   1033   1034
H -1435.41703328 34.79913294 26.18897622     6    1031    0    0    0
H -1438.01156545 32.80752873 25.70932662     6    1031    0    0    0
C -1434.38594191 30.88574082 24.76772197     1    1031   1035   1036   1037
H -1433.73607035 30.41338476 26.61534474     6    1034    0    0    0
H -1432.79720000 31.53842961 23.66724372     6    1034    0    0    0
H -1435.09327050 29.19629925 23.86920825     6    1034    0    0    0
H -1418.48612174 6.51857730 23.39202441     6     1039    0    0    0 
C -1417.91206010 4.73550586 24.32490155     1     1038    1040    1041    1042
H -1415.95153258 4.54961134 24.24480173     6     1039    0    0    0
H -1418.36236813 4.92994109 26.27129308     6     1039    0    0    0
C -1419.42059775 2.60923788 23.18542997     2     1039    1043    1044    1045
H -1420.94736271 2.26420164 24.37140096     6     1042    0    0    0
H -1420.06253253 2.88749560 21.34418694     6     1042    0    0    0
C -1417.98346238 0.09683200 22.97533376     2     1042    1046   1047   1048
H -1416.40229889 0.37386406 21.73162483     6     1045    0    0    0
H -1417.33770001 -0.60994202 24.78396683     6     1045    0    0    0
C -1419.74783177 -1.88390810 21.72948261     2     1045   1049   1050   1051
H -1421.47830993 -2.06955034 22.90405546     6    1048    0    0    0
H -1420.37438615 -1.10480828 19.94865270     6    1048    0    0    0
C -1418.62936303 -4.50629081 21.20615825     2    1048   1052   1053   1054
H -1416.91690703 -4.44754658 20.13216495     6    1051    0    0    0
H -1418.14908987 -5.52150487 23.04047910     6    1051    0    0    0
C -1420.40601453 -5.94815052 19.51041657     2    1051   1055   1056   1057
H -1422.20253456 -5.73334679 20.47955171     6    1054    0    0    0
H -1420.38085034 -4.77548262 17.81586153     6    1054    0    0    0
C -1419.75674342 -8.76959588 18.86624197     2    1054   1058   1059   1060
H -1417.77403492 -9.07042486 18.12313190     6    1057    0    0    0
H -1420.10755259 -9.95843061 20.57702479     6    1057    0    0    0
[...]
 1619      H   -1401.0158687000     1.3041714200    31.6646458400
 1620      H   -1398.0672217500     2.3123974300    32.4142761500
 1621      C   -1400.7008604400     5.1378642400    31.0987522800
 1622      H   -1399.4861847200     6.3706542800    30.1008252300
 1623      H   -1402.4999878800     5.2063516800    30.3516730200
 1624      C   -1400.7580189500     6.2326519700    33.7871166600
 1625      H   -1401.8751583300     5.0185324000    34.8982012400
 1626      H   -1398.8180388300     6.4643532200    34.4816128100
 1627      C   -1402.1284077800     8.6790989400    34.0084902200
 1628      H   -1401.5128460800    10.0241642300    32.5288000400
 1629      H   -1404.2371537100     8.3020340600    33.8386567000
 1630      C   -1401.8485305500    10.0539901900    36.5287136600
 1631      H   -1402.9891144500     8.9809262700    37.9032959200
 1632      H   -1400.0453862400     9.7851845900    37.1987930800
 1633      C   -1402.5226717200    12.8772678600    36.2395276000
 1634      H   -1401.6565432700    13.6746779500    34.4943038300
 1635      H   -1404.6245614900    13.0199489700    35.7960270300
 1636      C   -1401.3997185600    14.3744285500    38.4838332100
 1637      H   -1402.5471740800    14.0481200200    40.2820559000
 1638      H   -1399.5247970000    13.7288300700    38.8710347900
 1639      C   -1401.3609770900    17.1024481800    37.9089046000
 1640      H   -1400.1887309900    17.4234704800    36.3675157200
 1641      H   -1403.2874616400    17.5936209900    37.2217444200
 1642      C   -1400.4746527200    18.6533266300    40.0542502300
 1643      H   -1401.9078143600    18.6177256100    41.5409961700
 1644      H   -1400.7107549900    20.7600606200    39.7428769500
 1645      H   -1398.5772612500    18.6554903900    40.7224257100
 1646      H   -1408.4380390200    13.5075114800     6.5432142500
 1647      C   -1409.6977230700    13.9637511700     8.1300798600
 1648      H   -1411.5475818500    13.9576763600     7.3155085500
 1649      H   -1409.6147408600    12.6892116300     9.8268687600
 1650      C   -1409.1023342100    16.4964141000     9.4742292800
 1651      H   -1410.4370109200    17.1780248700    10.8463037800
 1652      H   -1407.4218608700    16.1614276800    10.6560648000
 1653      C   -1408.9735898400    18.7318050500     7.6061091700
 1654      H   -1407.5185086800    18.3068537300     6.2154455000
 1655      H   -1410.7701574400    19.0551047800     6.6145414800
 1656      C   -1408.4020074100    21.2602286800     8.9179296700
 1657      H   -1406.5944701100    21.0674976600    10.0953262900
 1658      H   -1408.1293692700    22.5148667400     7.3046896000
 1659      C   -1410.3956029800    22.3720798400    10.7298726800
 1660      H   -1412.2469217900    22.5835795400     9.7447352200
 1661      H   -1410.6324843500    21.0918406300    12.2463006100
 1662      C   -1409.7881103800    24.8972860700    11.6509548700
 1663      H   -1408.2075334800    24.6277421100    12.7778770000
 1664      H   -1409.5773829100    26.1821254100    10.0058146400
 1665      C   -1411.9015378300    25.9760759600    13.4086543800
 1666      H   -1413.7768900600    25.9730487600    12.4757433500
 1667      H   -1412.0546449500    24.8496029500    15.1542738200
 1668      C   -1411.5597645100    28.6892031700    14.1918385500
 1669      H   -1409.7440876500    28.6876449400    15.2348591000
 1670      H   -1411.4533863900    29.7860847500    12.4411489400
 1671      C   -1413.8417527100    29.7874324200    15.5252139000
 1672      H   -1415.5791915400    29.0559767100    14.6979059700
 1673      H   -1413.8971467300    28.9669863600    17.4079983300
 1674      C   -1413.6545563100    32.6931775700    15.9438134200
 1675      H   -1412.2234985300    33.0295895300    17.3768340500
 1676      H   -1413.0769869300    33.4746100500    14.1733848800
 1677      C   -1415.9273236800    33.9927356200    17.1531749000
 1678      H   -1417.3443476100    34.3349287300    15.5343258100
 1679      H   -1416.8517372600    32.7077044000    18.4946974200
 1680      C   -1415.3734394500    36.3515426400    18.6230916800
 1681      H   -1417.0722869500    37.3024129000    19.3039176600
 1682      H   -1414.3736192500    37.6307163900    17.4505850300
 1683      H   -1414.3102744100    35.8788666700    20.3242358000
 1684      H   -1426.1306129600    21.0249136300     7.7230385400
 1685      C   -1427.6137269600    20.2853261500     8.9008929600
 1686      H   -1428.5394265100    22.1026082900     9.5708647100
 1687      H   -1428.8122410700    19.4276434200     7.4823851700
 1688      C   -1427.0328002700    18.7418129800    11.1799159000
 1689      H   -1428.3645244400    19.1585438900    12.7535166700
 1690      H   -1427.2890818100    16.8821367400    10.5703765000
 1691      C   -1424.1936696600    18.9607181700    12.0825320500
 1692      H   -1422.7274592800    18.5322172700    10.6475196100
 1693      H   -1423.6659615400    20.9960571700    12.3150310600
 1694      C   -1423.4163676100    17.2634992600    14.4431358900
 1695      H   -1424.1107439600    15.4057256000    14.2890723700
 1696      H   -1421.3811679900    16.9930132400    14.4848032600
 1697      C   -1424.1661172100    18.3571145100    16.9982786000
 1698      H   -1423.1163328700    20.0578594700    17.4349788600
 1699      H   -1425.9722038700    19.2844587600    16.7784787500
 1700      C   -1423.8294382100    16.6467261200    19.5213218900
 1701      H   -1424.5897984600    17.6179809900    21.0852633600
 1702      H   -1424.8655332200    14.9653892800    19.1756792800
 1703      C   -1421.1491122800    16.0389815700    20.0535291600
 1704      H   -1420.2024105100    15.2176035300    18.3699662600
 1705      H   -1420.2942148600    17.9069719400    20.5011761300
 1706      C   -1420.9243015700    14.2426227900    22.4576519600
 1707      H   -1421.9265089100    14.7322830000    24.1974280400
 1708      H   -1421.4808315500    12.3977970900    21.8558134200
 1709      C   -1418.0559562400    13.9318978200    23.2515961100
 1710      H   -1417.0297901400    13.0855637600    21.6373431200
 1711      H   -1417.1746821800    15.7591505700    23.5362334300
 1712      C   -1417.9487880100    12.1331245800    25.4492532800
 1713      H   -1419.3359977500    12.7313492100    26.7573078900
 1714      H   -1418.3687053900    10.2922758200    24.6863510100
 1715      C   -1415.2851518700    11.9648138700    26.6312557900
 1716      H   -1415.1104804800    10.1128091100    27.6136817100
 1717      H   -1413.7588551900    12.1118016600    25.0673541600
 1718      C   -1414.4381494800    14.1800633600    28.3925856000
 1719      H   -1415.9789543500    14.7678001200    29.6317713300
 1720      H   -1413.8607291100    15.6598120600    27.1347873600
 1721      H   -1412.8421214800    13.4843112900    29.4883984500
 1722      H   -1432.5472728300    40.2510722900    30.0485048500
 1723      C   -1432.7065679800    38.9674330000    28.5118489600
 1724      H   -1434.7251173500    38.6010298700    28.2476084800
 1725      H   -1432.0094368600    39.8005016300    26.7599896400
 1726      C   -1431.1600851400    36.5184126100    29.0659231000
 1727      H   -1431.0779071500    35.1942101300    27.5575626800
 1728      H   -1429.1878406600    36.8133180600    29.5415119800
 1729      C   -1432.3558390700    35.1813941100    31.2888750400
 1730      H   -1431.7881049700    36.0772883700    33.0594410100
 1731      H   -1434.3081709900    35.1492164900    30.9619736100
 1732      C   -1431.3309416100    32.4957385100    31.7500396600
 1733      H   -1431.4843947300    31.1206594600    30.2210887200
 1734      H   -1429.3137203700    32.8303455100    32.2779307400
 1735      C   -1432.7295693800    31.2964003600    34.1110292700
 1736      H   -1432.3055474700    32.2925425200    35.7795890300
 1737      H   -1434.6316688300    31.5346518100    33.4422171500
 1738      C   -1432.2586770600    28.5387853400    34.3899171700
 1739      H   -1430.2530850300    28.2806323400    34.4002887400
 1740      H   -1433.0776754900    27.9791864300    36.1738402900
 1741      C   -1433.5057476400    26.6461027400    32.4572714300
 1742      H   -1435.4205543300    27.2169801700    32.3438031900
 1743      H   -1432.8992658500    26.8650695500    30.5121674100
 1744      C   -1433.2038638700    23.8945251200    33.4029096800
 1745      H   -1431.1720598300    23.3411716000    33.4080487200
 1746      H   -1433.6763379000    23.8548632900    35.3580311700
 1747      C   -1434.5713197700    22.0847694000    31.7548732200
 1748      H   -1436.5190942200    22.4601256700    31.7183091700
 1749      H   -1433.9820383900    22.2930411000    29.7693893300
 1750      C   -1434.2579034000    19.1714826500    32.5636366300
 1751      H   -1432.2049460500    18.8645451300    33.0826529500
 1752      H   -1435.2923409400    19.2101589600    34.3141739800
 1753      C   -1435.1989784200    17.1060344200    30.7354176200
 1754      H   -1437.1583104800    17.0606120100    30.8505919900
 1755      H   -1434.5901039200    17.6577773700    28.7410987100
 1756      C   -1434.2485867700    14.5160437500    31.4830158100
 1757      H   -1434.6898654200    13.8213196500    33.4266207900
 1758      H   -1432.2106875000    14.3405541900    31.3895423800
 1759      H   -1434.8127010700    12.8522523000    30.2444545400
 1760      H   -1448.5241251200    28.9173580900    34.7113280500
 1761      C   -1449.4096809200    29.3110961500    36.5904917800
 1762      H   -1450.0062161100    31.2062793200    36.5871098800
 1763      H   -1451.3216006000    28.6067200300    36.5464778500
 1764      C   -1447.9496864900    28.4699955100    38.9175520600
 1765      H   -1447.4605271700    26.5384889700    38.9042368200
 1766      H   -1445.9890034200    29.3928837900    38.5559292300
 1767      C   -1449.0345033500    29.3557079200    41.4101235700
 1768      H   -1449.8787243200    31.2432607900    41.1256647600
 1769      H   -1450.6923576500    28.1365860900    41.9261482800
 1770      C   -1447.0822730500    29.5536245500    43.6716462600
 1771      H   -1446.4628452800    27.6150808300    44.2722016900
 1772      H   -1445.3930388400    30.2791539300    42.7056984500
 1773      C   -1447.9686415100    31.4129488200    45.6578055900
 1774      H   -1447.9738727000    33.2062161700    44.5373319900
 1775      H   -1449.8680282900    30.8453588200    46.2664229300
 1776      C   -1445.9613652900    31.2996006800    47.8510542900
 1777      H   -1446.0402293800    29.4489473800    48.8639846500
 1778      H   -1444.0449036400    31.2673076600    47.1553501200
 1779      C   -1446.3376535600    33.5231828200    49.6021623700
 1780      H   -1446.5665134700    35.3741599600    48.7931209000
 1781      H   -1448.2191789700    33.2699546700    50.5806031800
 1782      C   -1444.5703219500    33.8028356400    51.8551626900
 1783      H   -1442.5941135600    33.7749128800    51.2274742000
 1784      H   -1444.7486878100    35.8354019000    52.4976728400
 1785      C   -1445.2690167700    31.8265458400    54.0418598200
 1786      H   -1447.1353086400    31.9237679700    54.8364079100
 1787      H   -1445.0855629300    29.9479055000    53.2534474800
 1788      C   -1443.1701825700    32.0830100000    56.1469999500
 1789      H   -1441.1233301600    31.6466931500    55.4308845700
 1790      H   -1442.9279254200    33.8361514800    56.8063763400
 1791      C   -1443.7089566800    30.3493332000    58.4745068700
 1792      H   -1445.6697399800    30.7784097600    59.3687070600
 1793      H   -1443.6723836400    28.3632226900    58.0082810000
 1794      C   -1441.5955254500    30.6946035000    60.2840221700
 1795      H   -1441.1340555400    32.6886254200    60.6512252400
 1796      H   -1439.8538588900    29.8746299300    59.5417258300
 1797      H   -1442.0821000000    29.8701194500    62.0803980100
 1798      H   -1417.9910490000    -4.3750542100    46.3520044100
 1799      C   -1418.5950776700    -3.0447415600    44.9494782300
 1800      H   -1418.2593512400    -1.0507735400    45.4014303000
 1801      H   -1417.3229701600    -3.5534246400    43.4027851700
 1802      C   -1421.4204463400    -3.2110432600    44.4758305200
 1803      H   -1422.0847692000    -5.0896728900    45.1188216000
 1804      H   -1422.3509524300    -1.7079149900    45.4109077000
 1805      C   -1422.1045007300    -2.9969822200    41.7593868000
 1806      H   -1421.0566912600    -1.6250448300    40.5599227200
 1807      H   -1421.3114634200    -4.7235365700    40.9222660700
 1808      C   -1424.8996437100    -3.0665234900    41.1651213200
 1809      H   -1425.9286491600    -4.2512431300    42.4338978800
 1810      H   -1425.7061272100    -1.2503954500    41.5403707800
 1811      C   -1425.6132253800    -3.7311925500    38.4431248100
 1812      H   -1424.8259730200    -2.4380375800    37.0619794500
 1813      H   -1424.9980729500    -5.6426784000    38.0018708600
 1814      C   -1428.5653451600    -3.7302389200    38.1439342400
 1815      H   -1429.4406743000    -5.1515800000    39.2770587500
 1816      H   -1429.2609001300    -1.9189702700    38.6315299700
 1817      C   -1429.5480903800    -3.9319613900    35.4153456900
 1818      H   -1428.7705479500    -2.4241266800    34.3536281600
 1819      H   -1428.6574942300    -5.4887585900    34.5813927200
 1820      C   -1432.4891718000    -3.9242336800    35.5068005600
 1821      H   -1432.9994704800    -5.8496804600    35.5106817700
 1822      H   -1433.1764380800    -2.9447789700    37.1609372400
 1823      C   -1433.6779007900    -2.7601412000    33.1132704300
 1824      H   -1433.0805998000    -1.0156696400    32.5313708900
 1825      H   -1433.1009062100    -3.8587486900    31.4866207200
 1826      C   -1436.5527844000    -3.0830287900    33.1780668800
 1827      H   -1436.8657058200    -5.0186909200    33.5114477800
 1828      H   -1437.2023331900    -2.1689979000    34.9059962900
 1829      C   -1437.8689880000    -2.1043598200    30.8019315600
 1830      H   -1437.3250314300    -0.1454755000    30.4291072800
 1831      H   -1437.3452519400    -3.4546435100    29.2018195900
 1832      C   -1440.7016503800    -2.2223262700    31.0052473800
 1833      H   -1441.7429935200    -1.8830388400    29.0893383000
 1834      H   -1441.2980280400    -0.7594708400    32.3421129200
 1835      H   -1441.3886674200    -4.0486713300    31.4872462700
 1836      H   -1436.0761531100     4.1938212200    42.3931399900
 1837      C   -1434.8290824000     4.2307995500    40.6423272900
 1838      H   -1436.2299738000     3.8470179200    39.1462251000
 1839      H   -1433.9469261400     5.9601784600    40.3150824300
 1840      C   -1432.9366788700     2.2263548700    41.0480702100
 1841      H   -1431.6469610800     2.4034984500    39.4269993100
 1842      H   -1431.9671370400     2.7546347500    42.7430188500
 1843      C   -1433.7747730900    -0.5825801400    41.4296620800
 1844      H   -1435.0731789800    -1.0507421000    39.9242599500
 1845      H   -1432.0640840700    -1.8164483700    41.2662845300
 1846      C   -1435.2293875300    -1.2708761100    43.8431811200
 1847      H   -1434.0594529400    -0.7963273700    45.5589568000
 1848      H   -1436.9277735900    -0.1809341800    43.8774735300
 1849      C   -1435.9932560400    -4.1481960600    43.8727716100
 1850      H   -1437.2889055500    -4.4804260100    42.4193762400
 1851      H   -1434.2624186200    -5.3063981600    43.6032389700
 1852      C   -1437.3036879400    -5.0951405400    46.4165066300
 1853      H   -1439.0537068200    -4.1135637100    46.6530189800
 1854      H   -1437.6125784900    -7.0512089900    46.0783276800
 1855      C   -1435.8824867400    -4.7806170000    48.9170551500
 1856      H   -1433.9815571800    -5.3373922300    48.3442010200
 1857      H   -1435.7819799900    -2.7791052400    49.1949179700
 1858      C   -1436.9546753200    -6.1229339300    51.1601001800
 1859      H   -1438.6663304200    -5.3111123200    51.9653675400
 1860      H   -1437.5188384300    -7.9743530800    50.6034341800
 1861      C   -1434.9225049500    -6.2008972600    53.3713960600
 1862      H   -1433.5120602300    -7.7118495200    52.7640998600
 1863      H   -1433.7379542300    -4.5232943400    53.3215544900
 1864      C   -1435.9958209500    -6.4349682800    55.9906563500
 1865      H   -1436.8612504300    -4.6597374500    56.4344205600
 1866      H   -1437.4439906800    -7.8421257600    56.0096842300
 1867      C   -1434.1525589300    -7.0453802600    58.2304927500
 1868      H   -1433.4178781800    -8.9872427700    57.8514330000
 1869      H   -1432.5324421400    -5.7783744300    58.5684799200
 1870      C   -1435.7029682300    -7.6682917100    60.6485587400
 1871      H   -1434.9934580500    -9.1937282600    61.8099742500
 1872      H   -1437.7352900600    -7.8215912200    60.2563698100
 1873      H   -1435.5056651500    -6.0057389900    61.7662496300
 1874      H   -1424.0059030100    21.6490313000    54.2493507000
 1875      C   -1423.4200182000    22.7700315400    52.5216662400
 1876      H   -1424.6439208300    24.5328128400    52.3674120200
 1877      H   -1421.4003794300    23.4890369400    52.9819292200
 1878      C   -1423.8300656100    21.3494330500    49.9121357200
 1879      H   -1423.2167495400    19.4340375600    50.2942919800
 1880      H   -1425.7707017200    21.2789210900    49.4075376700
 1881      C   -1422.4343959500    22.4275423200    47.4841451300
 1882      H   -1423.0695964700    24.3222195100    47.2825843700
 1883      H   -1420.3252595500    22.3675414100    47.6014788600
 1884      C   -1422.8194534400    20.7829992400    45.1402605100
 1885      H   -1422.0022498700    18.8679925600    45.3068793400
 1886      H   -1424.9446841100    20.3871272000    45.0828399700
 1887      C   -1421.7390617000    21.7764608000    42.5844218400
 1888      H   -1422.5539773700    23.6859548100    42.4975669100
 1889      H   -1419.7039023400    22.0416674600    42.8418587600
 1890      C   -1422.0223161300    20.0492560400    40.2750361100
 1891      H   -1421.2875041400    18.2700526100    40.7457928700
 1892      H   -1423.9315574900    19.6881312300    39.8845621100
 1893      C   -1420.7998393600    21.0537929800    37.7968607200
 1894      H   -1421.0193703400    23.0264717000    37.4953558100
 1895      H   -1418.7657784300    20.5623701400    37.9297106900
 1896      C   -1421.9026432800    19.7873352000    35.4882306000
 1897      H   -1422.0505433600    17.7321515800    35.5774220000
 1898      H   -1423.8090729800    20.3974541900    35.2954170500
 1899      C   -1420.4620715900    20.6393092600    33.0230823200
 1900      H   -1420.6789248700    22.5977223100    32.8884425200
 1901      H   -1418.4785640700    20.3214060100    33.2849571200
 1902      C   -1421.4952631800    19.4002391200    30.6231780500
 1903      H   -1420.6750974600    17.5553856700    30.2777360900
 1904      H   -1423.5278362200    19.2811359300    30.8482242100
 1905      C   -1420.6944540300    20.9694473500    28.2931612900
 1906      H   -1421.4263162100    22.8695274600    28.4512228800
 1907      H   -1418.6526445700    21.2756018700    28.2624071000
 1908      C   -1421.4864879600    19.7989719700    25.7454387300
 1909      H   -1423.0935045300    18.7144914500    25.9071327800
 1910      H   -1420.0293971300    18.5123780800    25.1062744600
 1911      H   -1421.7892329600    21.1828387500    24.1838069600
 ----------------------------------------------------------------
 Nuclear Repulsion Energy =           0.00000000 hartrees
 There are       48 alpha and       48 beta electrons
 Total job time:  126.43s(wall), 249.08s(cpu) 
 Wed Jun  1 23:32:46 2022

        *************************************************************
        *                                                           *
        *  Thank you very much for using Q-Chem.  Have a nice day.  *
        *                                                           *
        *************************************************************


