1911
# CELL(abcABC): 3981.86832  3981.86832  3981.86832    90.00000    90.00000    90.00000  Step:       40000  Bead:       0 x_centroid{angstrom}  cell{atomic_unit}
      Fe -2.76327e+00  1.40223e+00 -1.26738e+00
       C -2.36804e+00  3.16363e+00 -9.28858e-01
       C -3.79782e+00  1.70874e-01 -1.97022e+00
       C -1.99182e+00  1.44459e+00 -2.93671e+00
       C -1.48937e+00  5.58646e-01 -1.86500e-01
       C -4.15513e+00  1.52116e+00 -1.52538e-01
       O -2.12052e+00  4.21515e+00 -4.89422e-01
       O -4.41836e+00 -6.66693e-01 -2.46491e+00
       O -1.76907e+00  1.54270e+00 -4.05856e+00
       O -8.48100e-01  1.19451e-02  6.27085e-01
       O -5.04854e+00  1.39196e+00  5.83292e-01
       H  4.18202e+00  1.08088e+01 -1.15577e+01
       C  3.96569e+00  1.15854e+01 -1.08449e+01
       H  3.96848e+00  1.25217e+01 -1.14051e+01
       H  2.98094e+00  1.15242e+01 -1.04759e+01
       C  4.96760e+00  1.16232e+01 -9.74663e+00
       H  5.99377e+00  1.17751e+01 -1.01075e+01
       H  4.77084e+00  1.25033e+01 -9.09208e+00
       C  4.88501e+00  1.03501e+01 -8.85606e+00
       H  3.85037e+00  1.02106e+01 -8.63342e+00
       H  5.08843e+00  9.46334e+00 -9.51805e+00
       C  5.90308e+00  1.01890e+01 -7.64864e+00
       H  6.94522e+00  1.02156e+01 -7.98781e+00
       H  5.73722e+00  1.09937e+01 -6.92135e+00
       C  5.81486e+00  8.84247e+00 -6.89973e+00
       H  4.73450e+00  8.67769e+00 -6.91065e+00
       H  6.15118e+00  7.95947e+00 -7.52383e+00
       C  6.57974e+00  8.94221e+00 -5.50965e+00
       H  7.54764e+00  9.41909e+00 -5.57453e+00
       H  6.09103e+00  9.65140e+00 -4.84513e+00
       C  6.66320e+00  7.64513e+00 -4.72393e+00
       H  5.71115e+00  7.05803e+00 -4.64210e+00
       H  7.46569e+00  7.00806e+00 -5.22849e+00
       C  7.35280e+00  7.77878e+00 -3.37607e+00
       H  8.34676e+00  8.09768e+00 -3.52648e+00
       H  6.89029e+00  8.61270e+00 -2.72905e+00
       C  7.36362e+00  6.48558e+00 -2.60316e+00
       H  6.38310e+00  6.10686e+00 -2.30265e+00
       H  7.79949e+00  5.66906e+00 -3.18310e+00
       C  8.18215e+00  6.75506e+00 -1.32945e+00
       H  9.22972e+00  6.88964e+00 -1.54256e+00
       H  7.82244e+00  7.68354e+00 -8.86113e-01
       C  7.92904e+00  5.62955e+00 -2.93119e-01
       H  6.85689e+00  5.56524e+00  2.31579e-02
       H  8.08049e+00  4.64519e+00 -6.79228e-01
       C  8.72748e+00  5.68659e+00  1.05702e+00
       H  9.81508e+00  5.81102e+00  8.14104e-01
       H  8.66607e+00  4.70554e+00  1.49378e+00
       H  8.26592e+00  6.34896e+00  1.81072e+00
       H  9.23886e-01  3.15824e+00  2.73959e+00
       C  6.50666e-01  3.05405e+00  1.68217e+00
       H  6.99259e-01  1.98102e+00  1.45357e+00
       H -4.05006e-01  3.32683e+00  1.69640e+00
       C  1.52878e+00  3.93898e+00  7.71745e-01
       H  1.02937e+00  4.08714e+00 -1.86917e-01
       H  1.62409e+00  4.96913e+00  1.16574e+00
       C  2.96257e+00  3.45192e+00  4.37674e-01
       H  2.81533e+00  2.43620e+00  9.33507e-02
       H  3.30519e+00  3.98476e+00 -4.68711e-01
       C  3.97747e+00  3.59789e+00  1.60951e+00
       H  4.14773e+00  4.64931e+00  1.81433e+00
       H  3.38629e+00  3.15324e+00  2.42207e+00
       C  5.36943e+00  2.88312e+00  1.54707e+00
       H  5.25494e+00  1.82915e+00  1.43811e+00
       H  5.87871e+00  3.16663e+00  6.22508e-01
       C  6.29715e+00  3.24082e+00  2.80638e+00
       H  7.31574e+00  2.85584e+00  2.40484e+00
       H  6.37512e+00  4.26236e+00  3.05120e+00
       C  6.10812e+00  2.50777e+00  4.11262e+00
       H  4.99202e+00  2.62518e+00  4.40021e+00
       H  6.19647e+00  1.44781e+00  3.96911e+00
       C  6.91622e+00  2.97325e+00  5.30178e+00
       H  7.98676e+00  2.82508e+00  5.11823e+00
       H  6.85981e+00  4.01393e+00  5.38267e+00
       C  6.41673e+00  2.31576e+00  6.65177e+00
       H  5.35237e+00  2.16222e+00  6.67328e+00
       H  6.93580e+00  1.39175e+00  6.88241e+00
       C  6.72698e+00  3.25939e+00  7.80648e+00
       H  7.87747e+00  3.42617e+00  7.71979e+00
       H  6.26978e+00  4.23893e+00  7.68293e+00
       C  6.33298e+00  2.64897e+00  9.13002e+00
       H  5.26592e+00  2.61586e+00  9.33403e+00
       H  6.81066e+00  1.67338e+00  9.14975e+00
       C  6.95105e+00  3.42876e+00  1.02507e+01
       H  6.28515e+00  3.23018e+00  1.10899e+01
       H  7.02429e+00  4.45757e+00  1.00658e+01
       H  7.94975e+00  3.07586e+00  1.06047e+01
       H  1.04043e+01  1.73918e-01 -1.77957e+01
       C  1.12218e+01 -2.55375e-02 -1.71230e+01
       H  1.08408e+01 -9.00145e-01 -1.65460e+01
       H  1.20424e+01 -4.09860e-01 -1.76775e+01
       C  1.14380e+01  1.07189e+00 -1.61126e+01
       H  1.17637e+01  1.87842e+00 -1.66772e+01
       H  1.04452e+01  1.41964e+00 -1.56828e+01
       C  1.25174e+01  7.27244e-01 -1.49756e+01
       H  1.26225e+01 -3.29990e-01 -1.46486e+01
       H  1.34390e+01  8.83430e-01 -1.55481e+01
       C  1.26079e+01  1.72578e+00 -1.38553e+01
       H  1.24299e+01  2.76128e+00 -1.41773e+01
       H  1.19628e+01  1.53775e+00 -1.30545e+01
       C  1.39569e+01  1.94514e+00 -1.31154e+01
       H  1.41829e+01  9.98040e-01 -1.25541e+01
       H  1.47304e+01  2.02615e+00 -1.38747e+01
       C  1.39169e+01  3.16252e+00 -1.20915e+01
       H  1.34623e+01  4.00994e+00 -1.25343e+01
       H  1.31755e+01  2.91274e+00 -1.13337e+01
       C  1.52008e+01  3.47653e+00 -1.12940e+01
       H  1.56845e+01  2.47057e+00 -1.10745e+01
       H  1.58192e+01  4.12451e+00 -1.18956e+01
       C  1.48131e+01  4.26223e+00 -1.00391e+01
       H  1.45306e+01  5.28747e+00 -1.02355e+01
       H  1.39391e+01  3.72113e+00 -9.56125e+00
       C  1.60188e+01  4.31273e+00 -9.03994e+00
       H  1.63918e+01  3.34351e+00 -8.83441e+00
       H  1.68577e+01  4.86402e+00 -9.55753e+00
       C  1.55320e+01  5.03770e+00 -7.73477e+00
       H  1.53449e+01  6.09276e+00 -7.88489e+00
       H  1.45936e+01  4.53636e+00 -7.33856e+00
       C  1.65933e+01  5.00213e+00 -6.62541e+00
       H  1.60923e+01  4.96156e+00 -5.65670e+00
       H  1.70348e+01  4.04054e+00 -6.59476e+00
       C  1.75734e+01  6.23345e+00 -6.69387e+00
       H  1.80387e+01  6.59785e+00 -5.76767e+00
       H  1.69738e+01  7.18866e+00 -6.87967e+00
       H  1.83446e+01  5.99678e+00 -7.46517e+00
       H  7.33227e+00 -7.93214e+00 -1.35026e+01
       C  6.38261e+00 -7.87959e+00 -1.29372e+01
       H  5.81771e+00 -8.83116e+00 -1.31392e+01
       H  6.61280e+00 -7.88818e+00 -1.18956e+01
       C  5.60214e+00 -6.65781e+00 -1.33971e+01
       H  6.01006e+00 -5.65946e+00 -1.30973e+01
       H  5.59584e+00 -6.65458e+00 -1.44340e+01
       C  4.12473e+00 -6.61663e+00 -1.26989e+01
       H  3.63038e+00 -7.44343e+00 -1.31119e+01
       H  4.29699e+00 -6.75386e+00 -1.16099e+01
       C  3.32134e+00 -5.28558e+00 -1.30133e+01
       H  3.97189e+00 -4.43729e+00 -1.27490e+01
       H  3.05300e+00 -5.17767e+00 -1.40578e+01
       C  1.98418e+00 -5.33594e+00 -1.22711e+01
       H  1.34518e+00 -6.04497e+00 -1.28128e+01
       H  2.12728e+00 -5.76086e+00 -1.12887e+01
       C  1.30047e+00 -4.00686e+00 -1.23548e+01
       H  1.79489e+00 -3.24403e+00 -1.17226e+01
       H  1.22527e+00 -3.63866e+00 -1.33814e+01
       C -1.17832e-01 -4.11370e+00 -1.17124e+01
       H -7.45991e-01 -4.87397e+00 -1.22446e+01
       H -1.80243e-02 -4.32948e+00 -1.06677e+01
       C -9.53552e-01 -2.86087e+00 -1.15527e+01
       H -4.02070e-01 -2.21639e+00 -1.09047e+01
       H -1.23007e+00 -2.48632e+00 -1.25195e+01
       C -2.32391e+00 -3.22692e+00 -1.08744e+01
       H -2.82800e+00 -3.94107e+00 -1.14722e+01
       H -2.17552e+00 -3.97222e+00 -1.01570e+01
       C -3.19393e+00 -2.04922e+00 -1.03628e+01
       H -4.00890e+00 -2.46295e+00 -9.76106e+00
       H -2.48212e+00 -1.41146e+00 -9.85709e+00
       C -3.92904e+00 -1.28174e+00 -1.14435e+01
       H -4.07412e+00 -3.17887e-01 -1.11036e+01
       H -3.41214e+00 -1.35943e+00 -1.24279e+01
       C -5.33499e+00 -1.69048e+00 -1.17207e+01
       H -5.80976e+00 -1.25249e+00 -1.26082e+01
       H -6.00544e+00 -1.54975e+00 -1.08613e+01
       H -5.38539e+00 -2.68383e+00 -1.20049e+01
       H  1.39860e+01 -9.01852e+00 -8.14576e+00
       C  1.31134e+01 -8.91035e+00 -8.82679e+00
       H  1.26148e+01 -7.97101e+00 -8.73571e+00
       H  1.35688e+01 -9.15073e+00 -9.77179e+00
       C  1.20196e+01 -9.92540e+00 -8.60274e+00
       H  1.24557e+01 -1.09115e+01 -8.76302e+00
       H  1.16628e+01 -9.92557e+00 -7.57281e+00
       C  1.08448e+01 -9.64100e+00 -9.60031e+00
       H  1.02705e+01 -8.74285e+00 -9.45090e+00
       H  1.12435e+01 -9.37157e+00 -1.06395e+01
       C  9.88884e+00 -1.08168e+01 -9.78707e+00
       H  1.04677e+01 -1.17146e+01 -9.97163e+00
       H  9.34610e+00 -1.10054e+01 -8.88089e+00
       C  8.78884e+00 -1.06455e+01 -1.08149e+01
       H  8.26904e+00 -9.74310e+00 -1.05020e+01
       H  9.19700e+00 -1.05075e+01 -1.18371e+01
       C  7.84350e+00 -1.18176e+01 -1.08340e+01
       H  8.54353e+00 -1.26373e+01 -1.08619e+01
       H  7.25338e+00 -1.17947e+01 -9.93102e+00
       C  6.90423e+00 -1.18863e+01 -1.20700e+01
       H  6.62587e+00 -1.08677e+01 -1.22793e+01
       H  7.47536e+00 -1.23049e+01 -1.28787e+01
       C  5.52542e+00 -1.26753e+01 -1.17841e+01
       H  5.60709e+00 -1.37030e+01 -1.14967e+01
       H  5.04453e+00 -1.23533e+01 -1.08975e+01
       C  4.52249e+00 -1.25771e+01 -1.29980e+01
       H  4.22982e+00 -1.15739e+01 -1.33241e+01
       H  4.90100e+00 -1.30627e+01 -1.39428e+01
       C  3.19239e+00 -1.33434e+01 -1.26718e+01
       H  3.38319e+00 -1.44227e+01 -1.24849e+01
       H  2.69247e+00 -1.29416e+01 -1.18526e+01
       C  2.24445e+00 -1.34396e+01 -1.39187e+01
       H  1.97148e+00 -1.24702e+01 -1.43724e+01
       H  2.85397e+00 -1.39485e+01 -1.46886e+01
       C  9.23455e-01 -1.41791e+01 -1.34930e+01
       H  5.32502e-01 -1.36370e+01 -1.26184e+01
       H  1.18894e+00 -1.51872e+01 -1.31851e+01
       H  1.93984e-01 -1.42825e+01 -1.42342e+01
       H  7.16653e+00 -7.66468e+00 -3.62335e-01
       C  7.46716e+00 -8.22516e+00 -1.27800e+00
       H  6.90531e+00 -9.13921e+00 -1.34889e+00
       H  7.15904e+00 -7.56533e+00 -2.09676e+00
       C  8.97487e+00 -8.37921e+00 -1.31225e+00
       H  9.26430e+00 -8.84186e+00 -2.30811e+00
       H  9.45793e+00 -7.39549e+00 -1.33955e+00
       C  9.67175e+00 -9.17744e+00 -1.66079e-01
       H  1.07129e+01 -9.17382e+00 -4.74160e-01
       H  9.55724e+00 -8.73369e+00  8.29778e-01
       C  9.00432e+00 -1.05826e+01  1.55870e-01
       H  8.02975e+00 -1.04203e+01  5.47556e-01
       H  8.84343e+00 -1.10057e+01 -8.09792e-01
       C  9.81648e+00 -1.14830e+01  1.15606e+00
       H  1.07264e+01 -1.18630e+01  7.56635e-01
       H  1.01668e+01 -1.08747e+01  2.02259e+00
       C  9.01900e+00 -1.26713e+01  1.59801e+00
       H  8.11534e+00 -1.21858e+01  1.95610e+00
       H  8.82481e+00 -1.32073e+01  6.36936e-01
       C  9.65531e+00 -1.35970e+01  2.57554e+00
       H  1.02741e+01 -1.42750e+01  1.92092e+00
       H  1.04401e+01 -1.30881e+01  3.11943e+00
       C  8.70234e+00 -1.43875e+01  3.49596e+00
       H  8.05536e+00 -1.37172e+01  4.02313e+00
       H  8.09516e+00 -1.51222e+01  2.84952e+00
       C  9.28799e+00 -1.53661e+01  4.48275e+00
       H  9.74255e+00 -1.62212e+01  3.93982e+00
       H  1.01286e+01 -1.48627e+01  5.00057e+00
       C  8.23071e+00 -1.58118e+01  5.51298e+00
       H  7.58100e+00 -1.50288e+01  5.93303e+00
       H  7.71714e+00 -1.66398e+01  5.00767e+00
       C  8.99650e+00 -1.64065e+01  6.71309e+00
       H  9.93768e+00 -1.68306e+01  6.26952e+00
       H  9.22222e+00 -1.55847e+01  7.33060e+00
       C  8.14949e+00 -1.73086e+01  7.52082e+00
       H  8.67661e+00 -1.79902e+01  8.19204e+00
       H  7.58578e+00 -1.80043e+01  6.94242e+00
       H  7.51124e+00 -1.67085e+01  8.14804e+00
       H  1.06096e+01  5.73591e+00  6.95679e+00
       C  1.03437e+01  4.91732e+00  6.32710e+00
       H  1.01840e+01  4.07856e+00  7.04358e+00
       H  9.38215e+00  5.04993e+00  5.83848e+00
       C  1.14415e+01  4.73502e+00  5.30767e+00
       H  1.23483e+01  4.73180e+00  5.86255e+00
       H  1.12916e+01  3.73462e+00  4.86524e+00
       C  1.14442e+01  5.88551e+00  4.22111e+00
       H  1.22125e+01  5.62578e+00  3.51522e+00
       H  1.04719e+01  5.85733e+00  3.73733e+00
       C  1.17393e+01  7.27708e+00  4.74782e+00
       H  1.16594e+01  7.98070e+00  3.86547e+00
       H  1.08726e+01  7.49545e+00  5.43435e+00
       C  1.31610e+01  7.44745e+00  5.35810e+00
       H  1.32360e+01  6.79247e+00  6.28357e+00
       H  1.39487e+01  7.06717e+00  4.66094e+00
       C  1.34777e+01  8.98839e+00  5.59813e+00
       H  1.44639e+01  9.15471e+00  5.94686e+00
       H  1.35959e+01  9.49766e+00  4.60135e+00
       C  1.25077e+01  9.73454e+00  6.56857e+00
       H  1.14332e+01  9.62117e+00  6.31506e+00
       H  1.25142e+01  9.45304e+00  7.60172e+00
       C  1.25969e+01  1.12332e+01  6.58631e+00
       H  1.35956e+01  1.16186e+01  6.75322e+00
       H  1.23821e+01  1.15788e+01  5.59153e+00
       C  1.16316e+01  1.19067e+01  7.66228e+00
       H  1.14609e+01  1.29492e+01  7.48315e+00
       H  1.06685e+01  1.14421e+01  7.61509e+00
       C  1.21586e+01  1.16286e+01  9.12419e+00
       H  1.22164e+01  1.05341e+01  9.32047e+00
       H  1.31905e+01  1.19713e+01  9.20344e+00
       C  1.14398e+01  1.24797e+01  1.01840e+01
       H  1.17787e+01  1.35501e+01  1.01778e+01
       H  1.03490e+01  1.25249e+01  1.00547e+01
       C  1.16289e+01  1.18790e+01  1.16275e+01
       H  1.11574e+01  1.09000e+01  1.16864e+01
       H  1.10980e+01  1.25748e+01  1.22603e+01
       H  1.26820e+01  1.19159e+01  1.19950e+01
       H  1.54068e+01 -5.34038e+00 -4.68157e+00
       C  1.53147e+01 -4.73931e+00 -3.85285e+00
       H  1.61246e+01 -4.02645e+00 -3.58850e+00
       H  1.45017e+01 -4.14335e+00 -4.16061e+00
       C  1.47655e+01 -5.54241e+00 -2.58342e+00
       H  1.41346e+01 -6.38374e+00 -2.91614e+00
       H  1.56371e+01 -6.09601e+00 -2.10336e+00
       C  1.42013e+01 -4.71723e+00 -1.39283e+00
       H  1.50448e+01 -4.07255e+00 -1.10051e+00
       H  1.35369e+01 -4.02191e+00 -1.84532e+00
       C  1.36218e+01 -5.48832e+00 -2.66896e-01
       H  1.28096e+01 -6.23634e+00 -5.91056e-01
       H  1.43479e+01 -5.98707e+00  3.23580e-01
       C  1.27728e+01 -4.52385e+00  7.16647e-01
       H  1.34833e+01 -3.67706e+00  1.07045e+00
       H  1.20241e+01 -4.03459e+00  1.30931e-01
       C  1.22211e+01 -5.31435e+00  1.92437e+00
       H  1.11461e+01 -5.54724e+00  1.89439e+00
       H  1.27987e+01 -6.15928e+00  2.24792e+00
       C  1.21851e+01 -4.35727e+00  3.12519e+00
       H  1.32312e+01 -4.11743e+00  3.33551e+00
       H  1.18503e+01 -3.37702e+00  2.77349e+00
       C  1.14809e+01 -4.87784e+00  4.45056e+00
       H  1.03770e+01 -4.61091e+00  4.44987e+00
       H  1.15573e+01 -5.91686e+00  4.48837e+00
       C  1.21526e+01 -4.54971e+00  5.78027e+00
       H  1.31171e+01 -5.05040e+00  5.95156e+00
       H  1.24345e+01 -3.48720e+00  5.82763e+00
       C  1.11857e+01 -4.86132e+00  6.96127e+00
       H  1.02096e+01 -4.41243e+00  6.73822e+00
       H  1.11112e+01 -5.93326e+00  7.01392e+00
       C  1.18303e+01 -4.41353e+00  8.29424e+00
       H  1.27049e+01 -5.03609e+00  8.57681e+00
       H  1.21219e+01 -3.38442e+00  8.20698e+00
       C  1.08649e+01 -4.57249e+00  9.45988e+00
       H  1.04564e+01 -5.58941e+00  9.52855e+00
       H  1.00156e+01 -3.94304e+00  9.39005e+00
       H  1.14736e+01 -4.39939e+00  1.03611e+01
       H  6.83608e+00 -1.20988e+00 -9.28774e+00
       C  7.32702e+00 -2.52313e-01 -9.33630e+00
       H  7.79543e+00 -2.09176e-01 -8.33995e+00
       H  8.10348e+00 -2.34042e-01 -1.01351e+01
       C  6.32155e+00  9.46435e-01 -9.42183e+00
       H  6.87669e+00  1.84557e+00 -9.14471e+00
       H  5.93988e+00  9.44817e-01 -1.03990e+01
       C  5.16505e+00  7.08541e-01 -8.36910e+00
       H  4.94662e+00 -3.16731e-01 -8.32590e+00
       H  5.43918e+00  9.12975e-01 -7.35184e+00
       C  3.84389e+00  1.43232e+00 -8.70158e+00
       H  4.01434e+00  2.51127e+00 -8.55800e+00
       H  3.41195e+00  1.25921e+00 -9.68016e+00
       C  2.66959e+00  1.00993e+00 -7.72153e+00
       H  2.50071e+00 -8.27105e-02 -7.73585e+00
       H  2.85201e+00  1.23697e+00 -6.68858e+00
       C  1.29217e+00  1.55506e+00 -8.22242e+00
       H  1.18775e+00  1.21784e+00 -9.27027e+00
       H  5.74920e-01  1.11144e+00 -7.62909e+00
       C  1.05385e+00  2.98996e+00 -8.10629e+00
       H  1.10875e+00  3.19574e+00 -7.07538e+00
       H  1.76789e+00  3.60565e+00 -8.62665e+00
       C -3.64090e-01  3.48591e+00 -8.61563e+00
       H -5.73524e-01  4.59820e+00 -8.71005e+00
       H -5.57908e-01  3.06273e+00 -9.64696e+00
       C -1.50783e+00  2.77046e+00 -7.79005e+00
       H -1.29916e+00  1.71685e+00 -7.94900e+00
       H -1.31283e+00  3.06554e+00 -6.73745e+00
       C -3.00280e+00  3.04065e+00 -8.22147e+00
       H -3.72500e+00  2.54023e+00 -7.62028e+00
       H -3.19612e+00  4.13814e+00 -8.07188e+00
       C -3.32289e+00  2.58654e+00 -9.69098e+00
       H -2.98849e+00  3.32229e+00 -1.03998e+01
       H -2.83496e+00  1.65639e+00 -9.89178e+00
       C -4.80694e+00  2.35859e+00 -1.00430e+01
       H -4.89304e+00  2.02291e+00 -1.11290e+01
       H -5.31356e+00  3.27518e+00 -9.97770e+00
       H -5.25834e+00  1.59197e+00 -9.39162e+00
       H  1.21911e+01  1.27394e+00  1.63476e+00
       C  1.15127e+01  1.11882e+00  8.51681e-01
       H  1.06661e+01  6.96437e-01  1.30067e+00
       H  1.13097e+01  2.02796e+00  3.07110e-01
       C  1.21375e+01  1.27477e-01 -2.41102e-01
       H  1.31868e+01  5.00253e-01 -3.87953e-01
       H  1.22749e+01 -8.68602e-01  1.26504e-01
       C  1.13442e+01  2.04816e-01 -1.55190e+00
       H  1.03019e+01  1.36511e-01 -1.38458e+00
       H  1.13379e+01  1.30054e+00 -1.88824e+00
       C  1.18560e+01 -6.52549e-01 -2.70383e+00
       H  1.28712e+01 -5.21643e-01 -2.92760e+00
       H  1.16892e+01 -1.74627e+00 -2.52141e+00
       C  1.11760e+01 -2.99489e-01 -4.03219e+00
       H  1.01378e+01 -8.90354e-02 -3.91959e+00
       H  1.16076e+01  6.46393e-01 -4.26860e+00
       C  1.14474e+01 -1.38333e+00 -5.09460e+00
       H  1.25148e+01 -1.53292e+00 -5.20255e+00
       H  1.10386e+01 -2.41478e+00 -4.70289e+00
       C  1.07634e+01 -1.06745e+00 -6.44673e+00
       H  9.68312e+00 -1.23780e+00 -6.26955e+00
       H  1.09723e+01 -9.46997e-02 -6.74414e+00
       C  1.10664e+01 -2.08960e+00 -7.48374e+00
       H  1.21537e+01 -2.40822e+00 -7.49543e+00
       H  1.05200e+01 -3.00902e+00 -7.19139e+00
       C  1.06528e+01 -1.69051e+00 -8.91618e+00
       H  9.59041e+00 -1.69874e+00 -8.93870e+00
       H  1.09504e+01 -5.91213e-01 -9.04991e+00
       C  1.12296e+01 -2.54556e+00 -1.00670e+01
       H  1.23379e+01 -2.54800e+00 -1.01442e+01
       H  1.11460e+01 -3.61062e+00 -9.88654e+00
       C  1.05639e+01 -2.32553e+00 -1.14601e+01
       H  1.10260e+01 -3.03124e+00 -1.21959e+01
       H  9.49837e+00 -2.54520e+00 -1.12426e+01
       C  1.06827e+01 -9.06351e-01 -1.19747e+01
       H  1.16595e+01 -6.30182e-01 -1.23483e+01
       H  1.05210e+01 -1.02462e-01 -1.11604e+01
       H  9.98559e+00 -8.31830e-01 -1.27941e+01
       H -1.26978e+01  7.14005e+00 -3.28603e+00
       C -1.21762e+01  6.79280e+00 -2.41358e+00
       H -1.28336e+01  6.36705e+00 -1.63471e+00
       H -1.16623e+01  5.92105e+00 -2.75728e+00
       C -1.12903e+01  7.77966e+00 -1.68360e+00
       H -1.05410e+01  8.18399e+00 -2.35401e+00
       H -1.18231e+01  8.77194e+00 -1.40895e+00
       C -1.07131e+01  7.23005e+00 -4.03374e-01
       H -1.14503e+01  6.66968e+00  1.94047e-01
       H -9.92539e+00  6.47386e+00 -4.99890e-01
       C -1.02023e+01  8.38490e+00  4.75193e-01
       H -9.38407e+00  8.81663e+00 -4.97201e-02
       H -1.09863e+01  9.10882e+00  6.85903e-01
       C -9.78201e+00  7.80195e+00  1.82918e+00
       H -1.07006e+01  7.88117e+00  2.45470e+00
       H -9.37847e+00  6.81518e+00  1.64033e+00
       C -8.63561e+00  8.63348e+00  2.40783e+00
       H -7.74308e+00  8.39042e+00  1.80781e+00
       H -8.73654e+00  9.67163e+00  2.15300e+00
       C -8.29374e+00  8.32646e+00  3.93340e+00
       H -9.22624e+00  8.69546e+00  4.44484e+00
       H -8.26774e+00  7.26900e+00  4.09202e+00
       C -6.98542e+00  8.88662e+00  4.42412e+00
       H -6.14429e+00  8.36853e+00  3.98177e+00
       H -6.86586e+00  1.00064e+01  4.19206e+00
       C -6.87157e+00  8.54649e+00  5.91512e+00
       H -7.62148e+00  9.20775e+00  6.37008e+00
       H -7.16925e+00  7.49281e+00  6.06682e+00
       C -5.44698e+00  8.79882e+00  6.43839e+00
       H -4.71918e+00  8.08287e+00  5.95291e+00
       H -5.26184e+00  9.82370e+00  6.12292e+00
       C -5.28691e+00  8.80346e+00  7.96136e+00
       H -4.24063e+00  9.02604e+00  8.28200e+00
       H -5.83886e+00  9.65949e+00  8.50006e+00
       C -5.64108e+00  7.40998e+00  8.65437e+00
       H -5.01168e+00  7.17787e+00  9.51405e+00
       H -5.72245e+00  6.46203e+00  8.05115e+00
       H -6.59457e+00  7.52624e+00  9.14789e+00
       H  2.92663e+00  1.26810e+01 -5.86545e-02
       C  2.39497e+00  1.35623e+01 -3.27870e-01
       H  2.45957e+00  1.42834e+01  4.45516e-01
       H  2.84493e+00  1.39111e+01 -1.22927e+00
       C  9.75691e-01  1.31876e+01 -6.68553e-01
       H  1.07407e+00  1.23978e+01 -1.43637e+00
       H  3.97598e-01  1.27640e+01  2.17933e-01
       C  1.73357e-01  1.43049e+01 -1.36846e+00
       H -6.62969e-02  1.50669e+01 -6.31892e-01
       H  8.17741e-01  1.47696e+01 -2.15905e+00
       C -1.19651e+00  1.39452e+01 -1.93060e+00
       H -1.33229e+00  1.47191e+01 -2.60782e+00
       H -1.11394e+00  1.30976e+01 -2.51194e+00
       C -2.37775e+00  1.37547e+01 -9.67187e-01
       H -2.26735e+00  1.29258e+01 -3.46369e-01
       H -2.44263e+00  1.46219e+01 -2.87252e-01
       C -3.73199e+00  1.36820e+01 -1.65630e+00
       H -4.00946e+00  1.47485e+01 -1.87723e+00
       H -3.72318e+00  1.30851e+01 -2.58664e+00
       C -4.80833e+00  1.29800e+01 -6.91356e-01
       H -4.59376e+00  1.19289e+01 -4.33845e-01
       H -4.74803e+00  1.35085e+01  2.17884e-01
       C -6.13955e+00  1.30151e+01 -1.46476e+00
       H -6.35189e+00  1.39968e+01 -1.79255e+00
       H -6.02674e+00  1.23028e+01 -2.22790e+00
       C -7.33845e+00  1.25261e+01 -6.91972e-01
       H -7.12923e+00  1.15590e+01 -3.52667e-01
       H -7.28052e+00  1.30581e+01  2.50910e-01
       C -8.68117e+00  1.25528e+01 -1.43154e+00
       H -9.43168e+00  1.23906e+01 -7.21451e-01
       H -9.01688e+00  1.35550e+01 -1.78285e+00
       C -8.93469e+00  1.15101e+01 -2.49855e+00
       H -8.28801e+00  1.16091e+01 -3.34470e+00
       H -8.81443e+00  1.05258e+01 -2.08833e+00
       C -1.03924e+01  1.12913e+01 -3.00646e+00
       H -1.06623e+01  1.21561e+01 -3.58434e+00
       H -1.10192e+01  1.10093e+01 -2.23511e+00
       H -1.02654e+01  1.05135e+01 -3.75996e+00
       H  1.34284e+01 -5.24057e-01 -9.24256e+00
       C  1.44938e+01 -4.25969e-01 -9.35186e+00
       H  1.49360e+01 -1.44342e+00 -9.23527e+00
       H  1.46264e+01 -5.64439e-02 -1.03908e+01
       C  1.50711e+01  6.32154e-01 -8.46925e+00
       H  1.61355e+01  7.27105e-01 -8.77597e+00
       H  1.45352e+01  1.54955e+00 -8.74760e+00
       C  1.49264e+01  3.63969e-01 -6.94142e+00
       H  1.38503e+01  2.57189e-01 -6.68293e+00
       H  1.53488e+01 -6.51665e-01 -6.79962e+00
       C  1.56973e+01  1.38927e+00 -6.13104e+00
       H  1.67110e+01  1.36821e+00 -6.48644e+00
       H  1.52841e+01  2.38707e+00 -6.24495e+00
       C  1.56155e+01  1.15336e+00 -4.58240e+00
       H  1.46777e+01  7.86537e-01 -4.22597e+00
       H  1.62993e+01  3.98047e-01 -4.29695e+00
       C  1.60223e+01  2.34654e+00 -3.55525e+00
       H  1.70333e+01  2.65304e+00 -3.73373e+00
       H  1.54596e+01  3.23251e+00 -3.71152e+00
       C  1.57464e+01  1.94638e+00 -2.10895e+00
       H  1.47179e+01  1.75260e+00 -1.91996e+00
       H  1.62624e+01  1.01634e+00 -2.02006e+00
       C  1.62935e+01  2.87327e+00 -1.05070e+00
       H  1.74220e+01  2.98945e+00 -1.25978e+00
       H  1.57859e+01  3.77765e+00 -1.20438e+00
       C  1.59869e+01  2.37873e+00  3.78188e-01
       H  1.49434e+01  2.04724e+00  3.72588e-01
       H  1.66849e+01  1.60880e+00  7.89345e-01
       C  1.59834e+01  3.54046e+00  1.37734e+00
       H  1.69466e+01  4.05835e+00  1.49598e+00
       H  1.53366e+01  4.35472e+00  9.64673e-01
       C  1.55768e+01  3.20589e+00  2.82897e+00
       H  1.46711e+01  2.58015e+00  2.80225e+00
       H  1.64265e+01  2.70744e+00  3.32452e+00
       C  1.52281e+01  4.46301e+00  3.65127e+00
       H  1.50429e+01  4.22992e+00  4.63680e+00
       H  1.43455e+01  4.89409e+00  3.22184e+00
       H  1.59699e+01  5.27612e+00  3.69027e+00
       H  8.98815e+00  1.31524e+01  7.79074e+00
       C  7.94669e+00  1.31547e+01  7.95429e+00
       H  7.85872e+00  1.30643e+01  9.05164e+00
       H  7.48721e+00  1.40888e+01  7.69916e+00
       C  7.32205e+00  1.19832e+01  7.09674e+00
       H  7.44462e+00  1.22788e+01  6.05647e+00
       H  7.97123e+00  1.11428e+01  7.22486e+00
       C  5.84646e+00  1.17775e+01  7.41937e+00
       H  5.69969e+00  1.12093e+01  8.34198e+00
       H  5.54482e+00  1.28516e+01  7.66743e+00
       C  4.98146e+00  1.11271e+01  6.32564e+00
       H  5.23541e+00  1.17153e+01  5.43344e+00
       H  5.36169e+00  1.00746e+01  6.31793e+00
       C  3.49483e+00  1.12234e+01  6.67084e+00
       H  3.34804e+00  1.07169e+01  7.62802e+00
       H  3.17910e+00  1.22701e+01  6.94513e+00
       C  2.59526e+00  1.04918e+01  5.74332e+00
       H  2.76140e+00  1.07979e+01  4.74088e+00
       H  2.77520e+00  9.41460e+00  5.85361e+00
       C  1.06897e+00  1.07971e+01  6.00200e+00
       H  8.17872e-01  1.03839e+01  6.96173e+00
       H  8.26725e-01  1.18320e+01  6.02195e+00
       C  8.05689e-02  1.03306e+01  4.87100e+00
       H  4.66081e-01  1.07700e+01  3.91704e+00
       H  6.21176e-02  9.28569e+00  4.69240e+00
       C -1.40214e+00  1.07381e+01  5.02371e+00
       H -2.00117e+00  1.01863e+01  5.82192e+00
       H -1.50512e+00  1.17649e+01  5.39837e+00
       C -2.12057e+00  1.05964e+01  3.65353e+00
       H -1.63613e+00  1.12695e+01  2.93027e+00
       H -1.94810e+00  9.56661e+00  3.25588e+00
       C -3.64267e+00  1.09921e+01  3.75421e+00
       H -4.10981e+00  1.01939e+01  4.29117e+00
       H -3.83176e+00  1.18318e+01  4.43884e+00
       C -4.32240e+00  1.13358e+01  2.42424e+00
       H -5.34515e+00  1.16537e+01  2.45711e+00
       H -4.25180e+00  1.04499e+01  1.86348e+00
       H -3.78855e+00  1.21773e+01  1.95974e+00
       H -5.04669e+00  4.01205e+00 -3.86118e+00
       C -5.55572e+00  3.05380e+00 -3.80182e+00
       H -5.20844e+00  2.48588e+00 -2.89825e+00
       H -6.57197e+00  3.29634e+00 -3.67077e+00
       C -5.54958e+00  2.23704e+00 -5.14306e+00
       H -5.82323e+00  3.01415e+00 -5.87533e+00
       H -4.58689e+00  2.00015e+00 -5.34445e+00
       C -6.48669e+00  9.81160e-01 -5.12708e+00
       H -6.14269e+00  1.99045e-01 -4.41231e+00
       H -7.46930e+00  1.24395e+00 -4.68884e+00
       C -6.61423e+00  4.05589e-01 -6.54553e+00
       H -7.09479e+00  1.05260e+00 -7.24219e+00
       H -5.62393e+00  1.17021e-01 -6.92240e+00
       C -7.41029e+00 -9.70052e-01 -6.52239e+00
       H -7.07929e+00 -1.57348e+00 -5.63342e+00
       H -8.50253e+00 -8.82437e-01 -6.49604e+00
       C -7.14480e+00 -1.81374e+00 -7.74686e+00
       H -7.29707e+00 -1.30723e+00 -8.72258e+00
       H -6.09702e+00 -2.20038e+00 -7.77837e+00
       C -7.93295e+00 -3.14196e+00 -7.57091e+00
       H -7.91167e+00 -3.56671e+00 -6.52293e+00
       H -9.01158e+00 -2.86445e+00 -7.66045e+00
       C -7.51635e+00 -4.13768e+00 -8.73546e+00
       H -7.74682e+00 -3.63019e+00 -9.70670e+00
       H -6.44001e+00 -4.20060e+00 -8.82889e+00
       C -8.13365e+00 -5.52525e+00 -8.71720e+00
       H -7.86467e+00 -5.96353e+00 -7.77181e+00
       H -9.22523e+00 -5.34167e+00 -8.69924e+00
       C -7.76437e+00 -6.37315e+00 -9.98483e+00
       H -8.25349e+00 -5.93995e+00 -1.08296e+01
       H -6.69166e+00 -6.37500e+00 -1.01363e+01
       C -8.39039e+00 -7.78397e+00 -9.90168e+00
       H -9.47581e+00 -7.71028e+00 -9.85895e+00
       H -8.08795e+00 -8.30368e+00 -1.08102e+01
       C -7.90784e+00 -8.65061e+00 -8.72004e+00
       H -6.79866e+00 -8.75071e+00 -8.66158e+00
       H -8.39583e+00 -9.60571e+00 -8.72023e+00
       H -8.25956e+00 -8.21687e+00 -7.79838e+00
       H  9.05419e+00 -7.32983e+00 -4.23606e+00
       C  9.84372e+00 -7.60402e+00 -4.95845e+00
       H  1.07062e+01 -7.01806e+00 -4.70235e+00
       H  1.02810e+01 -8.62790e+00 -4.90957e+00
       C  9.29890e+00 -7.29870e+00 -6.40018e+00
       H  9.10944e+00 -6.19880e+00 -6.41570e+00
       H  1.01434e+01 -7.39114e+00 -7.01731e+00
       C  8.21165e+00 -8.32295e+00 -6.69660e+00
       H  8.69335e+00 -9.27534e+00 -6.86729e+00
       H  7.50663e+00 -8.49868e+00 -5.85690e+00
       C  7.34333e+00 -7.98532e+00 -7.91436e+00
       H  6.88074e+00 -7.05130e+00 -7.71866e+00
       H  7.95967e+00 -8.02513e+00 -8.84690e+00
       C  6.29238e+00 -9.02084e+00 -8.21835e+00
       H  6.82862e+00 -9.81018e+00 -8.69862e+00
       H  5.83019e+00 -9.52559e+00 -7.38039e+00
       C  5.13732e+00 -8.57713e+00 -9.04968e+00
       H  4.79177e+00 -7.60761e+00 -8.82187e+00
       H  5.66476e+00 -8.60389e+00 -1.00051e+01
       C  3.91908e+00 -9.51948e+00 -9.04158e+00
       H  4.35650e+00 -1.04475e+01 -9.44149e+00
       H  3.49742e+00 -9.66268e+00 -8.07839e+00
       C  2.88279e+00 -8.94705e+00 -1.00063e+01
       H  2.37276e+00 -8.03910e+00 -9.57781e+00
       H  3.40916e+00 -8.70619e+00 -1.09222e+01
       C  1.72116e+00 -9.85104e+00 -1.04318e+01
       H  2.06547e+00 -1.07508e+01 -1.09659e+01
       H  1.18408e+00 -1.02846e+01 -9.56744e+00
       C  6.33607e-01 -9.11536e+00 -1.12445e+01
       H  3.03887e-01 -8.28915e+00 -1.06325e+01
       H  1.15066e+00 -8.81646e+00 -1.21801e+01
       C -5.92568e-01 -9.95673e+00 -1.14406e+01
       H -2.45396e-01 -1.08848e+01 -1.19123e+01
       H -1.11549e+00 -1.03155e+01 -1.05545e+01
       C -1.39910e+00 -9.18014e+00 -1.25629e+01
       H -1.75417e+00 -8.24210e+00 -1.21854e+01
       H -2.23184e+00 -9.73290e+00 -1.29167e+01
       H -7.91991e-01 -8.77959e+00 -1.34450e+01
       H -5.34647e+00 -1.74569e+00  9.20584e+00
       C -5.42299e+00 -1.92444e+00  8.09791e+00