                  Welcome to Q-Chem
     A Quantum Leap Into The Future Of Chemistry


 Q-Chem 5.4 (devel), Q-Chem, Inc., Pleasanton, CA (2021)

 E. Epifanovsky,  A. T. B. Gilbert,  Xintian Feng,  Joonho Lee,  Yuezhi Mao,  
 N. Mardirossian,  P. Pokhilko,  A. White,  M. Wormit,  M. P. Coons,  
 A. L. Dempwolff,  Zhengting Gan,  D. Hait,  P. R. Horn,  L. D. Jacobson,  
 I. Kaliman,  J. Kussmann,  A. W. Lange,  Ka Un Lao,  D. S. Levine,  Jie Liu,  
 S. C. McKenzie,  A. F. Morrison,  K. Nanda,  F. Plasser,  D. R. Rehn,  
 M. L. Vidal,  Zhi-Qiang You,  Ying Zhu,  B. Alam,  B. Albrecht,  
 A. Aldossary,  E. Alguire,  J. H. Andersen,  D. Barton,  K. Begam,  A. Behn,  
 Y. A. Bernard,  E. J. Berquist,  H. Burton,  A. Carreras,  K. Carter-Fenk,  
 R. Chakraborty,  A. D. Chien,  K. D. Closser,  V. Cofer-Shabica,  
 S. Dasgupta,  Jia Deng,  M. de Wergifosse,  M. Diedenhofen,  Hainam Do,  
 S. Ehlert,  Po-Tung Fang,  S. Fatehi,  Qingguo Feng,  T. Friedhoff,  
 J. Gayvert,  Qinghui Ge,  G. Gidofalvi,  M. Goldey,  J. Gomes,  
 C. Gonzalez-Espinoza,  S. Gulania,  A. Gunina,  M. W. D. Hanson-Heine,  
 P. H. P. Harbach,  A. W. Hauser,  M. F. Herbst,  M. Hernandez Vera,  
 M. Hodecker,  Z. C. Holden,  S. Houck,  Xunkun Huang,  Kerwin Hui,  
 B. C. Huynh,  M. Ivanov,  Hyunjun Ji,  Hanjie Jiang,  B. Kaduk,  S. Kaehler,  
 K. Khistyaev,  Jaehoon Kim,  P. Klunzinger,  Z. Koczor-Benda,  
 Joong Hoon Koh,  D. Kosenkov,  L. Koulias,  T. Kowalczyk,  C. M. Krauter,  
 K. Kue,  A. Kunitsa,  T. Kus,  A. Landau,  K. V. Lawler,  D. Lefrancois,  
 S. Lehtola,  Rain Li,  Yi-Pei Li,  Jiashu Liang,  M. Liebenthal,  
 Hung-Hsuan Lin,  You-Sheng Lin,  Fenglai Liu,  Kuan-Yu Liu,  
 M. Loipersberger,  A. Luenser,  A. Manjanath,  P. Manohar,  E. Mansoor,  
 S. F. Manzer,  Shan-Ping Mao,  A. V. Marenich,  T. Markovich,  S. Mason,  
 S. A. Maurer,  P. F. McLaughlin,  M. F. S. J. Menger,  J.-M. Mewes,  
 S. A. Mewes,  P. Morgante,  J. W. Mullinax,  K. J. Oosterbaan,  G. Paran,  
 Alexander C. Paul,  Suranjan K. Paul,  F. Pavosevic,  Zheng Pei,  S. Prager,  
 E. I. Proynov,  E. Ramos,  B. Rana,  A. E. Rask,  A. Rettig,  R. M. Richard,  
 F. Rob,  E. Rossomme,  T. Scheele,  M. Scheurer,  M. Schneider,  
 N. Sergueev,  S. M. Sharada,  W. Skomorowski,  D. W. Small,  C. J. Stein,  
 Yu-Chuan Su,  E. J. Sundstrom,  Zhen Tao,  J. Thirman,  T. Tsuchimochi,  
 N. M. Tubman,  S. P. Veccham,  O. Vydrov,  J. Wenzel,  J. Witte,  A. Yamada,  
 Kun Yao,  S. Yeganeh,  S. R. Yost,  A. Zech,  Igor Ying Zhang,  Xing Zhang,  
 Yu Zhang,  D. Zuev,  A. Aspuru-Guzik,  A. T. Bell,  N. A. Besley,  
 K. B. Bravaya,  B. R. Brooks,  D. Casanova,  Jeng-Da Chai,  S. Coriani,  
 C. J. Cramer,  A. E. DePrince, III,  R. A. DiStasio Jr.,  A. Dreuw,  
 B. D. Dunietz,  T. R. Furlani,  W. A. Goddard III,  S. Grimme,  
 S. Hammes-Schiffer,  T. Head-Gordon,  W. J. Hehre,  Chao-Ping Hsu,  
 T.-C. Jagau,  Yousung Jung,  A. Klamt,  Jing Kong,  D. S. Lambrecht,  
 WanZhen Liang,  N. J. Mayhall,  C. W. McCurdy,  J. B. Neaton,  
 C. Ochsenfeld,  J. A. Parkhill,  R. Peverati,  V. A. Rassolov,  Yihan Shao,  
 L. V. Slipchenko,  T. Stauch,  R. P. Steele,  J. E. Subotnik,  
 A. J. W. Thom,  A. Tkatchenko,  D. G. Truhlar,  T. Van Voorhis,  
 T. A. Wesolowski,  K. B. Whaley,  H. L. Woodcock III,  P. M. Zimmerman,  
 S. Faraji,  P. M. W. Gill,  M. Head-Gordon,  J. M. Herbert,  A. I. Krylov

 Additional authors for Version 5.4.1: 
 S. Kotaru,  Shaozhi Li,  Xiangyuan Li,  F. Matz,  A. Molle,  Haisheng Ren,  
 Yingli Su,  Hung-Yi Tsai,  C. Utku,  Fang Wang

 Contributors to earlier versions of Q-Chem not listed above: 
 R. D. Adamson,  B. Austin,  R. Baer,  J. Baker,  G. J. O. Beran,  
 K. Brandhorst,  S. T. Brown,  E. F. C. Byrd,  A. K. Chakraborty,  
 G. K. L. Chan,  Chun-Min Chang,  Yunqing Chen,  C.-L. Cheng,  
 Siu Hung Chien,  D. M. Chipman,  D. L. Crittenden,  H. Dachsel,  
 R. J. Doerksen,  A. D. Dutoi,  R. G. Edgar,  J. Fosso-Tande,  
 L. Fusti-Molnar,  D. Ghosh,  A. Ghysels,  A. Golubeva-Zadorozhnaya,  
 J. Gonthier,  M. S. Gordon,  S. R. Gwaltney,  G. Hawkins,  J. E. Herr,  
 A. Heyden,  S. Hirata,  E. G. Hohenstein,  G. Kedziora,  F. J. Keil,  
 C. Kelley,  Jihan Kim,  R. A. King,  R. Z. Khaliullin,  P. P. Korambath,  
 W. Kurlancheek,  A. Laurent,  A. M. Lee,  M. S. Lee,  S. V. Levchenko,  
 Ching Yeh Lin,  D. Liotard,  E. Livshits,  R. C. Lochan,  I. Lotan,  
 L. A. Martinez-Martinez,  P. E. Maslen,  N. Nair,  D. P. O'Neill,  
 D. Neuhauser,  E. Neuscamman,  C. M. Oana,  R. Olivares-Amaya,  R. Olson,  
 T. M. Perrine,  B. Peters,  P. A. Pieniazek,  A. Prociuk,  Y. M. Rhee,  
 J. Ritchie,  M. A. Rohrdanz,  E. Rosta,  N. J. Russ,  H. F. Schaefer III,  
 M. W. Schmidt,  N. E. Schultz,  S. Sharma,  N. Shenvi,  C. D. Sherrill,  
 A. C. Simmonett,  A. Sodt,  T. Stein,  D. Stuck,  K. S. Thanthiriwatte,  
 V. Vanovschi,  L. Vogt,  Tao Wang,  A. Warshel,  M. A. Watson,  
 C. F. Williams,  Q. Wu,  X. Xu,  Jun Yang,  W. Zhang,  Yan Zhao

 Please cite Q-Chem as follows:
 Y. Shao et al., Mol. Phys. 113, 184-215 (2015)
 DOI: 10.1080/00268976.2014.952696

 Q-Chem 5.4.1 for Intel X86 EM64T Linux

 Parts of Q-Chem use Armadillo 9.900.5 (Nocturnal Misbehaviour).
 http://arma.sourceforge.net/

 Q-Chem begins on Wed Jun 22 16:37:42 2022  

 Host: p09r16n03.grace.hpc.yale.internal
0

     Scratch files written to /home/tl686/scratch60/qchem_dev/scratch/qchem215431//
 Processing $rem in /home/tl686/qchem_dev/qchem/config/preferences:
 Processing $rem in /home/tl686/.qchemrc:
Applying user defined connections for MM calculations

 Checking the input file for inconsistencies... 	...done.

--------------------------------------------------------------
User input:
--------------------------------------------------------------
$molecule
0   1
 Fe 361.55062733 12.60530424 -40.20413287    -1  0   0   0   0
C 358.88903036 13.25507547 -42.13623329    -2  0   0   0   0 
C 364.94524129 12.33887692 -41.03802341    -2  0   0   0   0
C 361.90429068 16.12589092 -39.40729889    -2  0   0   0   0
C 361.20843609 11.92938105 -36.79420788    -2  0   0   0   0
C 360.68303517 9.53200044 -40.95468921    -2  0   0   0   0
O 357.09089448 13.65420900 -43.30611566    -3  0   0   0   0
O 366.90315230 12.02271375 -41.48598364    -3  0   0   0   0 
O 362.08078862 18.15092044 -38.94994377    -3  0   0   0   0
O 361.07048791 11.34728966 -34.78046385    -3  0   0   0   0 
O 359.50119537 7.57701741 -41.41916917    -3  0   0   0   0
H 349.46851415 34.59948271 -45.27980428      6     13    0    0    0 
C 347.59392821 35.37229710 -44.88887850     1     12    14    15    16
H 347.69655796 37.47798705 -44.87040855     6     13    0    0    0
H 346.21054963 34.80310353 -46.35316989     6     13    0    0    0
C 346.54424723 34.37754173 -42.35024358     2     13    17    18    19
H 347.50469402 35.48768032 -40.94942279     6     16    0    0    0
H 344.58515659 34.82698161 -41.95341028     6     16    0    0    0
C 347.12186802 31.55973267 -42.00620589     2     16    20   21   22
H 346.20414012 30.66585813 -43.46378206     6     19    0    0    0
H 349.10220216 31.31679272 -42.17012533     6     19    0    0    0
C 346.36226496 30.43264899 -39.42466058     2     19   23   24   25
H 347.16291172 31.70483335 -37.93228981     6    22    0    0    0
H 344.39177758 30.91221044 -39.07943891     6    22    0    0    0
C 347.11425163 27.73129501 -38.89452141     2    22   26   27   28
H 346.34405740 26.35236777 -40.21104515     6    25    0    0    0
H 349.13470859 27.38103760 -39.12565944     6    25    0    0    0
C 346.08923156 26.92202119 -36.39418640     2    25   29   30   31
H 346.94335342 28.18435975 -35.16803742     6    28    0    0    0
H 344.14947487 27.16016770 -36.69688929     6    28    0    0    0
C 346.70181103 24.17934084 -35.75366092     2    28   32   33   34
H 346.59472806 23.04255094 -37.35297801     6    31    0    0    0
H 348.64047697 24.12226379 -35.22096412     6    31    0    0    0
C 345.09640223 23.02500015 -33.59935406     2    31   35   36   37
H 345.41084103 24.43238693 -32.10881447     6    34    0    0    0
H 343.09991692 23.30962824 -33.98766023     6    34    0    0    0
C 345.58172234 20.31981516 -32.71598803     2    34   38   39   40
H 344.88028324 19.05530248 -34.27759258     6    37    0    0    0
H 347.60431490 19.93398483 -32.43184630     6    37    0    0    0
C 344.27997315 19.33809719 -30.38282329     2    37   41   42   43
H 344.74880907 20.38937354 -28.72424999     6    40    0    0    0
H 342.16606667 19.64880067 -30.55636703     6    40    0    0    0
C 344.81904577 16.49782956 -29.92112773     2    40   44   45   46
H 343.71353230 15.30568702 -31.18400880     6    43    0    0    0
H 346.79658125 16.21330024 -30.20181616     6    43    0    0    0
C 344.48488231 15.86788666 -27.03068008     1    43   47   48   49
H 345.28643624 17.27026573 -25.85927682     6    46    0    0    0
H 345.29692364 14.12781574 -26.40260213     6    46    0    0    0
H 342.38400328 15.81683740 -26.68259543     6    46    0    0    0
H 349.33073135 8.80716820 -39.77041418     6     51    0    0    0 
C 351.25602807 8.74266730 -40.37201301     1     50    52    53    54
H 352.04017105 6.88463733 -40.26116085     6     51    0    0    0
H 351.30147044 9.18673140 -42.40245531     6     51    0    0    0
C 352.89431911 10.86623102 -39.02069959     2     51    55    56    57
H 354.88615079 10.54399994 -39.44276875     6     54    0    0    0
H 352.59570099 12.72254452 -39.58605879     6     54    0    0    0
C 352.61387398 10.35432028 -36.15773509     2     54    58   59   60
H 353.34930009 8.56419792 -35.52862418     6     57    0    0    0
H 353.65258296 11.83366844 -35.18883284     6     57    0    0    0
C 349.98420137 10.79188053 -34.92260261     2     57   61   62   63
H 349.18375904 12.55175006 -35.67485378     6    60    0    0    0
H 348.55769674 9.41739615 -35.36554247     6    60    0    0    0
C 350.16087062 11.13493688 -32.02269325     2    60   64   65   66
H 351.82290416 10.21176443 -31.21881880     6    63    0    0    0
H 350.68963430 12.92537787 -31.53978759     6    63    0    0    0
C 347.67362149 10.18969330 -30.76038352     2    63   67   68   69
H 347.66197592 10.54533503 -28.73383656     6    66    0    0    0
H 346.01411121 11.10916759 -31.51823661     6    66    0    0    0
C 347.54501282 7.33573578 -30.76406897     2    66   70   71   72
H 348.27452174 6.64231708 -32.49899010     6    69    0    0    0
H 348.75139204 6.66125973 -29.22785400     6    69    0    0    0
C 344.91743246 6.36286857 -30.48248277     2    69   73   74   75
H 344.38778985 6.39122780 -28.55198069     6    72    0    0    0
H 343.56429942 7.23487411 -31.68942964     6    72    0    0    0
C 344.90294721 3.59078596 -31.28936603     2    72   76   77   78
H 345.21646660 3.64762983 -33.37726018     6    75    0    0    0
H 346.42312070 2.47525337 -30.53055687     6    75    0    0    0
C 342.33905709 2.27419722 -30.70787325     2    75   79   80   81
H 341.65218861 2.67389227 -28.68831729     6    78    0    0    0
H 340.87127193 3.04426602 -31.91350539     6    78    0    0    0
C 342.42314674 -0.55541113 -31.14434173     2    78   82   83   84
H 343.43349382 -1.04143499 -32.84579309     6    81    0    0    0
H 343.60873709 -1.61179117 -29.94726862     6    81    0    0    0
C 339.81499648 -1.87844851 -31.45235412     1    81   85   86   87
H 340.09164860 -3.80192570 -31.10688547     6    84    0    0    0
H 339.14079689 -1.69853645 -33.44028875     6    84    0    0    0
H 338.38743912 -1.13433681 -30.29214626     6    84    0    0    0
H 345.99817882 39.62120763 -21.18194216     6     89    0    0    0 
C 344.56590342 38.27515280 -20.48990656     1     88    90    91    92
H 345.69797087 36.56597669 -20.38510152     6     89    0    0    0
H 343.75038383 38.90068434 -18.68774766     6     89    0    0    0
C 342.41565726 37.92417384 -22.43112824     2     89    93    94    95
H 341.57923150 39.75248294 -22.97687161     6     92    0    0    0
H 343.32039137 37.08741194 -24.06987652     6     92    0    0    0
C 340.23735937 36.22242866 -21.66956860     2     92    96   97   98
H 340.74077135 34.47423385 -20.76319049     6     95    0    0    0
H 339.07093249 37.31332152 -20.39744472     6     95    0    0    0
C 338.71505747 35.39857136 -23.90086494     2     95   99   100   101
H 338.06698357 37.08787971 -24.79939026     6    98    0    0    0
H 340.07674198 34.71847822 -25.18143253     6    98    0    0    0
C 336.51858774 33.56193369 -23.14862100     2    98   102   103   104
H 337.53677624 31.86948177 -22.56203864     6    101    0    0    0
H 335.59816803 34.25887586 -21.45919676     6    101    0    0    0
C 334.55836555 33.01418046 -25.24206563     2    101   105   106   107
H 333.26539231 34.46592759 -24.99634585     6    104    0    0    0
H 335.33046556 33.34201828 -27.09418776     6    104    0    0    0
C 333.53118056 30.35809326 -25.22052290     2    104   108   109   110
H 335.10485150 29.10727832 -25.75750573     6    107    0    0    0
H 332.73576319 29.99285399 -23.31809022     6    107    0    0    0
C 331.30049235 30.19360076 -27.15591009     2    107   111   112   113
H 330.08655704 31.87391453 -27.10171920     6    110    0    0    0
H 331.88028492 30.44325764 -29.15942610     6    110    0    0    0
C 330.04407904 27.66930452 -26.83635083     2    110   114   115   116
H 331.34678111 26.26555258 -26.75165123     6    113    0    0    0
H 329.06598245 27.66332564 -25.09031642     6    113    0    0    0
C 328.14224229 27.13679962 -28.97177789     2    113   117   118   119
H 327.08199562 28.84512895 -29.48733044     6    116    0    0    0
H 329.07562916 26.69832545 -30.75093977     6    116    0    0    0
C 326.21255526 25.00471758 -28.49563133     2    116   120   121   122
H 324.48737230 25.45917804 -29.55064200     6    119    0    0    0
H 326.84234071 23.24280940 -29.33440118     6    119    0    0    0
C 325.14412401 24.76367627 -25.76856775     1    119   123   124   125
H 323.75938042 23.23594908 -25.59153800     6    122    0    0    0
H 324.27845109 26.47419483 -25.10060237     6    122    0    0    0
H 326.53386299 24.36424371 -24.43716959     6    122    0    0    0
H 360.24170769 30.04437997 -15.84514128     6     127    0    0    0 
C 360.53882460 28.96293548 -17.53753357     1     126    128    129    130
H 360.45434001 27.00810708 -16.95781307     6     127    0    0    0
H 358.91665988 29.43091705 -18.70311353     6     127    0    0    0
C 363.11854546 29.97685133 -18.50098499     2     127    131    132    133
H 363.03598189 32.07160519 -18.97676191     6     130    0    0    0
H 364.65406495 29.72950810 -17.15780610     6     130    0    0    0
C 363.57772276 28.78826657 -21.09955456     2     130    134   135   136
H 363.93924467 26.72302961 -20.97813149     6     133    0    0    0
H 362.10653600 29.22100862 -22.31789616     6     133    0    0    0
C 366.05161885 30.03066331 -22.07192455     2     133   137   138   139
H 365.73004237 31.95537540 -22.35404617     6    136    0    0    0
H 367.67777986 29.73408813 -20.65218379     6    136    0    0    0
C 366.97379700 28.83878116 -24.48603200     2    136   140   141   142
H 366.86229486 26.83376766 -24.13172589     6    139    0    0    0
H 365.78328816 29.13016513 -26.14792375     6    139    0    0    0
C 369.78567369 29.54811243 -25.04986208     2    139   143   144   145
H 369.73477113 31.45310249 -25.92399713     6    142    0    0    0
H 370.70820606 29.53063403 -23.21041051     6    142    0    0    0
C 370.93931880 27.69443668 -26.87301847     2    142   146   147   148
H 371.25292315 25.94512717 -25.93677248     6    145    0    0    0
H 369.82926333 27.21280132 -28.55850700     6    145    0    0    0
C 373.65512646 28.44878879 -27.80988278     2    145   149   150   151
H 373.70013641 30.41473981 -28.13150278     6    148    0    0    0
H 374.95447102 28.32702544 -26.15879450     6    148    0    0    0
C 374.63654752 27.02867721 -30.08132617     2    148   152   153   154
H 374.69689285 24.97353776 -29.65453735     6    151    0    0    0
H 373.60349899 27.38280947 -31.81651729     6    151    0    0    0
C 377.37316530 27.73720216 -30.74032969     2    151   155   156   157
H 377.36468290 29.70000671 -31.30071991     6    154    0    0    0
H 378.62221261 27.42273264 -29.09623917     6    154    0    0    0
C 378.18301511 26.04504002 -32.92999341     2    154   158   159   160
H 377.50581116 24.15926189 -32.69742991     6    157    0    0    0
H 377.13474881 26.65270962 -34.56339180     6    157    0    0    0
C 381.02865120 25.77818761 -33.26916509     1    157   161   162   163
H 381.29178002 24.26106094 -34.69756150     6    160    0    0    0
H 381.76954213 24.86477740 -31.63189674     6    160    0    0    0
H 382.11936611 27.52739635 -33.77982009     6    160    0    0    0
H 350.36496790 17.89439967 -5.67633505     6     165    0    0    0 
C 351.01591006 19.15115047 -7.22844403     1     164    166    167    168
H 351.35532622 18.02786644 -8.84419137     6     165    0    0    0
H 349.62514867 20.65920023 -7.54728634     6     165    0    0    0
C 353.55209991 20.09533050 -6.37002587     2     165    169    170    171
H 353.23788662 20.94472655 -4.61129922     6     168    0    0    0
H 354.71680631 18.32845074 -6.15514830     6     168    0    0    0
C 354.71169132 22.13852239 -8.10492880     2     168    172   173   174
H 354.42467565 21.51967218 -10.05822146     6     171    0    0    0
H 353.63925711 23.88394129 -7.78801515     6     171    0    0    0
C 357.61346975 22.98932751 -7.56305807     2     171   175   176   177
H 357.49196521 24.02981301 -5.71734177     6    174    0    0    0
H 358.84890917 21.44134263 -6.96132070     6    174    0    0    0
C 358.92527275 24.75828963 -9.56621225     2    174   178   179   180
H 358.17681290 24.13692525 -11.42594399     6    177    0    0    0
H 358.50865003 26.81237908 -9.26259716     6    177    0    0    0
C 361.84228289 24.41790475 -9.34133946     2    177   181   182   183
H 362.56304492 24.38251067 -7.37228780     6    180    0    0    0
H 362.07052401 22.52759965 -10.09381468     6    180    0    0    0
C 363.30363552 26.54173610 -10.78672900     2    180   184   185   186
H 362.97685764 26.50919459 -12.77173530     6    183    0    0    0
H 362.57423393 28.41060103 -10.25271595     6    183    0    0    0
C 366.12709678 26.64372342 -10.04362899     2    183   187   188   189
H 365.85913012 27.07772934 -8.07789428     6    186    0    0    0
H 366.68812311 24.60014776 -9.94355487     6    186    0    0    0
C 367.65630391 28.62346103 -11.41735681     2    186   190   191   192
H 367.42688485 28.19821956 -13.43381707     6    189    0    0    0
H 366.42321025 30.36793660 -11.16153978     6    189    0    0    0
C 370.46810912 28.99455590 -10.79398713     2    189   193   194   195
H 370.88051636 30.15110306 -9.15351615     6    192    0    0    0
H 371.09978442 27.19635969 -10.02625470     6    192    0    0    0
C 371.90752935 29.92267840 -13.13194937     2    192   196   197   198
H 371.44457266 28.54609371 -14.61865910     6    195    0    0    0
H 371.06135966 31.74315691 -13.91092646     6    195    0    0    0
C 374.82989360 30.07770411 -12.81631932     1    195   199   200   201
H 375.54904194 30.73853691 -14.59827271     6    198    0    0    0
H 375.72892302 28.24136213 -12.29167677     6    198    0    0    0
H 375.49635345 31.44542883 -11.51319592     6    198    0    0    0
H 355.31667590 10.64373396 -1.81365374     6     203    0    0    0 
C 353.88448111 11.61338603 -3.03878223     1     202    204    205    206
H 352.10428105 10.73478398 -2.41623193     6     203    0    0    0
H 353.53553618 13.55021660 -2.49266926     6     203    0    0    0
C 354.09035250 11.36123094 -5.84542007     2     203    207    208    209
H 352.46964802 11.34225348 -6.90693981     6     206    0    0    0
H 355.17309588 13.04036424 -6.43128513     6     206    0    0    0
C 355.80328443 9.02984069 -6.53048724     2     206    210   211   212
H 356.29771741 9.21773520 -8.46404497     6     209    0    0    0
H 357.55467210 8.95636542 -5.36655853     6     209    0    0    0
C 354.27276979 6.45985119 -6.08664401     2     209   213   214   215
H 353.78498307 6.41103240 -4.08041026     6    212    0    0    0
H 352.60348096 6.65052569 -7.14830528     6    212    0    0    0
C 355.28175699 3.97911059 -7.01979197     2    212   216   217   218
H 355.08049707 3.84338911 -9.15698935     6    215    0    0    0
H 357.32791258 3.77927935 -7.02252371     6    215    0    0    0
C 353.88554619 1.76405248 -5.89772910     2    215   219   220   221
H 354.24474640 1.83711479 -3.82818614     6    218    0    0    0
H 351.95942932 2.23029418 -5.92436623     6    218    0    0    0
C 354.38205279 -0.86826278 -7.15271168     2    218   222   223   224
H 354.70574507 -0.61538448 -9.27061731     6    221    0    0    0
H 356.14276348 -1.44337596 -6.31326231     6    221    0    0    0
C 352.11714355 -2.62732647 -6.71649412     2    221   225   226   227
H 351.62961329 -2.30550298 -4.85055923     6    224    0    0    0
H 350.65819652 -1.95861104 -7.91568303     6    224    0    0    0
C 352.89560683 -5.42108371 -6.98779283     2    224   228   229   230
H 353.19823981 -5.80681690 -9.04974695     6    227    0    0    0
H 354.77122926 -5.63516334 -6.13935868     6    227    0    0    0
C 351.27073287 -7.42846918 -5.86833227     2    227   231   232   233
H 350.88514902 -7.18420847 -3.68364165     6    230    0    0    0
H 349.48316655 -7.33057095 -6.96112058     6    230    0    0    0
C 352.24384335 -10.10479144 -6.04651210     2    230   234   235   236
H 352.67230179 -10.56427987 -8.06436618     6    233    0    0    0
H 354.12015550 -10.20734545 -5.28053977     6    233    0    0    0
C 350.30823973 -12.02061724 -5.12737397     1    233   237   238   239
H 350.77085334 -14.01506736 -5.48155499     6    236    0    0    0
H 348.48037875 -11.91954935 -5.98765487     6    236    0    0    0
H 349.99357598 -11.56311810 -3.16879448     6    236    0    0    0
H 340.20325030 9.50615883 -33.86224164     6     241    0    0    0 
C 338.27421070 10.08364835 -33.28514315     1     240    242    243    244
H 337.50657142 11.28720004 -34.79892361     6     241    0    0    0
H 337.27576534 8.26405862 -33.08506378     6     241    0    0    0
C 338.59434373 11.62015784 -30.79745979     2     241    245    246    247
H 339.91727862 10.67274925 -29.54876919     6     244    0    0    0
H 339.47130438 13.40197904 -31.45018004     6     244    0    0    0
C 335.89608297 12.15091703 -29.56607494     2     244    248   249   250
H 336.19615467 13.26965750 -27.88619805     6     247    0    0    0
H 334.68856392 13.13321809 -30.98859917     6     247    0    0    0
C 334.83532310 9.56488318 -28.62204047     2     247   251   252   253
H 333.04426600 10.15971983 -27.60601778     6    250    0    0    0
H 334.39728672 8.37562817 -30.19358623     6    250    0    0    0
C 336.46374134 7.90961460 -26.77114223     2    250   254   255   256
H 338.29170721 7.24794016 -27.52351938     6    253    0    0    0
H 337.07555419 9.05317773 -25.34294002     6    253    0    0    0
C 334.98001883 5.61194849 -25.48947955     2    253   257   258   259
H 336.02409494 4.75738087 -23.91646260     6    256    0    0    0
H 333.14953141 6.23827727 -24.75337442     6    256    0    0    0
C 334.40334084 3.56531880 -27.48964269     2    256   260   261   262
H 333.52144859 4.60677510 -28.98157647     6    259    0    0    0
H 336.20039712 3.05147685 -28.17804432     6    259    0    0    0
C 332.96922980 1.43523334 -26.46228743     2    259   263   264   265
H 334.24382885 0.00104706 -25.53483301     6    262    0    0    0
H 331.78904720 2.32709479 -25.11507312     6    262    0    0    0
C 331.33004648 0.09296353 -28.38037145     2    262   266   267   268
H 330.44323906 -1.44465609 -27.40263477     6    265    0    0    0
H 329.79860026 1.25919452 -29.06872150     6    265    0    0    0
C 332.78968434 -0.89012328 -30.70772759     2    265   269   270   271
H 333.44301005 0.59818743 -32.01773688     6    268    0    0    0
H 334.42559937 -2.05378454 -30.11311286     6    268    0    0    0
C 331.08347551 -2.40341512 -32.56959108     2    268   272   273   274
H 330.29204028 -4.17217868 -31.94398048     6    271    0    0    0
H 329.65807591 -1.04664067 -33.07516369     6    271    0    0    0
C 332.54729522 -3.16181101 -35.03648912     1    271   275   276   277
H 333.03351474 -1.51143338 -36.17035037     6    274    0    0    0
H 331.40052681 -4.32530032 -36.05546841     6    274    0    0    0
H 334.28076992 -4.18328686 -34.82024459     6    274    0    0    0
H 345.56881707 26.93867326 -11.65542594     6     279    0    0    0 
C 344.68077831 25.16696800 -11.30054683     1     278    280    281    282
H 344.27023323 25.01465519 -9.18261007     6     279    0    0    0
H 342.94957770 24.99835376 -12.39612128     6     279    0    0    0
C 346.41566484 23.21203705 -12.27630737     2     279    283    284    285
H 346.17123901 23.15292404 -14.31642921     6     282    0    0    0
H 348.34773201 23.79570989 -12.08111928     6     282    0    0    0
C 345.80335493 20.49490102 -11.39340407     2     282    286   287   288
H 346.06139167 20.21805856 -9.26604476     6     285    0    0    0
H 343.76258361 19.98638585 -11.73532384     6     285    0    0    0
C 347.22121721 18.20204486 -12.54237348     2     285   289   290   291
H 347.03364009 18.19427701 -14.48768267     6    288    0    0    0
H 349.23512089 18.37972784 -12.56141337     6    288    0    0    0
C 346.43901591 15.71187144 -11.36235561     2    288   292   293   294
H 346.67288671 15.84741176 -9.32375277     6    291    0    0    0
H 344.44372945 15.66371674 -11.38026809     6    291    0    0    0
C 348.08904792 13.57481119 -12.34215747     2    291   295   296   297
H 348.38989313 13.72105737 -14.34712594     6    294    0    0    0
H 349.99696880 13.83552332 -11.74265638     6    294    0    0    0
C 347.31307451 10.83506854 -11.65882883     2    294   298   299   300
H 347.53868121 10.50983257 -9.59610062     6    297    0    0    0
H 345.33004390 10.56539415 -12.08591510     6    297    0    0    0
C 349.07002860 8.86421595 -13.07692261     2    297   301   302   303
H 349.13181810 9.25367595 -15.06723270     6    300    0    0    0
H 350.98139925 9.41252632 -12.31338004     6    300    0    0    0
C 348.40784565 6.10185483 -12.64210004     2    300   304   305   306
H 348.00437625 5.87315487 -10.66691544     6    303    0    0    0
H 346.64406544 5.66141327 -13.59781923     6    303    0    0    0
C 350.33573268 4.07552259 -13.53385867     2    303   307   308   309
H 350.74241039 4.40997762 -15.48886564     6    306    0    0    0
H 352.29098797 4.11852803 -12.77905266     6    306    0    0    0
C 349.39156242 1.37975908 -13.25038640     2    306   310   311   312
H 348.89917984 1.36636887 -11.18175741     6    309    0    0    0
H 347.75346661 1.16063052 -14.41939398     6    309    0    0    0
C 351.33694186 -0.69160858 -13.92728236     1    309   313   314   315
H 353.00382959 -0.36996420 -12.74691720     6    312    0    0    0
H 351.81241963 -0.75460157 -15.96986470     6    312    0    0    0
H 350.76069031 -2.47306099 -13.18543254     6    312    0    0    0
H 353.74637241 30.39704745 -22.87590085     6     317    0    0    0 
C 353.55448525 30.22624008 -24.86022497     1     316    318    319    320
H 352.17780421 28.70595757 -25.20734281     6     317    0    0    0
H 352.62769612 32.01556238 -25.37864735     6     317    0    0    0
C 356.05902250 30.11991891 -26.13107919     2     317    321    322    323
H 355.63142506 30.44387966 -28.11633730     6     320    0    0    0
H 357.16494448 31.68466438 -25.44632707     6     320    0    0    0
C 357.50818463 27.41504601 -25.77088923     2     320    324   325   326
H 358.27524279 27.16514393 -23.85014114     6     323    0    0    0
H 356.26238796 25.93294626 -26.08051715     6     323    0    0    0
C 359.56480706 27.18824971 -27.70282671     2     323   327   328   329
H 358.79749882 27.92805323 -29.44636788     6    326    0    0    0
H 361.09759925 28.46556921 -27.37257449     6    326    0    0    0
C 360.88295398 24.63880135 -27.90225921     2    326   330   331   332
H 361.48659660 24.15932925 -26.01092359     6    329    0    0    0
H 359.58319933 23.31322490 -28.65576070     6    329    0    0    0
C 363.08784054 24.52071419 -29.73833580     2    329   333   334   335
H 364.53581294 25.69794267 -28.71598133     6    332    0    0    0
H 363.66370090 22.48967689 -29.91104872     6    332    0    0    0
C 362.35512485 25.54652530 -32.49954803     2    332   336   337   338
H 360.74566370 24.51667161 -33.21698984     6    335    0    0    0
H 361.95779741 27.52266389 -32.42141959     6    335    0    0    0
C 364.75770377 25.37689492 -34.18039493     2    335   339   340   341
H 364.36560508 26.42160417 -35.83495079     6    338    0    0    0
H 366.39402644 26.49025660 -33.37837000     6    338    0    0    0
C 365.25359469 22.65825393 -35.17901014     2    338   342   343   344
H 365.84249608 21.50789141 -33.59014866     6    341    0    0    0
H 363.46433090 21.88716292 -36.07254192     6    341    0    0    0
C 367.44617763 22.65420881 -37.01499253     2    341   345   346   347
H 367.50510985 20.90276444 -37.90105221     6    344    0    0    0
H 366.86529273 23.89787127 -38.43426396     6    344    0    0    0
C 370.02446859 23.35169587 -35.74436212     2    344   348   349   350
H 369.85279504 25.10465534 -34.64735044     6    347    0    0    0
H 370.60288874 21.73317403 -34.45688527     6    347    0    0    0
C 372.22862607 23.70533440 -37.70968994     1    347   351   352   353
H 374.06913308 23.94096618 -36.76300682     6    350    0    0    0
H 372.13198891 25.34947585 -38.97169141     6    350    0    0    0
H 372.51540312 21.96071448 -38.78335467     6    350    0    0    0
H 341.87528898 3.45774471 -21.54875509     6     355    0    0    0 
C 341.96132595 5.37072515 -22.43392760     1     354    356    357    358
H 343.59365201 5.55706050 -23.51967361     6     355    0    0    0
H 340.37459813 5.51026139 -23.75035832     6     355    0    0    0
C 341.97061493 7.60216338 -20.50177230     2     355    359    360    361
H 340.22795272 7.57685888 -19.30922930     6     358    0    0    0
H 343.56312975 7.15684605 -19.25923509     6     358    0    0    0
C 342.29864170 10.22359639 -21.80765146     2     358    362   363   364
H 344.12844202 10.16499452 -22.79546987     6     361    0    0    0
H 340.75376087 10.41864330 -23.19252656     6     361    0    0    0
C 342.25869678 12.47012465 -19.71969155     2     361   365   366   367
H 340.52372855 12.20083466 -18.47043047     6    364    0    0    0
H 343.87802847 11.96180385 -18.36883226     6    364    0    0    0
C 342.62865584 15.14275836 -20.81694633     2    364   368   369   370
H 344.54625655 15.28057085 -21.50161284     6    367    0    0    0
H 341.31295689 15.11269528 -22.38260492     6    367    0    0    0
C 341.78664404 17.25073621 -19.27946893     2    367   371   372   373
H 339.76709214 16.89278603 -19.02575795     6    370    0    0    0
H 342.58224030 17.26992817 -17.49752871     6    370    0    0    0
C 342.34627063 19.86973067 -20.53908947     2    370   374   375   376
H 341.94746371 19.56430953 -22.53362853     6    373    0    0    0
H 341.07995158 21.32707947 -20.37752316     6    373    0    0    0
C 345.07049433 20.64952055 -20.25612048     2    373   377   378   379
H 345.48859518 20.62262718 -18.28263482     6    376    0    0    0
H 346.37027675 19.27444745 -21.11323312     6    376    0    0    0
C 345.69556939 23.25140324 -21.25997864     2    376   380   381   382
H 345.29269650 23.17217397 -23.35994179     6    379    0    0    0
H 344.31897974 24.48472365 -20.35630752     6    379    0    0    0
C 348.38057112 24.08857153 -20.66933655     2    379   383   384   385
H 348.86500094 24.06536153 -18.54135226     6    382    0    0    0
H 349.60985473 22.66871079 -21.56958510     6    382    0    0    0
C 348.87718036 26.69367124 -21.65938409     2    382   386   387   388
H 350.88738617 26.89561509 -21.24072847     6    385    0    0    0
H 348.50440484 26.78136045 -23.64102912     6    385    0    0    0
C 347.30290111 28.80217345 -20.41729591     1    385   389   390   391
H 346.98104665 28.54501451 -18.38474889     6    388    0    0    0
H 345.32974173 29.12099870 -21.28335531     6    388    0    0    0
H 348.24659072 30.59748203 -20.76387026     6    388    0    0    0
H 376.55567619 15.65183649 -56.24494769     6     393    0    0    0 
C 375.12234517 14.82813344 -57.50874478     1     392    394    395    396
H 375.97525585 14.76374391 -59.35811375     6     393    0    0    0
H 375.17581421 12.92478051 -56.60630451     6     393    0    0    0
C 372.51429836 16.02124712 -57.40909432     2     393    397    398    399
H 372.25246738 16.86114881 -55.44433700     6     396    0    0    0
H 372.08784888 17.65618906 -58.74481450     6     396    0    0    0
C 370.52033573 14.07357595 -57.98073413     2     396    400   401   402
H 370.61860079 14.00809844 -60.04190978     6     399    0    0    0
H 370.95712766 12.24338407 -57.25722141     6     399    0    0    0
C 367.83905855 14.79545847 -57.09588070     2     399   403   404   405
H 368.00135622 15.26012625 -55.18154136     6    402    0    0    0
H 367.00914031 16.42017926 -58.20871959     6    402    0    0    0
C 366.00989057 12.55591694 -57.52069639     2    402   406   407   408
H 366.39114677 11.98543484 -59.58331514     6    405    0    0    0
H 366.52206123 10.97053909 -56.38853945     6    405    0    0    0
C 363.14040738 12.78795299 -57.08311630     2    405   409   410   411
H 362.69460426 12.45872416 -55.12024152     6    408    0    0    0
H 362.50243629 14.75252840 -57.41593208     6    408    0    0    0
C 361.78396576 10.74051771 -58.62877182     2    408   412   413   414
H 361.75540539 11.13135767 -60.61975042     6    411    0    0    0
H 362.63706113 8.91870950 -58.45623579     6    411    0    0    0
C 359.04528849 10.61253844 -57.76733690     2    411   415   416   417
H 358.76963488 10.39045913 -55.70631766     6    414    0    0    0
H 358.05374316 12.37838002 -58.10836803     6    414    0    0    0
C 357.56568338 8.46621170 -58.91425740     2    414   418   419   420
H 357.28509422 8.79130437 -60.95662102     6    417    0    0    0
H 358.81736522 6.82914498 -58.79431818     6    417    0    0    0
C 355.14001811 7.66598200 -57.59030034     2    417   421   422   423
H 355.55726919 6.73277157 -55.73457585     6    420    0    0    0
H 354.11715766 9.49154660 -57.44958479     6    420    0    0    0
C 353.60042283 5.79846158 -59.17073485     2    420   424   425   426
H 351.93504772 5.34235616 -58.20152676     6    423    0    0    0
H 353.05556768 6.74309745 -60.96836097     6    423    0    0    0
C 354.89370487 3.17856692 -59.69257733     1    423   427   428   429
H 353.26335467 1.99333513 -60.18674124     6    426    0    0    0
H 355.81542734 2.33152341 -58.00172468     6    426    0    0    0
H 356.12309641 3.33083414 -61.40587438     6    426    0    0    0
H 347.41762335 22.09823968 -54.25707814     6     431    0    0    0 
C 346.57627157 21.07997499 -55.75927937     1     430    432    433    434
H 345.74810734 19.34418574 -55.05567100     6     431    0    0    0
H 345.06525479 22.24744925 -56.54378067     6     431    0    0    0
C 348.57529967 20.94838592 -57.73003407     2     431    435    436    437
H 349.39923576 22.80949370 -58.13770094     6     434    0    0    0
H 350.02393765 19.76773740 -56.91700160     6     434    0    0    0
C 347.90358635 19.91023367 -60.50610314     2     434    438   439   440
H 347.37242208 17.98894605 -60.51966746     6     437    0    0    0
H 346.29450970 21.07896888 -61.40202006     6     437    0    0    0
C 350.20452041 19.84812880 -62.26677544     2     437   441   442   443
H 349.67811625 19.40521683 -64.26697341     6    440    0    0    0
H 350.96371761 21.77824264 -62.59888700     6    440    0    0    0
C 352.48432175 18.20171102 -61.33315184     2    440   444   445   446
H 352.94165897 18.55233972 -59.42975222     6    443    0    0    0
H 352.00450489 16.17778471 -61.43166345     6    443    0    0    0
C 354.76746194 18.49662323 -63.10185010     2    443   447   448   449
H 354.21392117 17.76512406 -64.91061970     6    446    0    0    0
H 355.30249708 20.50752937 -63.43247051     6    446    0    0    0
C 357.21960781 17.44417362 -61.83578740     2    446   450   451   452
H 357.38130049 18.45490401 -60.10613185     6    449    0    0    0
H 356.96509227 15.46690002 -61.28657069     6    449    0    0    0
C 359.37665782 17.69978626 -63.79400879     2    449   453   454   455
H 358.90762015 16.38653258 -65.31622009     6    452    0    0    0
H 359.47425024 19.55126280 -64.68002878     6    452    0    0    0
C 361.93834320 16.71155007 -63.01215483     2    452   456   457   458
H 362.31618318 17.06093924 -60.99151927     6    455    0    0    0
H 362.15378753 14.65426408 -63.23541828     6    455    0    0    0
C 364.19909603 18.13097567 -64.19982095     2    455   459   460   461
H 365.57968173 16.62690036 -64.02076692     6    458    0    0    0
H 363.99925729 18.35568642 -66.21885239     6    458    0    0    0
C 364.88491062 20.78347907 -63.04032525     2    458   462   463   464
H 363.48100164 22.23225308 -63.56211596     6    461    0    0    0
H 364.75129680 20.80358911 -61.04240573     6    461    0    0    0
C 367.58481971 21.48377751 -63.75679379     1    461   465   466   467
H 367.79446040 22.08708244 -65.64652247     6    464    0    0    0
H 368.79740156 19.96548758 -63.35338826     6    464    0    0    0
H 368.37489229 23.11436449 -62.96998309     6    464    0    0    0
H 342.67861527 27.19295433 -16.42929566     6     469    0    0    0 
C 341.40700315 28.74126378 -16.72447436     1     468    470    471    472
H 340.88086192 29.99923273 -15.05500120     6     469    0    0    0
H 342.16950758 29.95068281 -18.13935526     6     469    0    0    0
C 339.24383012 27.64766884 -18.16559156     2     469    473    474    475
H 337.84303922 29.07424632 -18.62271085     6     472    0    0    0
H 340.09683002 26.87491790 -19.89146753     6     472    0    0    0
C 338.00343424 25.46365762 -16.72241741     2     472    476   477   478
H 339.52030335 24.23354252 -16.14403001     6     475    0    0    0
H 337.25029485 26.19924469 -14.94174138     6     475    0    0    0
C 335.88979905 24.05838352 -18.17525421     2     475   479   480   481
H 334.09074620 25.03100472 -18.04095828     6    478    0    0    0
H 336.49768650 24.13743194 -20.15408582     6    478    0    0    0
C 335.47437614 21.20734627 -17.68581229     2    478   482   483   484
H 337.34532144 20.38290330 -17.35505756     6    481    0    0    0
H 334.85591111 21.01039462 -15.70082225     6    481    0    0    0
C 333.97708017 19.67228538 -19.68016245     2    481   485   486   487
H 332.16531034 20.63700583 -19.98342433     6    484    0    0    0
H 335.06019505 19.52980670 -21.40761332     6    484    0    0    0
C 333.60301545 16.99411041 -18.79848129     2    484   488   489   490
H 335.49264139 16.25442133 -18.26531976     6    487    0    0    0
H 332.37515323 17.11727442 -17.00993597     6    487    0    0    0
C 332.25996845 15.05199347 -20.61173812     2    487   491   492   493
H 330.53561699 16.00817469 -21.17179524     6    490    0    0    0
H 333.15177925 14.91024014 -22.51173993     6    490    0    0    0
C 331.74524180 12.47897499 -19.47038433     2    490   494   495   496
H 333.43900512 11.37503012 -19.63233057     6    493    0    0    0
H 331.32398767 12.73878556 -17.48558785     6    493    0    0    0
C 329.44447343 10.99228641 -20.53101492     2    493   497   498   499
H 327.64123226 11.67856077 -19.73183981     6    496    0    0    0
H 329.48268448 11.10524053 -22.64435264     6    496    0    0    0
C 329.77081894 8.12358601 -20.08605670     2    496   500   501   502
H 331.34278502 7.49658086 -21.33317330     6    499    0    0    0
H 330.18133231 7.64273000 -18.12996307     6    499    0    0    0
C 327.73952036 6.31989249 -21.14017465     1    499   503   504   505
H 328.32283854 4.41123192 -20.98889731     6    502    0    0    0
H 327.35337257 6.63387508 -23.07746210     6    502    0    0    0
H 326.10665747 6.47916294 -20.02908814     6    502    0    0    0
H 324.46498035 2.89381701 -42.06971036     6     507    0    0    0 
C 326.49618532 2.60766122 -42.15405678     1     506    508    509    510
H 327.47837926 3.28442089 -40.43750122     6     507    0    0    0
H 326.67093293 0.63035603 -42.16215313     6     507    0    0    0
C 327.45219166 4.06133646 -44.39802319     2     507    511    512    513
H 326.55514996 3.17431608 -45.92143550     6     510    0    0    0
H 326.79982280 6.02920044 -44.23697070     6     510    0    0    0
C 330.22115183 3.83296251 -44.78048428     2     510    514   515   516
H 331.22523366 4.73373556 -43.30321588     6     513    0    0    0
H 330.66555253 1.90091724 -44.47800512     6     513    0    0    0
C 331.32489336 4.81285698 -47.23304196     2     513   517   518   519
H 330.54286932 3.53925264 -48.79088795     6    516    0    0    0
H 330.33669967 6.64550564 -47.26561903     6    516    0    0    0
C 334.21580565 4.58965532 -47.47945824     2    516   520   521   522
H 334.78734217 5.52959480 -45.75531641     6    519    0    0    0
H 334.89897723 2.64237634 -47.09189091     6    519    0    0    0
C 335.31307386 5.93770994 -49.76651626     2    519   523   524   525
H 334.28867084 5.89157265 -51.38268182     6    522    0    0    0
H 335.19741713 7.85921926 -49.12629996     6    522    0    0    0
C 337.98732483 5.23971388 -50.41480133     2    522   526   527   528
H 339.10304375 5.24015041 -48.64527995     6    525    0    0    0
H 338.18347766 3.33905679 -51.33917507     6    525    0    0    0
C 339.06196298 7.16607568 -52.31960698     2    525   529   530   531
H 338.26638012 6.88904458 -54.10410725     6    528    0    0    0
H 338.43511676 9.03236659 -51.82638879     6    528    0    0    0
C 341.94210523 6.60983598 -52.80566427     2    528   532   533   534
H 342.72798053 6.93217984 -50.94442312     6    531    0    0    0
H 342.13174256 4.65264608 -53.35982768     6    531    0    0    0
C 343.07392699 8.34615741 -54.66092615     2    531   535   536   537
H 341.86489910 8.51874835 -56.35753764     6    534    0    0    0
H 343.01615735 10.15747710 -53.62997348     6    534    0    0    0
C 345.66077292 7.41971889 -55.68540824     2    534   538   539   540
H 346.85400069 6.43536292 -54.24267098     6    537    0    0    0
H 345.16997339 6.02811004 -57.09354833     6    537    0    0    0
C 347.47655426 9.43262798 -56.79324996     1    537   541   542   543
H 349.27183965 8.68592833 -57.41309427     6    540    0    0    0
H 347.93693261 10.89273255 -55.41782259     6    540    0    0    0
H 346.52519605 10.04542597 -58.50524293     6    540    0    0    0
H 362.09353185 19.44293512 -46.21398472     6     545    0    0    0 
C 364.06457027 18.80679206 -46.63204730     1     544    546    547    548
H 364.00585905 16.81483395 -47.34822833     6     545    0    0    0
H 364.85701052 20.16333038 -47.99514896     6     545    0    0    0
C 365.79307957 19.17489106 -44.38244360     2     545    549    550    551
H 365.99309964 21.19093447 -43.79296569     6     548    0    0    0
H 365.08755150 18.14989689 -42.75083762     6     548    0    0    0
C 368.47991990 18.10848950 -44.98098537     2     548    552   553   554
H 368.49482546 16.03852534 -45.13661655     6     551    0    0    0
H 368.81955467 18.80387417 -46.95227393     6     551    0    0    0
C 370.55180131 18.91706577 -43.04138466     2     551   555   556   557
H 370.70303127 20.81257747 -42.66953728     6    554    0    0    0
H 370.39121478 18.17130826 -41.12503142     6    554    0    0    0
C 373.26092486 18.24432266 -43.98337685     2    554   558   559   560
H 373.45249815 16.26618966 -44.52045325     6    557    0    0    0
H 373.65193961 19.21088232 -45.77572631     6    557    0    0    0
C 375.45025049 18.83042849 -42.16117380     2    557   561   562   563
H 377.10060055 18.66064445 -43.30985126     6    560    0    0    0
H 375.24371552 20.77890744 -41.65817379     6    560    0    0    0
C 375.78392323 17.21052708 -39.90374538     2    560   564   565   566
H 374.59269948 18.09432882 -38.57099259     6    563    0    0    0
H 375.01175848 15.27607978 -40.25208754     6    563    0    0    0
C 378.57153424 17.03448591 -38.93797693     2    563   567   568   569
H 379.59908154 16.16447768 -40.42292854     6    566    0    0    0
H 379.36037019 18.90342843 -38.48495232     6    566    0    0    0
C 378.84088686 15.13277601 -36.72471748     2    566   570   571   572
H 377.79585764 15.90108642 -35.16571788     6    569    0    0    0
H 377.73117915 13.40758949 -37.13172148     6    569    0    0    0
C 381.61498803 14.20439131 -36.52113761     2    569   573   574   575
H 381.74697061 12.39506446 -37.37006241     6    572    0    0    0
H 382.87708283 15.28679535 -37.72292467     6    572    0    0    0
C 382.43960459 14.04989287 -33.77760197     2    572   576   577   578
H 380.91208019 13.70582998 -32.57474060     6    575    0    0    0
H 383.93733848 12.60134301 -33.53570572     6    575    0    0    0
C 383.79278916 16.48624720 -32.97155747     1    575   579   580   581
H 382.38632626 17.94907959 -33.17828480     6    578    0    0    0
H 385.32027745 16.92776462 -34.32462197     6    578    0    0    0
H 384.46745172 16.33668639 -31.03061013     6    578    0    0    0
H 357.71345217 13.97798058 -11.52473968     6     583    0    0    0 
C 357.06341585 15.90549444 -11.18609715     1     582    584    585    586
H 355.00410775 15.82703875 -11.23307778     6     583    0    0    0
H 357.55930531 16.48592793 -9.30442802     6     583    0    0    0
C 358.02774864 17.69835848 -13.19685683     2     583    587    588    589
H 357.44646884 17.06674981 -14.91938356     6     586    0    0    0
H 357.29127189 19.63821493 -13.10331920     6     586    0    0    0
C 360.85931011 17.96661044 -13.35311582     2     586    590   591   592
H 361.32311551 18.51217011 -11.42040481     6     589    0    0    0
H 361.69346032 16.15904997 -13.79433786     6     589    0    0    0
C 361.79473382 19.93395450 -15.36647163     2     589   593   594   595
H 361.30843733 19.42302991 -17.13266192     6    592    0    0    0
H 360.69840492 21.71280060 -15.25795116     6    592    0    0    0
C 364.66056394 20.31972359 -15.29240784     2    592   596   597   598
H 365.04449173 20.51984714 -13.27570471     6    595    0    0    0
H 365.64633072 18.60245457 -15.90910529     6    595    0    0    0
C 365.82805508 22.54675623 -16.79152451     2    595   599   600   601
H 365.07855790 22.67633942 -18.76808854     6    598    0    0    0
H 365.60551328 24.28837705 -15.65576936     6    598    0    0    0
C 368.74889822 22.06460966 -17.06498129     2    598   602   603   604
H 369.61975095 21.86220208 -15.19249802     6    601    0    0    0
H 369.22142436 20.33064092 -17.91628536     6    601    0    0    0
C 370.13014739 24.39933061 -18.47354976     2    601   605   606   607
H 369.87503501 24.31780721 -20.40590246     6    604    0    0    0
H 369.42576650 26.21601077 -17.76863263     6    604    0    0    0
C 373.00171856 24.46790541 -18.28693321     2    604   608   609   610
H 373.47422698 23.88409219 -16.25749995     6    607    0    0    0
H 373.71828075 22.98638681 -19.60196967     6    607    0    0    0
C 374.29314346 27.00024463 -18.94983574     2    607   611   612   613
H 373.26655947 27.89979233 -20.64848971     6    610    0    0    0
H 374.17419820 28.40809460 -17.52732363     6    610    0    0    0
C 377.01906288 26.34235178 -19.54292864     2    610   614   615   616
H 377.97326294 25.44448864 -17.88892432     6    613    0    0    0
H 377.06558469 24.81697528 -20.86026895     6    613    0    0    0
C 378.57924134 28.69731682 -20.59712652     1    613   617   618   619
H 377.85064142 29.53383365 -22.41289450     6    616    0    0    0
H 380.45884885 28.09446465 -21.27795339     6    616    0    0    0
H 378.56917125 30.02855525 -19.04061828     6    616    0    0    0
H 359.06825355 -0.93135518 -41.39067009     6     621    0    0    0 
C 360.75605625 -1.20642817 -42.45839805     1     620    622    623    624
H 360.41939694 -2.55000548 -44.00291505     6     621    0    0    0
H 361.30681738 0.67275987 -43.14674333     6     621    0    0    0
C 362.80862300 -2.16515214 -40.65451414     2     621    625    626    627
H 364.76371791 -1.47620045 -41.23447983     6     624    0    0    0
H 362.63052425 -1.11918704 -38.78144786     6     624    0    0    0
C 362.63608711 -5.07210739 -40.38788507     2     624    628   629   630
H 360.66633583 -5.83518367 -40.44889264     6     627    0    0    0
H 363.83736162 -5.86802328 -41.95268632     6     627    0    0    0
C 363.08144452 -6.19327324 -37.75466218     2     627   631   632   633
H 364.58879043 -5.03843964 -36.77591911     6    630    0    0    0
H 361.33746446 -5.91225691 -36.63484146     6    630    0    0    0
C 363.88574442 -9.04159271 -37.71751721     2    630   634   635   636
H 362.60235742 -10.12076442 -38.82730989     6    633    0    0    0
H 365.67233776 -9.13407606 -38.69134478     6    633    0    0    0
C 364.10998733 -10.20464933 -35.10671078     2    633   637   638   639
H 365.82126097 -9.20100395 -34.44101388     6    636    0    0    0
H 362.56980726 -9.60403421 -34.00613275     6    636    0    0    0
C 364.66208383 -13.05185323 -35.17710772     2    636   640   641   642
H 363.02005459 -14.00394394 -36.14980762     6    639    0    0    0
H 366.30572708 -13.32023840 -36.24235321     6    639    0    0    0
C 364.86081509 -14.16900030 -32.39541544     2    639   643   644   645
H 366.05637565 -12.89791626 -31.25655620     6    642    0    0    0
H 362.94314943 -14.41334229 -31.51273517     6    642    0    0    0
C 366.34141931 -16.60951666 -32.46453252     2    642   646   647   648
H 365.45541773 -18.05808843 -33.53498339     6    645    0    0    0
H 368.01922776 -16.30746209 -33.47978957     6    645    0    0    0
C 366.66491157 -17.72677055 -29.71212312     2    645   649   650   651
H 367.92151062 -16.42510083 -28.82292666     6    648    0    0    0
H 365.02483964 -17.54353728 -28.64741754     6    648    0    0    0
C 367.50309877 -20.42216517 -29.47552457     2    648   652   653   654
H 367.60097103 -20.88813269 -27.49321631     6    651    0    0    0
H 366.31124841 -21.80030250 -30.40873709     6    651    0    0    0
C 370.16178748 -20.69317142 -30.64708527     1    651   655   656   657
H 370.19638954 -20.75623078 -32.73009052     6    654    0    0    0
H 371.16769241 -22.28035897 -29.86186885     6    654    0    0    0
H 371.42486405 -19.18474491 -30.14701599     6    654    0    0    0
H 358.43601123 13.29369964 -17.68955825     6     659    0    0    0 
C 359.22131552 11.53544052 -18.40010486     1     658    660    661    662
H 358.74367447 10.22827355 -16.77281770     6     659    0    0    0
H 358.04879107 11.11531902 -20.02840832     6     659    0    0    0
C 362.10282702 11.88845164 -19.00976804     2     659    663    664    665
H 362.72640670 12.91575805 -17.47447625     6     662    0    0    0
H 363.14296802 10.14660647 -18.92463849     6     662    0    0    0
C 362.69024803 13.07720650 -21.49916960     2     662    666   667   668
H 362.87202077 11.57186151 -22.88120945     6     665    0    0    0
H 361.06953590 14.17123767 -22.14223358     6     665    0    0    0
C 365.18446555 14.78714418 -21.34690181     2     665   669   670   671
H 364.92958012 16.26926573 -19.90777763     6    668    0    0    0
H 366.82720644 13.57926808 -21.10345680     6    668    0    0    0
C 365.53604162 16.13493095 -23.91274037     2    668   672   673   674
H 366.32477896 14.70580554 -25.09017301     6    671    0    0    0
H 363.66681488 16.60604730 -24.72584380     6    671    0    0    0
C 367.26580614 18.43976651 -23.91321559     2    671   675   676   677
H 367.00062836 19.61296880 -25.62669466     6    674    0    0    0
H 366.89047067 19.69857997 -22.33931834     6    674    0    0    0
C 370.09026244 17.59008993 -23.93807930     2    674   678   679   680
H 371.21567862 18.95012958 -22.91963438     6    677    0    0    0
H 370.29211209 15.92539526 -22.74344941     6    677    0    0    0
C 371.20947209 17.04665745 -26.58404348     2    677   681   682   683
H 370.18242554 15.39802121 -27.48501541     6    680    0    0    0
H 370.90339739 18.58214280 -28.01241245     6    680    0    0    0
C 374.20499413 16.83991064 -26.35141339     2    680   684   685   686
H 374.78547180 15.16639578 -25.21746172     6    683    0    0    0
H 374.87637441 16.49529211 -28.22591046     6    683    0    0    0
C 375.45787817 19.40203994 -25.72803623     2    683   687   688   689
H 374.54981152 20.97411826 -26.72348555     6    686    0    0    0
H 375.22100738 19.99854783 -23.81086257     6    686    0    0    0
C 378.35864480 19.39555988 -26.25429110     2    686   690   691   692
H 379.09014108 17.57628206 -25.75181501     6    689    0    0    0
H 378.74902736 19.48039230 -28.30671058     6    689    0    0    0
C 379.84665540 21.46935305 -24.78020185     1    689   693   694   695
H 381.78176700 21.72734341 -25.48233626     6    692    0    0    0
H 379.55425781 21.16565761 -22.74861704     6    692    0    0    0
H 379.22013686 23.45226658 -25.03673370     6    692    0    0    0
H 389.03206782 26.07972938 -48.76014899     6     697    0    0    0 
C 387.90143995 24.27948247 -48.88836176     1     696    698    699    700
H 388.79250422 22.60059076 -49.73256787     6     697    0    0    0
H 387.33372161 24.02938041 -46.87926092     6     697    0    0    0
C 385.45532210 25.03645238 -50.25455814     2     697    701    702    703
H 384.73738832 26.70867483 -49.32125557     6     700    0    0    0
H 385.80728243 25.58197346 -52.13676028     6     700    0    0    0
C 383.25893684 23.00978095 -50.40430743     2     700    704   705   706
H 383.63150516 21.41904594 -51.85157751     6     703    0    0    0
H 382.68287341 22.14226009 -48.59537963     6     703    0    0    0
C 380.78862379 24.33385410 -51.24447256     2     703   707   708   709
H 380.24812665 25.55072927 -49.72011566     6    706    0    0    0
H 381.07980024 25.62058223 -52.81700838     6    706    0    0    0
C 378.63489179 22.45308208 -51.73783464     2    706   710   711   712
H 378.76424028 21.44808638 -53.54700015     6    709    0    0    0
H 378.82345931 20.89013589 -50.32831527     6    709    0    0    0
C 376.02405967 23.63849431 -51.62968137     2    709   713   714   715
H 375.64950558 24.48131504 -49.74936466     6    712    0    0    0
H 375.90194830 25.32723784 -52.82978192     6    712    0    0    0
C 374.08503978 21.49361964 -51.87584887     2    712   716   717   718
H 374.12030809 20.65347250 -53.64015011     6    715    0    0    0
H 374.28372778 19.95908913 -50.57325579     6    715    0    0    0
C 371.41454435 22.26970569 -51.21264770     2    715   719   720   721
H 370.32922840 20.78493227 -50.47947727     6    718    0    0    0
H 371.54760808 23.69427321 -49.80845245     6    718    0    0    0
C 370.24027217 23.13068148 -53.67627733     2    718   722   723   724
H 371.46555503 24.38566322 -54.63524226     6    721    0    0    0
H 370.39242799 21.61760412 -54.98552742     6    721    0    0    0
C 367.64821626 24.37015742 -53.37997979     2    721   725   726   727
H 366.52668908 23.48193557 -51.89527101     6    724    0    0    0
H 368.02026875 26.35108851 -52.71031597     6    724    0    0    0
C 365.97416778 24.34079993 -55.80268277     2    724   728   729   730
H 365.76242235 22.39993276 -56.32968596     6    727    0    0    0
H 364.08759161 24.94092735 -55.24606284     6    727    0    0    0
C 366.99638628 25.89855361 -57.99593139     1    727   731   732   733
H 365.94959575 25.33750036 -59.63933802     6    730    0    0    0
H 368.92485218 25.80760530 -58.43194409     6    730    0    0    0
H 366.46072262 27.77776018 -57.95901648     6    730    0    0    0
H 350.76653128 33.34312218 -32.37877704     6     735    0    0    0 
C 350.80863738 35.14924589 -31.56260035     1     734    736    737    738
H 352.69045896 35.79598087 -31.61037642     6     735    0    0    0
H 349.94470871 36.41045965 -32.94820558     6     735    0    0    0
C 349.50980683 35.49862970 -29.03600312     2     735    739    740    741
H 350.50715712 34.61612030 -27.59448287     6     738    0    0    0
H 349.66369888 37.49865577 -28.66262618     6     738    0    0    0
C 346.72728305 34.52824388 -28.91370144     2     738    742   743   744
H 345.71404617 35.58659932 -27.50264350     6     741    0    0    0
H 345.76591717 34.92458762 -30.67318541     6     741    0    0    0
C 346.78672314 31.78047908 -28.23493189     2     741   745   746   747
H 347.30202600 30.68564528 -29.86411700     6    744    0    0    0
H 347.88420206 31.38242920 -26.55340965     6    744    0    0    0
C 343.95975020 30.97465068 -27.94228016     2    744   748   749   750
H 343.14867314 32.11682354 -26.35432002     6    747    0    0    0
H 343.01150838 31.52965591 -29.77088600     6    747    0    0    0
C 343.49658348 28.21660077 -27.71302169     2    747   751   752   753
H 344.40415256 27.48368435 -29.37920494     6    750    0    0    0
H 344.46339282 27.50243828 -26.10987450     6    750    0    0    0
C 340.63040366 27.49720412 -27.63795964     2    750   754   755   756
H 340.37160505 25.78380665 -26.47712434     6    753    0    0    0
H 339.44799866 28.72604615 -26.37896423     6    753    0    0    0
C 339.52307625 26.68268294 -30.23930756     2    753   757   758   759
H 339.32979570 28.02006754 -31.80882469     6    756    0    0    0
H 340.94125903 25.34257947 -30.97755694     6    756    0    0    0
C 336.98405882 25.35255974 -29.96185463     2    756   760   761   762
H 335.74375464 26.82437998 -29.24191949     6    759    0    0    0
H 336.44539249 24.91944608 -31.78894214     6    759    0    0    0
C 336.92551868 22.78254375 -28.64382173     2    759   763   764   765
H 338.43380836 21.38865847 -29.28003317     6    762    0    0    0
H 337.30785577 22.75502680 -26.69349411     6    762    0    0    0
C 334.36300529 21.55118163 -29.23157138     2    762   766   767   768
H 332.91159926 22.56013371 -28.04981166     6    765    0    0    0
H 333.73711453 21.38275111 -31.30716782     6    765    0    0    0
C 334.31234307 18.71330222 -28.33531531     1    765   769   770   771
H 336.30525044 18.02269189 -28.14604086     6    768    0    0    0
H 333.35356029 17.42507257 -29.62898407     6    768    0    0    0
H 333.43340977 18.38574373 -26.53803088     6    768    0    0    0
H 350.18893357 -13.98947100 -39.98041238     6     773    0    0    0 
C 351.95942224 -14.82340881 -39.96509766     1     772    774    775    776
H 353.00693778 -14.07922869 -38.32225533     6     773    0    0    0
H 351.56153122 -16.69085620 -39.35451723     6     773    0    0    0
C 353.31543021 -14.70150925 -42.46884518     2     773    777    778    779
H 354.66167696 -16.41411964 -42.44972996     6     776    0    0    0
H 351.87064460 -14.57691279 -43.96364262     6     776    0    0    0
C 354.83822036 -12.21318584 -42.72597708     2     776    780   781   782
H 353.43038356 -10.70334731 -42.95234027     6     779    0    0    0
H 355.90915274 -11.80037466 -41.03426264     6     779    0    0    0
C 356.64657501 -12.10125978 -44.87314779     2     779   783   784   785
H 358.49597792 -13.02389690 -44.41657377     6    782    0    0    0
H 355.84553386 -13.26635134 -46.44655601     6    782    0    0    0
C 357.13917767 -9.46963807 -45.83291372     2    782   786   787   788
H 355.43022698 -8.76557459 -46.29556584     6    785    0    0    0
H 357.91917774 -8.24202067 -44.46659094     6    785    0    0    0
C 358.86850990 -9.59000640 -48.29512734     2    785   789   790   791
H 360.53453363 -10.57186427 -47.88372659     6    788    0    0    0
H 357.70899848 -10.63481470 -49.59314567     6    788    0    0    0
C 359.79008266 -7.00749969 -49.32751130     2    788   792   793   794
H 358.12193363 -5.83688124 -49.62478378     6    791    0    0    0
H 360.68095971 -6.09352379 -47.71530256     6    791    0    0    0
C 361.36959718 -7.39105472 -51.71219884     2    791   795   796   797
H 362.96482526 -8.61314897 -51.37563811     6    794    0    0    0
H 360.01375707 -8.20038687 -52.89755802     6    794    0    0    0
C 362.26662403 -4.89638485 -52.92938502     2    794   798   799   800
H 360.81767691 -3.74675106 -53.76373055     6    797    0    0    0
H 362.80927363 -3.54918041 -51.47266320     6    797    0    0    0
C 364.29557210 -5.15967575 -54.89431118     2    797   801   802   803
H 365.92793759 -5.56792931 -53.92582977     6    800    0    0    0
H 363.76990427 -6.86225705 -55.91503776     6    800    0    0    0
C 364.55355778 -2.97299041 -56.67567641     2    800   804   805   806
H 363.10478962 -2.98863039 -58.14913483     6    803    0    0    0
H 364.19013078 -1.12271998 -55.68011102     6    803    0    0    0
C 367.24758463 -2.64569590 -57.78297776     1    803   807   808   809
H 367.22454195 -1.20222314 -59.31072327     6    806    0    0    0
H 367.87492691 -4.33564845 -58.81613976     6    806    0    0    0
H 368.67702360 -2.12495933 -56.27668957     6    806    0    0    0
H 353.38129698 18.55200365 -17.93163502     6     811    0    0    0 
C 352.08783621 16.95063213 -17.78118542     1     810    812    813    814
H 353.01633395 15.92422183 -16.19772443     6     811    0    0    0
H 350.17456023 17.51891500 -17.30148942     6     811    0    0    0
C 352.14335645 15.24496455 -20.14896073     2     811    815    816    817
H 350.77923230 15.93050000 -21.49697955     6     814    0    0    0
H 354.03053763 15.32416220 -20.76395485     6     814    0    0    0
C 351.61157480 12.42162958 -19.30438272     2     814    818   819   820
H 352.82877703 11.89909194 -17.80377195     6     817    0    0    0
H 349.70939297 12.60347383 -18.40523650     6     817    0    0    0
C 351.49482964 10.49288894 -21.57664036     2     817   821   822   823
H 350.52196567 11.18173780 -23.24949642     6    820    0    0    0
H 353.41047635 10.15513301 -22.38026385     6    820    0    0    0
C 350.22405116 8.03592190 -20.78844482     2    820   824   825   826
H 351.22203428 6.83107258 -19.64289645     6    823    0    0    0
H 348.68854001 8.57747046 -19.69608777     6    823    0    0    0
C 349.16069491 6.44473322 -23.14208850     2    823   827   828   829
H 347.61444949 7.42378967 -24.14213754     6    826    0    0    0
H 350.52933956 6.20623670 -24.61675217     6    826    0    0    0
C 348.73298687 3.79765968 -22.24396256     2    826   830   831   832
H 350.33029388 2.95350499 -21.46013644     6    829    0    0    0
H 347.58381367 4.10242666 -20.55702029     6    829    0    0    0
C 347.21837823 2.04730390 -23.97020267     2    829   833   834   835
H 345.70527593 2.87625082 -24.85663816     6    832    0    0    0
H 348.50236153 1.58970003 -25.48589015     6    832    0    0    0
C 346.57256221 -0.51458234 -22.84846258     2    832   836   837   838
H 348.13075818 -1.86016715 -22.61424212     6    835    0    0    0
H 345.68230103 -0.19255480 -21.02617857     6    835    0    0    0
C 344.47124821 -1.77685469 -24.44544051     2    835   839   840   841
H 343.24620936 -0.38531461 -25.23112156     6    838    0    0    0
H 345.57576961 -2.51131668 -26.21785436     6    838    0    0    0
C 343.13255701 -3.98839748 -23.04773119     2    838   842   843   844
H 344.56003397 -5.51130681 -22.75025076     6    841    0    0    0
H 342.38989477 -3.28237723 -21.21071091     6    841    0    0    0
C 340.92396001 -4.98944623 -24.89654634     1    841   845   846   847
H 339.68905505 -3.51059551 -25.50141425     6    844    0    0    0
H 339.74080825 -6.33901070 -23.80575384     6    844    0    0    0
H 341.39521825 -5.76315442 -26.77942048     6    844    0    0    0
H 383.26951975 18.41645324 -17.95431991     6     849    0    0    0 
C 383.14129705 19.52983430 -16.33762968     1     848    850    851    852
H 385.07065135 19.54993528 -15.66419074     6     849    0    0    0
H 382.81107404 21.53773666 -16.61705389     6     849    0    0    0
C 381.43973049 18.58401304 -14.18519570     2     849    853    854    855
H 381.56436655 16.48514923 -14.10611749     6     852    0    0    0
H 382.29588818 19.31590442 -12.46890173     6     852    0    0    0
C 378.59575432 19.53947234 -14.46466100     2     852    856   857   858
H 378.51753135 21.56778517 -14.25211314     6     855    0    0    0
H 377.85381312 19.35930973 -16.42411028     6     855    0    0    0
C 376.80603098 18.46267010 -12.40914112     2     855   859   860   861
H 376.83639871 16.33541754 -12.60982683     6    858    0    0    0
H 377.71838741 18.87138825 -10.68598140     6    858    0    0    0
C 374.11466411 19.46613043 -12.36900210     2    858   862   863   864
H 374.13743415 21.56931765 -12.20367958     6    861    0    0    0
H 373.14400679 18.97957961 -14.19254218     6    861    0    0    0
C 372.60699303 18.39816871 -10.12952854     2    861   865   866   867
H 372.65360123 16.32245654 -10.21436236     6    864    0    0    0
H 373.51062334 18.82537760 -8.26001879     6    864    0    0    0
C 369.89610335 19.13325885 -10.23303524     2    864   868   869   870
H 369.78449110 21.20817498 -10.38097198     6    867    0    0    0
H 369.13622909 18.50794549 -12.09743780     6    867    0    0    0
C 368.43004428 18.13881549 -7.96186368     2    867   871   872   873
H 369.01032040 16.13230598 -7.49732025     6    870    0    0    0
H 368.88820383 19.29317393 -6.34481342     6    870    0    0    0
C 365.50874347 18.09479120 -8.13654987     2    870   874   875   876
H 364.87247811 19.92095575 -8.84045979     6    873    0    0    0
H 364.83332394 16.85432244 -9.70926070     6    873    0    0    0
C 364.13537290 17.45996549 -5.51372653     2    873   877   878   879
H 365.07600672 15.91034866 -4.56945311     6    876    0    0    0
H 364.15319261 19.10235034 -4.24523246     6    876    0    0    0
C 361.54332771 16.33815312 -5.61844255     2    876   880   881   882
H 360.38388321 17.55951025 -6.72413713     6    879    0    0    0
H 361.74549358 14.55346312 -6.64979995     6    879    0    0    0
C 360.19323641 15.73148166 -3.28854514     1    879   883   884   885
H 360.44719868 17.37660871 -1.93672105     6    882    0    0    0
H 361.11433401 14.15278618 -2.26325826     6    882    0    0    0
H 358.25312312 15.45983993 -3.38362640     6    882    0    0    0
H 357.40965462 2.18685785 -20.98174073     6     887    0    0    0 
C 356.07520103 1.56522641 -22.51559351     1     886    888    889    890
H 356.14374268 -0.49330123 -22.71545181     6     887    0    0    0
H 354.24071942 1.89419382 -21.77684937     6     887    0    0    0
C 356.72540837 2.59482133 -25.15396956     2     887    891    892    893
H 358.43193180 1.62503934 -25.63154093     6     890    0    0    0
H 355.30520409 2.16449005 -26.62861677     6     890    0    0    0
C 356.98829872 5.46543054 -25.21706631     2     890    894   895   896
H 355.26330974 6.25330897 -24.36639647     6     893    0    0    0
H 358.30295624 6.24915838 -23.70947317     6     893    0    0    0
C 357.55352410 6.60938500 -27.72801257     2     893   897   898   899
H 359.41162142 5.68305311 -28.29078664     6    896    0    0    0
H 356.18845994 6.37993504 -29.25224869     6    896    0    0    0
C 357.87693337 9.53232940 -27.25090362     2    896   900   901   902
H 356.23650727 10.19034983 -26.13964254     6    899    0    0    0
H 359.47318307 9.78885369 -26.09911311     6    899    0    0    0
C 357.90135300 11.08223055 -29.65607450     2    899   903   904   905
H 359.74523164 11.91680060 -30.08298098     6    902    0    0    0
H 356.92402673 10.22088204 -31.28763829     6    902    0    0    0
C 356.33362808 13.45703496 -29.12744156     2    902   906   907   908
H 355.97015624 14.29517265 -30.96821140     6    905    0    0    0
H 354.33438499 12.82606471 -28.46554498     6    905    0    0    0
C 357.65901889 15.32238592 -27.23984378     2    905   909   910   911
H 358.68561941 14.28888092 -25.78828303     6    908    0    0    0
H 359.28156265 16.32029917 -28.11051750     6    908    0    0    0
C 356.02791439 17.32009256 -26.17414063     2    908   912   913   914
H 355.57662815 18.71810561 -27.67498966     6    911    0    0    0
H 354.17398254 16.55423047 -25.53266469     6    911    0    0    0
C 357.52877223 18.60762247 -23.98130418     2    911   915   916   917
H 357.80593203 17.22884856 -22.34612050     6    914    0    0    0
H 359.31929500 19.12030371 -24.75868866     6    914    0    0    0
C 355.80447987 20.76797018 -22.93761138     2    914   918   919   920
H 355.24521011 21.63942411 -24.65090077     6    917    0    0    0
H 354.13450076 20.00250508 -22.15651575     6    917    0    0    0
C 357.11512760 22.49716407 -21.27275046     1    917   921   922   923
H 356.09649373 24.20040051 -20.76713010     6    920    0    0    0
H 358.91051674 23.05370893 -22.17311851     6    920    0    0    0
H 357.65767871 21.52800980 -19.42583002     6    920    0    0    0
H 376.64900415 3.69819230 -26.67087200     6     925    0    0    0 
C 376.10237777 2.65025841 -25.00485442     1     924    926    927    928
H 374.08778942 2.89797000 -24.64112150     6     925    0    0    0
H 376.38425631 0.68700344 -25.62456799     6     925    0    0    0
C 378.00710505 3.42284907 -22.97306314     2     925    929    930    931
H 379.83212882 3.09179809 -23.68315399     6     928    0    0    0
H 377.95533089 5.51488833 -22.76917204     6     928    0    0    0
C 377.86290228 1.82389801 -20.47769425     2     928    932   933   934
H 378.57461572 -0.09918101 -20.72138972     6     931    0    0    0
H 379.08477184 2.82294391 -19.04219658     6     931    0    0    0
C 375.22768726 1.57882475 -19.31091101     2     931   935   936   937
H 374.33609766 3.48705910 -19.27683479     6    934    0    0    0
H 374.15311493 0.28008262 -20.49205020     6    934    0    0    0
C 375.18281593 0.68627082 -16.65266388     2    934   938   939   940
H 376.45924411 -0.91377047 -16.54170873     6    937    0    0    0
H 375.97226796 2.04338994 -15.33135983     6    937    0    0    0
C 372.64020370 -0.30260786 -15.47838085     2    937   941   942   943
H 371.48851515 -0.92666960 -16.98113247     6    940    0    0    0
H 373.10592703 -1.91205911 -14.24825446     6    940    0    0    0
C 371.01143855 1.75099838 -13.97534361     2    940   944   945   946
H 372.22852138 3.02794856 -12.95711056     6    943    0    0    0
H 370.21824084 3.17282819 -15.31827873     6    943    0    0    0
C 368.81708106 0.75187213 -12.48920750     2    943   947   948   949
H 367.87463627 -0.82859741 -13.57008934     6    946    0    0    0
H 369.75530038 0.01877055 -10.74101797     6    946    0    0    0
C 366.87499999 2.81270393 -11.82971005     2    946   950   951   952
H 367.73635996 4.26344430 -10.55319360     6    949    0    0    0
H 366.58631193 3.82737531 -13.49253057     6    949    0    0    0
C 364.29287118 2.03067514 -10.91783994     2    949   953   954   955
H 363.76240376 0.57168919 -12.23089240     6    952    0    0    0
H 364.47196662 1.24545822 -9.13513821     6    952    0    0    0
C 362.46360069 4.37172754 -10.69880447     2    952   956   957   958
H 360.82495094 4.00259050 -9.44187503     6    955    0    0    0
H 363.19369160 6.07941436 -9.60165768     6    955    0    0    0
C 361.35365865 4.96314078 -13.32024697     1    955   959   960   961
H 359.92609513 6.40222149 -13.13591776     6    958    0    0    0
H 360.35622348 3.26856532 -14.20503434     6    958    0    0    0
H 362.60670669 5.49589599 -14.90245281     6    958    0    0    0
H 345.24258379 13.71996871 -35.28772945     6     963    0    0    0 
C 343.82642180 13.37629867 -36.83819145     1     962    964    965    966
H 342.61979897 11.67184558 -36.34106060     6     963    0    0    0
H 342.64895435 15.14985913 -37.15442785     6     963    0    0    0
C 344.83398203 12.75954908 -39.58064312     2     963    967    968    969
H 345.29663340 10.80533933 -39.69823044     6     966    0    0    0
H 343.12024185 12.98285693 -40.65512306     6     966    0    0    0
C 346.49678314 14.59788172 -40.96991634     2     966    970   971   972
H 345.65543959 16.44055964 -40.65283468     6     969    0    0    0
H 348.21695479 14.95085822 -40.01978041     6     969    0    0    0
C 347.02992327 13.71277302 -43.61679091     2     969   973   974   975
H 348.11125072 11.94570467 -43.39308078     6    972    0    0    0
H 345.30471022 13.55820044 -44.71224570     6    972    0    0    0
C 348.46424353 15.75384854 -45.13396227     2    972   976   977   978
H 347.12856412 17.40384412 -45.11341247     6    975    0    0    0
H 350.11874701 16.39582575 -44.29043751     6    975    0    0    0
C 348.93741732 14.97922130 -47.86507653     2    975   979   980   981
H 349.08191533 12.86535798 -48.02914848     6    978    0    0    0
H 347.31895377 15.25703833 -49.12666532     6    978    0    0    0
C 351.13558100 16.35913810 -49.16857278     2    978   982   983   984
H 350.68367580 18.37078465 -49.06572882     6    981    0    0    0
H 352.87626892 16.01675182 -48.08868667     6    981    0    0    0
C 351.54327966 15.56983021 -51.91279518     2    981   985   986   987
H 352.30789381 13.62618006 -52.01883688     6    984    0    0    0
H 349.69482590 15.64735148 -52.82531456     6    984    0    0    0
C 353.48094751 17.36379141 -53.30804777     2    984   988   989   990
H 353.17281410 17.39990734 -55.28459728     6    987    0    0    0
H 353.04393573 19.43623379 -53.06049801     6    987    0    0    0
C 356.31861455 16.72223279 -52.66337357     2    987   991   992   993
H 356.66760968 17.30230785 -50.78446494     6    990    0    0    0
H 356.60146491 14.73017623 -52.56536934     6    990    0    0    0
C 358.28003392 17.76735622 -54.47508601     2    990   994   995   996
H 358.75818192 16.26281700 -55.76986433     6    993    0    0    0
H 357.19541880 19.09459049 -55.57228213     6    993    0    0    0
C 360.78896193 18.65199994 -53.47736543     1    993   997   998   999
H 360.91339113 19.88148665 -51.80631543     6    996    0    0    0
H 361.59793153 20.07286479 -54.78464022     6    996    0    0    0
H 361.93479033 16.91049117 -53.47380945     6    996    0    0    0
H 336.15641066 17.05793065 -37.01952750     6     1001    0    0    0 
C 336.05724036 18.89411326 -36.07196451     1     1000    1002    1003    1004
H 334.62208585 19.96274889 -37.06099596     6     1001    0    0    0
H 335.37187638 18.69020628 -34.04059523     6     1001    0    0    0
C 338.52809545 20.31516624 -36.36746656     2     1001    1005    1006    1007
H 338.39125735 22.32756844 -36.00230964     6     1004    0    0    0
H 339.84847207 19.38412841 -34.96613122     6     1004    0    0    0
C 339.76932033 19.94878330 -38.95611450     2     1004    1008   1009   1010
H 339.94025814 17.88978111 -39.37110265     6     1007    0    0    0
H 338.17286138 20.37632251 -40.22562150     6     1007    0    0    0
C 341.93330117 21.50705991 -39.94814640     2     1007   1011   1012   1013
H 341.52295191 23.47322057 -39.64512363     6    1010    0    0    0
H 343.69098578 20.91920996 -38.90544766     6    1010    0    0    0
C 342.42387140 20.92149505 -42.75617006     2    1010   1014   1015   1016
H 343.08468335 18.88522222 -42.95798654     6    1013    0    0    0
H 340.70829878 20.91996011 -43.76803585     6    1013    0    0    0
C 344.38130155 22.72357536 -43.90634247     2    1013   1017   1018   1019
H 343.68639342 24.65817393 -43.77984328     6    1016    0    0    0
H 346.09959067 22.51915488 -42.76522114     6    1016    0    0    0
C 344.81584469 22.23920739 -46.85398015     2    1016   1020   1021   1022
H 344.71242432 20.22019459 -47.07335341     6    1019    0    0    0
H 343.29735279 23.07880409 -48.01909889     6    1019    0    0    0
C 347.42638707 23.36978482 -47.64128369     2    1019   1023   1024   1025
H 348.73470523 22.86671779 -46.30569256     6    1022    0    0    0
H 348.06158487 22.50056094 -49.28662406     6    1022    0    0    0
C 347.27496992 26.30651947 -48.02318305     2    1022   1026   1027   1028
H 345.81067418 26.63418743 -49.58053541     6    1025    0    0    0
H 346.92355415 27.52802511 -46.37753087     6    1025    0    0    0
C 349.83980219 27.27912310 -48.98050370     2    1025   1029   1030   1031
H 351.29332394 26.94621836 -47.52631321     6    1028    0    0    0
H 350.57441279 26.26066459 -50.59255318     6    1028    0    0    0
C 349.97223165 30.11594900 -49.46664806     2    1028   1032   1033   1034
H 348.19075229 30.29762011 -50.41293422     6    1031    0    0    0
H 349.84867732 31.17919782 -47.69894814     6    1031    0    0    0
C 352.24694646 30.63461541 -51.15930366     1    1031   1035   1036   1037
H 352.61668121 32.65630875 -51.34615548     6    1034    0    0    0
H 352.01186400 29.80528526 -52.99681241     6    1034    0    0    0
H 354.05765042 29.89662411 -50.59677254     6    1034    0    0    0
H 355.77408558 -3.41694602 -39.88662908     6     1039    0    0    0 
C 355.15931052 -5.40049248 -39.73085317     1     1038    1040    1041    1042
H 353.22179157 -5.80141452 -40.42724050     6     1039    0    0    0
H 356.49227056 -6.72019906 -40.55654698     6     1039    0    0    0
C 355.24609636 -5.81522475 -36.84791301     2     1039    1043    1044    1045
H 356.70802511 -4.84087592 -35.79666250     6     1042    0    0    0
H 353.43694234 -5.06916074 -36.45162490     6     1042    0    0    0
C 354.80480327 -8.58941194 -36.10998328     2     1042    1046   1047   1048
H 353.28285298 -9.36707513 -37.05693610     6     1045    0    0    0
H 356.31114199 -9.92688861 -36.47948998     6     1045    0    0    0
C 354.23639493 -8.70446424 -33.22269207     2     1045   1049   1050   1051
H 355.81344996 -7.67509737 -32.26008086     6    1048    0    0    0
H 352.48206304 -7.70808681 -32.70472707     6    1048    0    0    0
C 353.88363871 -11.29877454 -32.06329200     2    1048   1052   1053   1054
H 352.29295424 -11.99754567 -32.91499294     6    1051    0    0    0
H 355.52967261 -12.69107766 -32.50801817     6    1051    0    0    0
C 353.29353783 -11.13224888 -29.14987882     2    1051   1055   1056   1057
H 355.05631710 -10.98974145 -28.13689082     6    1054    0    0    0
H 352.39877832 -9.33910133 -28.76622692     6    1054    0    0    0
C 351.71133093 -13.40456171 -28.20223994     2    1054   1058   1059   1060
H 349.69534824 -13.12542862 -28.80322275     6    1057    0    0    0
H 352.40092298 -15.13191994 -29.04591546     6    1057    0    0    0
C 351.85450222 -13.66669549 -25.39344457     2    1057   1061   1062   1063
H 353.86141369 -14.05007688 -24.84678734     6    1060    0    0    0
H 351.04164530 -11.88694234 -24.58375918     6    1060    0    0    0
C 350.36581256 -15.92072894 -24.48685018     2    1060   1064   1065   1066
H 348.36671693 -15.88584475 -25.10135164     6    1063    0    0    0
H 351.06082976 -17.65201711 -25.40478647     6    1063    0    0    0
C 350.54146167 -16.08026216 -21.53348819     2    1063   1067   1068   1069
H 352.50495658 -16.51066041 -20.83872911     6    1066    0    0    0
H 349.94355684 -14.30068404 -20.76890636     6    1066    0    0    0
C 348.55097207 -17.90436943 -20.37278329     2    1066   1070   1071   1072
H 346.81615651 -17.17300184 -20.89175514     6    1069    0    0    0
H 348.39068666 -19.71251233 -21.22388009     6    1069    0    0    0
C 348.64153232 -18.16976193 -17.43794707     1    1069   1073   1074   1075
H 347.01660893 -19.36120711 -16.81691370     6    1072    0    0    0
[...]
 1761      C     363.0339463800    32.1138070700   -34.8041832900
 1762      H     363.8648131100    33.5756141800   -33.5884429900
 1763      H     364.4518023200    30.6225957700   -34.1286407900
 1764      C     363.0160186100    32.8884905400   -37.6499258100
 1765      H     362.3799640100    31.2642461700   -38.8283309900
 1766      H     361.7630807600    34.4423284700   -37.6877907600
 1767      C     365.6813562700    33.6547785700   -38.6382253700
 1768      H     366.4849530400    35.4209437800   -37.7094345300
 1769      H     366.8804518300    32.0852991100   -38.1492616400
 1770      C     365.5682169300    34.0159043400   -41.5700672000
 1771      H     365.1825843300    32.2480535500   -42.4233979900
 1772      H     364.1561031400    35.3096180900   -42.2217333700
 1773      C     368.0671902100    35.4070032000   -42.3669962200
 1774      H     368.1678115900    37.3739333000   -41.5939658400
 1775      H     369.6903603600    34.5814821600   -41.5117909600
 1776      C     368.6435612800    35.2818259400   -45.2286456500
 1777      H     368.3458497100    33.4060785200   -45.8773448900
 1778      H     367.4772842700    36.5884380100   -46.3460374000
 1779      C     371.3197348900    36.1920062800   -45.7557490500
 1780      H     371.0587877300    38.1515316700   -45.4265284500
 1781      H     372.7935797500    35.5250789600   -44.4885496400
 1782      C     372.0757521900    36.1811450100   -48.6337604000
 1783      H     370.8963950000    37.4106679600   -49.7928039300
 1784      H     374.0896234600    36.8554573800   -48.9094608900
 1785      C     372.0984144900    33.5907742200   -49.9270465400
 1786      H     373.2701708700    32.2447676100   -48.9260874500
 1787      H     370.1948965500    32.7121173500   -49.8513566400
 1788      C     372.7723069100    33.6379051300   -52.6899892000
 1789      H     371.6948897300    35.0839071300   -53.6424913900
 1790      H     374.6988382400    34.2254357600   -52.9242690500
 1791      C     372.1902182100    30.9118259700   -53.9837483000
 1792      H     373.6668111800    29.6153187900   -53.2739193400
 1793      H     370.4208828700    30.1271965400   -53.1775927100
 1794      C     372.1866979500    31.2412753100   -56.8389880200
 1795      H     374.0401016400    31.9531301400   -57.4076570500
 1796      H     370.6522222300    32.5129171700   -57.5677247100
 1797      H     371.7048999400    29.4864683000   -57.9522167600
 1798      H     383.5745358900    -7.4548898100   -36.5789204400
 1799      C     382.5486071000    -5.7579090600   -35.9448049700
 1800      H     383.7907346600    -4.5703837200   -34.8908373700
 1801      H     381.9114536000    -4.7935655900   -37.5721470500
 1802      C     380.4691676500    -6.7977698800   -34.3844989100
 1803      H     379.1025922800    -7.7952070500   -35.5923624800
 1804      H     381.0669046600    -7.9636555500   -32.8023738700
 1805      C     378.8435593200    -4.6347824600   -33.2133981200
 1806      H     379.9748125600    -3.7898648900   -31.7774365700
 1807      H     378.4478102800    -3.2498477700   -34.8364721300
 1808      C     376.3539822700    -5.1108167700   -31.9426997700
 1809      H     375.3006690800    -6.5503565600   -33.0277627700
 1810      H     376.7705870300    -5.8161180700   -30.0712556600
 1811      C     374.6577635800    -2.7489636900   -31.6262471100
 1812      H     375.8304944800    -1.2160377200   -30.7501843500
 1813      H     374.5275923500    -1.8452686200   -33.4091085300
 1814      C     372.1005728900    -3.4524771100   -30.4093536000
 1815      H     370.4045651600    -3.2140957200   -31.7448540100
 1816      H     372.1889187100    -5.4233746100   -29.6608730500
 1817      C     371.7671667800    -1.7618817900   -28.0183666600
 1818      H     373.3697360800    -1.8764887100   -26.6220703100
 1819      H     371.9119190700     0.2088877300   -28.5640736000
 1820      C     369.1248851500    -2.1733844800   -26.7902743300
 1821      H     367.6369492700    -2.4198408400   -28.1641439500
 1822      H     369.1129217100    -4.0343556600   -25.9519683600
 1823      C     368.8288013500    -0.1818538700   -24.6401571700
 1824      H     370.5378726400    -0.1674872200   -23.4886817000
 1825      H     368.5762838000     1.7249020300   -25.2825002300
 1826      C     366.9253724200    -1.0742558300   -22.6646849600
 1827      H     364.9561723700    -1.7663929500   -23.2518169800
 1828      H     367.5093334900    -2.8573372400   -21.9144657600
 1829      C     366.9776305100     0.6044134300   -20.4383955100
 1830      H     368.9230518600     0.6972752800   -19.6465699000
 1831      H     366.5809016400     2.5262499300   -21.0438544800
 1832      C     364.8800615200     0.0446465400   -18.4682821400
 1833      H     365.1170924100    -1.8892655600   -17.7660484500
 1834      H     363.0850453800     0.2953447200   -19.2154896600
 1835      H     364.9021320800     0.9322341300   -16.6223328100
 1836      H     368.1820986200     8.0223836400   -32.3222887900
 1837      C     366.3809461500     7.7118728500   -31.2718244400
 1838      H     365.4497618300     9.4532617800   -31.5556732900
 1839      H     365.2534794200     6.3888408800   -32.5050732300
 1840      C     366.8600876900     7.2844602500   -28.4328785200
 1841      H     365.1099106800     7.3491218100   -27.3963074000
 1842      H     367.4149349400     5.2221868500   -28.5847005000
 1843      C     368.9999203100     8.8871093000   -27.4532252500
 1844      H     370.4698994500     8.5110592200   -28.8132885800
 1845      H     368.5568385000    10.9124840100   -27.6324367500
 1846      C     369.8014167900     8.3441723200   -24.7730639200
 1847      H     368.4279058000     9.2345241500   -23.4603938900
 1848      H     369.9398500300     6.2922807300   -24.4984261700
 1849      C     372.4263519600     9.4937023000   -24.0770013100
 1850      H     373.6860198300     8.4523244500   -25.4744903300
 1851      H     372.6998829400    11.5056231200   -24.4364485900
 1852      C     373.2814092200     9.1700067100   -21.3649558500
 1853      H     372.2898980300     7.4214090200   -20.6442462800
 1854      H     375.3127221800     8.7572611100   -21.2015582600
 1855      C     372.6192190800    11.1855546200   -19.4285538600
 1856      H     373.9136113200    12.8191869500   -19.8387698900
 1857      H     370.6571579300    11.7440742200   -19.5974591500
 1858      C     373.1018639900    10.5115153700   -16.6929528800
 1859      H     372.3741718200    11.9988029700   -15.5046007800
 1860      H     372.0527208500     8.8984437800   -16.2276694900
 1861      C     375.8972268700    10.3557189200   -15.6604671700
 1862      H     377.0584917500     9.0573001300   -16.5318052100
 1863      H     376.8533416900    12.1716094800   -16.0213178300
 1864      C     375.7301774000     9.8445580000   -12.8662375400
 1865      H     375.0404661200    11.5821306900   -12.0981210200
 1866      H     374.4397610700     8.2132087500   -12.5231935000
 1867      C     378.2747761000     9.0441148800   -11.5588543500
 1868      H     379.1079833000     7.3577574900   -12.4211340900
 1869      H     379.7369559600    10.3616458800   -12.2169097500
 1870      C     378.0984983800     8.6823669000    -8.6580956200
 1871      H     379.5212783300     7.7703062200    -7.6920254200
 1872      H     376.5114660900     7.4453394800    -8.4037161700
 1873      H     377.9080221400    10.5357519500    -7.8247349100
 1874      H     380.7427119800    15.4117526600   -49.6957973400
 1875      C     379.5713087900    13.7634741300   -50.0149268000
 1876      H     379.9381575800    13.0891600900   -52.0893810400
 1877      H     380.2744411500    12.1835387500   -48.9325813800
 1878      C     376.7582163400    14.5818973800   -49.4184212900
 1879      H     376.5928731500    14.9532524300   -47.3379073200
 1880      H     376.5857820900    16.3898296800   -50.3282495500
 1881      C     374.6213383900    12.6751192000   -50.3254762500
 1882      H     374.4880051000    12.6699036600   -52.4378900800
 1883      H     375.0317514200    10.6168473400   -49.9608154800
 1884      C     372.1224907800    13.4470638700   -49.1416668400
 1885      H     372.4973607400    13.0483245000   -47.0903173900
 1886      H     371.7858545100    15.5267303700   -49.5726903800
 1887      C     370.0195942800    11.8134434500   -50.1737470900
 1888      H     369.7749395900    12.3608683800   -52.0829498800
 1889      H     370.4825426600     9.8935427700   -50.0597734100
 1890      C     367.5492919700    12.0689260500   -48.7734574800
 1891      H     367.7667211800    11.3635152300   -46.8584620300
 1892      H     367.1556744400    14.1049225800   -48.7464558100
 1893      C     365.3466561200    10.6924769900   -50.1365526200
 1894      H     365.0109923400    11.7464210500   -51.8705663400
 1895      H     365.7107903400     8.7193672000   -50.6204502400
 1896      C     362.8834696600    10.8654155300   -48.8352657700
 1897      H     363.1546047700    10.2578306200   -46.8529536000
 1898      H     362.3141992500    12.8057407600   -48.7757498600
 1899      C     360.5128524100     9.5028215100   -50.0218196100
 1900      H     360.1253621700    10.5086470900   -51.7725712200
 1901      H     360.9478676500     7.4712837100   -50.1456920000
 1902      C     358.0189916700     9.8945932000   -48.5172212500
 1903      H     358.0755806100     8.8827218700   -46.6890874600
 1904      H     357.6380362800    11.8958853400   -48.3758578500
 1905      C     355.9428569700     8.6249276000   -50.0954184800
 1906      H     355.8764656000     9.3477288400   -51.9976702500
 1907      H     356.2715457600     6.5865965500   -50.2521918700
 1908      C     353.3917883000     9.1410764800   -48.6845588000
 1909      H     353.1373142100    11.0016953400   -47.9950293000
 1910      H     353.5432397900     8.0305292200   -46.9306551500
 1911      H     351.5304025100     8.8129553800   -49.6851149600
 ----------------------------------------------------------------
 Nuclear Repulsion Energy =           0.00000000 hartrees
 There are     2498 alpha and     2498 beta electrons

 Total QAlloc Memory Limit   2000 MB
 Mega-Array Size       204 MB
 MEM_STATIC part       192 MB
   **** Step 1: MM calculation on the entire system **** 
 OPLSAA force field loaded.
Reading user-defined FF parameters...
 Reading user defined atom types.
 Found 3 user defined AtomTypes
finished.
Determining angles, torsions, etc. from user defined input
Determining VDW/Coulomb pairs... (useList = 0)

 Time req'd to get MM system information: 0.2 s (CPU) 0.3 s (wall)

 ------ MM Energies ------
   Ebond:           533.543818463051
   Eangle:          883.424717098988
   EUreyBrad:         0.000000000000
   Eimptors:          0.000000000000
   Etorsion:        235.188541711284
   Evdw:        1753709.762945740251
   Ecoulomb:        182.989666348306
   Etot:        1755544.909689361928 Kcal/mol (   2797.638905579741 hartree)
 -------------------------
 Time req'd to calc MM energy: 0.1 s (CPU) 0.1 s (wall)
 OPLSAA force field loaded.
Reading user-defined FF parameters...
 Reading user defined atom types.
 Found 3 user defined AtomTypes
finished.
 Time req'd to get MM system information: 0.0 s (CPU) 0.0 s (wall)
 Time req'd to calc MM gradient: 0.2 s (CPU) 0.2 s (wall)
   **** Step 2: MM calculation on the model system **** 
 Reading user defined atom types.
 Found 3 user defined AtomTypes
 ----------------------------------------------------------------
             Standard Nuclear Orientation (Bohr)
    I     Atom           X                Y                Z
 ----------------------------------------------------------------
    1      Fe    361.5506273300    12.6053042400   -40.2041328700
    2      C     358.8890303600    13.2550754700   -42.1362332900
    3      C     364.9452412900    12.3388769200   -41.0380234100
    4      C     361.9042906800    16.1258909200   -39.4072988900
    5      C     361.2084360900    11.9293810500   -36.7942078800
    6      C     360.6830351700     9.5320004400   -40.9546892100
    7      O     357.0908944800    13.6542090000   -43.3061156600
    8      O     366.9031523000    12.0227137500   -41.4859836400
    9      O     362.0807886200    18.1509204400   -38.9499437700
   10      O     361.0704879100    11.3472896600   -34.7804638500
   11      O     359.5011953700     7.5770174100   -41.4191691700
 ----------------------------------------------------------------
 Nuclear Repulsion Energy =         802.19874311 hartrees
 There are       48 alpha and       48 beta electrons
 OPLSAA force field loaded.
Reading user-defined FF parameters...
 Reading user defined atom types.
 Found 3 user defined AtomTypes
finished.
Determining VDW/Coulomb pairs... (useList = 0)

 No MM bonds in system. Return all possible pairs.
 Time req'd to get MM system information: 0.0 s (CPU) 0.0 s (wall)

 ------ MM Energies ------
   Ebond:             0.000000000000
   Eangle:            0.000000000000
   EUreyBrad:         0.000000000000
   Eimptors:          0.000000000000
   Etorsion:          0.000000000000
   Evdw:        1754151.003163788002
   Ecoulomb:         -6.761568751327
   Etot:        1754144.241595036583 Kcal/mol (   2795.406798880071 hartree)
 -------------------------
 Eold: 2797.6389056 mm_energy: 2795.4067989 Enew:    2.2321067
 Time req'd to calc MM energy: 0.0 s (CPU) 0.0 s (wall)
 OPLSAA force field loaded.
Reading user-defined FF parameters...
 Reading user defined atom types.
 Found 3 user defined AtomTypes
finished.
Determining VDW/Coulomb pairs... (useList = 0)

 No MM bonds in system. Return all possible pairs.
 Time req'd to get MM system information: 0.0 s (CPU) 0.0 s (wall)
 Number of fixed atoms: 0
 Time req'd to calc MM gradient: 0.0 s (CPU) 0.0 s (wall)
   **** Step 3: QM calculation on the model system **** 
 Requested basis set is def2-mSVP
 There are 80 shells and 174 basis functions

                       Distance Matrix (Bohrs)
             Fe(  1)   C (  2)   C (  3)   C (  4)   C (  5)   C (  6)
   C (  2)  3.352508
   C (  3)  3.505676  6.222795
   C (  4)  3.626921  4.977997  5.123292
   C (  5)  3.493072  5.972800  5.669336  4.992309
   C (  6)  3.280434  4.298347  5.104106  6.882243  4.830433
   O (  7)  5.532786  2.182023  8.280405  6.669240  7.895196  5.951914
   O (  8)  5.534625  8.134352  2.033235  6.793056  7.379110  6.721293
   O (  9)  5.710335  6.656505  6.807717  2.083523  6.641969  8.958711
   O ( 10)  5.588320  7.906058  7.426575  6.703571  2.100720  6.447205
   O ( 11)  5.564185  5.755803  7.242804  9.105258  6.576322  2.331190
             O (  7)   O (  8)   O (  9)   O ( 10)
   O (  8) 10.112124
   O (  9)  8.005978  8.200098
   O ( 10)  9.687403  8.912921  8.043299
   O ( 11)  6.804585  8.634677 11.160591  7.794231

 A cutoff of  1.0D-11 yielded   2497 shell pairs
 There are     12859 function pairs (     14708 Cartesian)
 Smallest overlap matrix eigenvalue = 2.63E-03
 Guess MOs from SCF MO coefficient file
 Reading MOs from coefficient file
 Reading MOs from coefficient file
 A restricted Kohn-Sham SCF calculation will be
 performed using Pulay DIIS extrapolation
 Exchange:  B88      Correlation:  P86
 Using SG-1 standard quadrature grid
 SCF converges when DIIS error is below 1.0E-08
 Using Q-Chem read-in guess as SCF_GUESS READ specified.

 using 2 threads for integral computing
 -------------------------------------------------------
 OpenMP Integral computing Module                
 Release: version 1.0, May 2013, Q-Chem Inc. Pittsburgh 
 -------------------------------------------------------
 ---------------------------------------
  Cycle       Energy         DIIS Error
 ---------------------------------------
    1   -1830.4800192307      2.38E-09
    2   -1830.4800192308      2.15E-08
    3   -1830.4800192310      4.64E-09 Convergence criterion met
 ---------------------------------------
 SCF time:  CPU 3.81 s  wall 2.00 s
 E(QM + QM/MM):    -1830.4800192310 E(MM):    2.2321067 E(Tot): -1828.247912531358 
 SCF   energy in the final basis set = -1828.24791253
 Total energy in the final basis set = -1828.24791253

 --------------------------------------------------------------

                    Orbital Energies (a.u.)
 --------------------------------------------------------------

 Alpha MOs
 -- Occupied --
******** -29.6217 -25.5824 -25.5693 -25.5639 -18.9011 -18.8837 -18.8805
-18.8630 -18.8574 -10.0535 -10.0416 -10.0350 -10.0296 -10.0292  -3.3067
 -2.1440  -2.1197  -2.1062  -1.1064  -1.1057  -1.0821  -1.0427  -0.9969
 -0.5651  -0.5281  -0.5159  -0.5153  -0.5010  -0.4628  -0.4605  -0.4544
 -0.4521  -0.4492  -0.4396  -0.4353  -0.4296  -0.4147  -0.4095  -0.4069
 -0.4032  -0.3792  -0.3765  -0.3646  -0.2672  -0.2571  -0.2212  -0.2092
 -- Virtual --
 -0.0987  -0.0803  -0.0743  -0.0693  -0.0692  -0.0482  -0.0458  -0.0375
 -0.0308  -0.0210  -0.0062   0.0155   0.1957   0.2204   0.2294   0.2563
  0.2986   0.3305   0.3577   0.3870   0.4029   0.4208   0.4259   0.4377
  0.4540   0.4702   0.5045   0.5132   0.5215   0.5612   0.5758   0.5992
  0.6406   0.6696   0.6787   0.7106   0.7242   0.7335   0.7437   0.7753
  0.8001   0.8336   0.8396   0.8699   0.9086   0.9158   0.9440   0.9640
  0.9815   0.9853   0.9924   0.9966   1.0225   1.0388   1.0409   1.0820
  1.2025   1.2740   1.2964   1.3392   1.3762   1.3903   1.3954   1.3979
  1.4089   1.4219   1.4238   1.4410   1.4570   1.4587   1.4677   1.5083
  1.5451   1.5511   1.5725   1.5818   1.6204   1.6610   1.6765   1.6869
  1.7108   1.8285   1.8361   1.8396   1.8543   1.8586   1.8619   1.8677
  1.8809   1.8833   1.8879   1.8957   1.9017   1.9128   1.9649   1.9819
  2.3162   2.4362   2.4413   2.4703   2.4878   2.5162   2.5241   2.5351
  2.5559   2.6032   2.6656   2.6858   2.6929   2.7032   2.7182   2.8112
  2.8601   2.9333   2.9842   3.0343  13.2373  13.2979  13.3179  13.3683
 13.4478  24.9046  24.9849  25.0038  25.0260  25.0464
 --------------------------------------------------------------

          Ground-State Mulliken Net Atomic Charges

     Atom                 Charge (a.u.)
  ----------------------------------------
      1 Fe                   -0.465688
      2 C                     0.175640
      3 C                     0.183525
      4 C                     0.183553
      5 C                     0.205088
      6 C                     0.155828
      7 O                    -0.117293
      8 O                    -0.027532
      9 O                    -0.039067
     10 O                    -0.062431
     11 O                    -0.191622
  ----------------------------------------
  Sum of atomic charges =     0.000000

 -----------------------------------------------------------------
                    Cartesian Multipole Moments
 -----------------------------------------------------------------
    Charge (ESU x 10^10)
                -0.0000
    Dipole Moment (Debye)
         X       1.2417263669      Y       1.3411476120      Z       0.7475223982
       Tot       1.9746774480
    Quadrupole Moments (Debye-Ang)
        XX     406.1240     XY     263.8540     YY     -50.8505
        XZ     115.1987     YZ     -23.4706     ZZ    -100.1210
    Octopole Moments (Debye-Ang^2)
       XXX   96758.2899    XXY   51413.1042    XYY   -9677.6001
       YYY   -1185.4142    XXZ   18188.7710    XYZ   -4654.5969
       YYZ    1113.6940    XZZ  -18525.8707    YZZ     -61.0228
       ZZZ    5357.0897
    Hexadecapole Moments (Debye-Ang^3)
      XXXX ************   XXXY 9927307.6839   XXYY ************
      XYYY -226425.5901   YYYY  -17275.2621   XXXZ 3024180.5422
      XXYZ -912186.7919   XYYZ  211898.9104   YYYZ   25362.6378
      XXZZ ************   XYZZ   -7935.1657   YYZZ  -27594.5880
      XZZZ 1010524.0371   YZZZ   22717.4332   ZZZZ -213387.3089
 -----------------------------------------------------------------
 Calculating MO derivatives via CPSCF
 Full subspace dimension requested for CIS/TDDFT
 MAX_CIS_SUBSPACE fits in available memory
