30578
# CELL(abcABC): 3981.86832  3981.86832  3981.86832    90.00000    90.00000    90.00000  Step:           0  Bead:       0 v_centroid{atomic_unit}  cell{atomic_unit}
      Fe  1.28942e-04  1.03338e-04  2.27937e-04
       C -5.67445e-05 -2.49851e-04  3.50587e-04
       C  5.48792e-05  1.92617e-04 -6.09163e-05
       C -9.96323e-05 -5.93916e-06 -1.13357e-04
       C -3.22292e-04  1.97383e-04 -2.28643e-04
       C -1.24247e-04  5.53413e-05  1.06792e-04
       O  2.02675e-04 -1.77390e-04 -2.08167e-04
       O  9.44244e-05 -1.38636e-04 -6.34593e-05
       O -2.08461e-04 -3.53840e-05  6.34072e-05
       O  4.60060e-05 -2.01711e-05 -1.13400e-04
       O -4.90745e-05  1.30242e-04  5.18447e-05
       H -5.94510e-05 -2.65225e-04  1.02202e-05
       C  1.79398e-05 -2.07393e-04 -4.41700e-05
       H  1.15933e-03  2.91444e-04  1.18185e-03
       H -1.01925e-03  8.28241e-04  1.42923e-04
       C -1.53731e-04 -6.40516e-05  1.41297e-04
       H -2.87079e-04  2.46834e-04  3.60581e-04
       H -6.42820e-04  5.11416e-04 -1.76403e-03
       C  1.54007e-04 -3.22269e-04 -3.38632e-04
       H -3.48795e-04  8.00731e-04 -3.96165e-04
       H  1.02105e-04  8.26241e-04  5.75553e-04
       C  7.71764e-05  2.61274e-04  1.58760e-05
       H  4.59421e-04 -4.00197e-04  1.30831e-03
       H -3.82505e-04  3.35224e-04 -8.85723e-05
       C -4.12534e-05 -1.45954e-05  3.55284e-04
       H -1.94606e-04 -7.78471e-04  2.47928e-04
       H  8.64668e-04  4.97647e-04  1.12974e-03
       C  5.60436e-05  9.23244e-05  1.05222e-04
       H -4.21502e-04 -8.76486e-04  5.00454e-04
       H -5.81046e-04 -3.37248e-04 -1.58475e-04
       C  1.67642e-04 -3.07738e-04 -3.46210e-05
       H  5.45601e-04  2.95325e-04  5.68830e-04
       H  6.94655e-05  7.45048e-04  6.63946e-04
       C -1.76357e-04 -4.54219e-05 -2.95875e-04
       H -5.36955e-04 -3.61799e-04  7.00607e-04
       H  7.08954e-04  9.96153e-05  7.44869e-04
       C -1.30649e-04  2.55176e-04 -2.68820e-04
       H  8.21363e-04  8.19613e-04 -5.40375e-04
       H -8.04441e-04  1.27182e-03 -1.98591e-04
       C -3.70126e-05 -2.40998e-04 -1.62009e-04
       H  2.73421e-04  9.71789e-05 -3.47113e-04
       H -4.01665e-04  1.31903e-03 -3.94102e-04
       C -1.18553e-04 -3.58410e-04 -1.50837e-04
       H -6.64216e-05 -1.77253e-03  2.64519e-04
       H  7.41356e-04 -2.01601e-04 -3.32123e-04
       C  6.64876e-05 -1.12856e-04 -1.59627e-04
       H  1.42850e-05 -5.10849e-06 -1.28354e-04
       H  2.32180e-04  1.58979e-04 -1.93907e-04
       H -4.51090e-04 -4.98506e-04 -2.84534e-05
       H -2.38046e-04  2.84519e-04  5.86157e-05
       C  2.03514e-04 -1.70652e-04  1.36507e-05
       H  1.03162e-03 -5.70455e-04 -9.96615e-04
       H -1.24470e-03  5.80524e-04  2.49474e-04
       C  1.77584e-04  1.35131e-04  2.24509e-04
       H  4.42759e-04 -1.62836e-03  1.11781e-03
       H -2.83172e-04 -8.24908e-04 -1.29760e-04
       C  2.19153e-04  1.68809e-04 -2.00756e-04
       H -1.78220e-04 -2.94293e-04 -1.55299e-04
       H -4.37166e-04  1.08538e-04  4.19753e-04
       C  5.08522e-05 -8.43324e-05 -2.31746e-05
       H  9.59356e-04  3.77062e-04  6.13709e-04
       H -9.33243e-04 -7.95182e-05 -5.29569e-04
       C -4.31200e-04  4.10656e-05  1.68796e-04
       H  1.76076e-03  6.95334e-04 -4.59216e-04
       H  1.16550e-03 -1.54500e-03 -3.79517e-04
       C  1.82394e-04  1.24112e-04  1.16801e-04
       H  2.93376e-04  2.65075e-04 -5.36651e-04
       H  1.50487e-03 -1.25882e-03  9.98100e-04
       C  2.50441e-04  2.14006e-04 -1.24352e-04
       H  9.39790e-04 -3.37029e-04 -1.31276e-03
       H  6.38114e-04  1.37905e-03  1.39712e-03
       C  1.40772e-04  1.45948e-04 -3.06728e-04
       H -3.95257e-04  7.89915e-04 -4.27569e-04
       H  3.99511e-06 -4.61813e-04  3.54575e-04
       C  9.27118e-05  1.40641e-04  2.03869e-04
       H -4.25256e-04  4.96473e-04  1.70378e-03
       H  9.84749e-04  1.32717e-03  5.66104e-04
       C  1.14139e-04 -6.99437e-04 -4.52118e-05
       H -5.96698e-04  4.62630e-04 -1.09864e-03
       H  7.82351e-05 -2.01086e-04 -6.70334e-05
       C  1.18071e-04  2.64853e-04 -1.28890e-04
       H  1.98840e-04 -1.16505e-03 -2.25936e-04
       H -6.48159e-04  1.15904e-03  4.31900e-04
       C -3.70837e-04  2.27946e-04  2.60150e-04
       H  8.61336e-04  4.09663e-05  9.79107e-04
       H  2.38189e-05 -1.09740e-03 -2.32359e-04
       H  1.59454e-03  3.82152e-04  1.59264e-04
       H  7.53280e-04  1.05869e-03 -7.31153e-04
       C  1.78772e-04  8.90625e-05 -3.45444e-04
       H  5.22139e-04  1.27875e-04 -7.86783e-04
       H  1.36084e-03  1.49078e-04 -7.64976e-04
       C  4.19138e-05 -2.84092e-04  2.69926e-04
       H -1.15232e-03  1.37595e-04 -5.59944e-04
       H  6.90587e-04 -4.13071e-04 -5.95723e-04
       C  1.33777e-04  3.51464e-04  9.19675e-05
       H -1.33603e-05 -3.52962e-04 -9.71149e-04
       H -8.39820e-04  8.08772e-04 -1.31706e-03
       C -1.21242e-04 -2.37725e-04 -2.67147e-04
       H  6.95121e-04 -1.05261e-04 -5.12460e-04
       H -2.54251e-04 -1.24678e-03 -1.81063e-03
       C  7.72805e-05  1.96850e-05  2.95939e-04
       H  9.75707e-04 -1.14554e-03 -5.02999e-04
       H  1.73633e-04  7.76824e-04  2.10034e-04
       C  6.83614e-05 -7.92092e-05  1.16882e-05
       H  1.34415e-03  2.46277e-04  8.26756e-04
       H  5.37918e-04  2.90216e-04 -1.09548e-03
       C -1.41749e-04 -1.18844e-04 -2.13807e-04
       H  1.01706e-03 -5.43977e-05 -5.20725e-04
       H -7.01377e-04  3.61817e-05 -5.18908e-05
       C -1.92862e-04  6.25576e-04  1.80484e-04
       H  1.33975e-04  4.85768e-04 -3.73009e-04
       H  1.03476e-04  2.52515e-05 -9.52979e-04
       C  2.82714e-05  2.30785e-04  1.25434e-04
       H  1.64512e-03 -7.77463e-04  5.09857e-04
       H -1.21572e-03 -4.58487e-04 -2.78786e-04
       C -3.03675e-04 -2.55467e-06 -1.63564e-05
       H -8.72232e-04 -1.21697e-03 -6.34519e-04
       H  4.41276e-04  3.19100e-04  9.18107e-04
       C -8.89926e-05 -2.55084e-04 -8.81901e-05
       H  1.70055e-04  7.71602e-04  6.61515e-04
       H -8.09087e-04 -4.10486e-04 -7.14893e-04
       C -1.07594e-04  1.10713e-05 -2.03116e-04
       H  1.10936e-03 -1.65111e-04 -6.38725e-05
       H  9.94460e-04 -3.42421e-04  4.62992e-04
       H -1.67491e-04 -6.23635e-04 -7.48680e-04
       H -6.72728e-04 -1.06465e-03 -7.75339e-04
       C  3.03673e-05 -1.06503e-04  5.98274e-05
       H  1.27723e-03  1.66236e-04  7.08420e-04
       H -8.22860e-04 -5.65712e-04  1.41746e-05
       C -1.16019e-04 -9.19321e-05 -2.08862e-04
       H -4.95855e-04  8.54005e-04 -2.99168e-04
       H  3.41770e-04  1.10598e-04 -9.51957e-04
       C -1.71301e-04 -4.35705e-04 -1.12987e-04
       H  1.82868e-04 -4.19810e-04  5.55522e-04
       H  8.97051e-04  9.78695e-04 -1.40173e-04
       C -3.26815e-04  1.47987e-04 -2.22878e-04
       H -8.56604e-04  6.30533e-05  6.33501e-04
       H  5.81449e-04 -3.96970e-04 -2.17301e-03
       C  6.53233e-05  4.00301e-04  3.63489e-04
       H  6.86500e-04 -1.10255e-04 -1.44539e-03
       H -2.39008e-04 -7.87760e-04 -3.70084e-04
       C  3.44460e-04  6.62716e-05  1.68737e-04
       H -3.80008e-04  5.56426e-04  2.81999e-04
       H  1.27807e-03 -9.14998e-04  8.55325e-04
       C -7.96479e-05 -3.34167e-04 -1.45330e-04
       H -4.74533e-04 -8.33906e-04 -1.08617e-03
       H -6.10468e-04 -6.47589e-04  1.25627e-04
       C  4.25584e-05 -3.03982e-05  6.85732e-06
       H  5.29919e-04  1.03670e-03 -1.20021e-04
       H  5.19181e-04 -4.92634e-04 -2.21335e-04
       C -1.22914e-04 -1.26540e-04 -2.69451e-04
       H -5.51816e-04  4.43364e-04  9.74197e-04
       H  1.05281e-03  1.08050e-03  2.78443e-04
       C  3.36838e-05 -2.25013e-05  1.17275e-04
       H -8.61031e-04  6.24420e-04  3.66368e-04
       H  7.67464e-04 -4.81676e-05  3.00677e-04
       C  6.04839e-05 -3.50098e-05  3.20713e-04
       H  4.61498e-04 -7.18166e-04 -5.92459e-04
       H  9.38271e-04  8.29524e-04  1.15739e-03
       C -3.21416e-05 -6.90065e-06 -1.46329e-04
       H  8.81382e-04 -2.88582e-04 -4.61161e-04
       H -3.95330e-04  6.59561e-04 -1.34392e-03
       H -3.80414e-04 -8.68867e-04 -4.17864e-04
       H -1.07374e-03 -9.16836e-04  1.57615e-03
       C -1.70914e-04  2.11269e-04 -2.00265e-04
       H -1.04842e-03 -6.11567e-04 -1.33232e-03
       H -2.22490e-04 -8.51071e-05 -3.00482e-04
       C -1.92674e-04 -1.57252e-04 -2.95556e-04
       H -7.61435e-04 -5.28719e-05  1.83095e-03
       H -2.48723e-05  4.12421e-04  3.52904e-05
       C -1.07101e-04  1.78922e-04 -1.70402e-04
       H  5.59984e-04  2.03621e-04  1.20315e-03
       H -6.75296e-04  8.07098e-04 -1.15457e-03
       C  2.78944e-04 -7.21971e-05  1.76336e-04
       H  2.60402e-04 -2.32177e-04 -9.48339e-06
       H  2.42121e-04  1.78633e-04  3.96563e-04
       C  1.59387e-04 -4.66016e-04  4.59614e-04
       H  2.36986e-04 -6.88222e-04 -6.49554e-04
       H  1.04528e-03  4.23973e-04 -4.10582e-04
       C -1.87714e-04 -3.34392e-07  4.39939e-04
       H  4.18662e-04 -6.39637e-04 -4.39894e-04
       H -3.56176e-04 -9.21721e-04 -3.96309e-04
       C  2.54883e-04  1.29192e-04 -2.04748e-04
       H  7.43611e-04 -5.80582e-04  1.33850e-04
       H -7.04028e-04 -1.42068e-03 -2.22027e-04
       C -4.24357e-04 -1.87123e-04 -3.02605e-06
       H -1.64654e-03  3.06228e-05  1.99420e-03
       H -2.22040e-03 -6.41049e-04 -2.36374e-04
       C -1.79426e-04  1.01795e-04 -1.77004e-04
       H  1.01461e-03  3.49662e-04  5.12096e-04
       H  1.12201e-03 -1.37372e-05  7.99952e-04
       C  1.52746e-04 -3.81882e-04  6.00032e-05
       H -2.87531e-05  1.09015e-03 -6.29905e-04
       H -4.63112e-05 -9.11638e-04  8.21548e-04
       C  2.95107e-04  1.79329e-04 -2.23203e-05
       H -3.57308e-04 -5.06433e-04 -9.15410e-05
       H -4.62955e-04  5.42274e-04 -8.27525e-04
       C -5.92297e-05  2.24675e-04 -2.63059e-04
       H  1.59882e-04  1.48605e-05 -3.11720e-04
       H -6.83386e-04  6.06902e-05  7.55587e-04
       H -2.29392e-04  1.90377e-04 -9.27084e-04
       H -1.15829e-04 -7.79966e-04  1.00926e-04
       C -3.64379e-04  1.76645e-04 -7.91855e-05
       H -2.15759e-04 -1.62175e-03 -7.86284e-04
       H -9.74649e-04 -3.82174e-04  8.56511e-04
       C -2.18310e-04 -1.71285e-04 -2.58543e-04
       H  2.92614e-04  4.27106e-04  1.30278e-03
       H  6.18733e-04 -1.24538e-03 -7.43727e-04
       C -6.73113e-05  1.13899e-04  3.03922e-04
       H -3.94924e-04  6.85802e-04 -2.58592e-04
       H  6.81508e-04 -1.67797e-05  7.34055e-04
       C -5.70945e-05  1.19216e-04  1.06005e-04
       H  7.64461e-04  3.31221e-04  1.83906e-04
       H -7.76119e-04 -3.49500e-04  1.24347e-03
       C -3.19541e-05 -7.25800e-05  3.15564e-04
       H -1.02840e-04 -1.37825e-04  5.70707e-04
       H  3.29041e-04  3.07323e-04  2.12523e-04
       C  8.29475e-05 -3.14653e-04 -6.44884e-06
       H  1.02954e-03 -5.70784e-04  7.44177e-04
       H -7.74754e-04 -6.79707e-04 -4.66359e-04
       C  1.94078e-04 -2.44292e-04  3.38689e-04
       H  7.47523e-04  2.41919e-04  1.90784e-04
       H -2.61527e-04  9.03276e-04 -1.38948e-03
       C -2.29986e-04 -3.32676e-04 -7.48366e-05
       H  1.35104e-03  1.36890e-04 -1.00960e-03
       H -1.68752e-03 -6.22873e-05  1.77566e-04
       C  1.70395e-04  8.88521e-06 -1.88237e-05
       H  8.85840e-04 -6.13697e-04 -4.59111e-05
       H -1.08241e-03  4.69017e-04 -5.32206e-05
       C -3.34067e-04 -2.00849e-04  4.26598e-04
       H  6.87951e-04 -9.06069e-05 -1.11559e-04
       H  7.46207e-05 -6.58440e-04 -4.83382e-04
       C -1.92919e-05 -2.02241e-04  2.94115e-04
       H -1.41323e-04 -8.37278e-04 -2.03249e-04
       H -7.18199e-04  1.75070e-04 -1.55322e-03
       C  6.19457e-04 -3.02648e-04  5.39924e-04
       H -4.34705e-04  1.12796e-03  7.84350e-04
       H  6.98486e-04  2.83129e-04 -6.17685e-04
       H  5.71406e-04 -3.43257e-04 -9.75295e-05
       H  7.03950e-04 -1.50381e-04  1.27651e-03
       C -1.29418e-04 -5.35777e-05  2.10709e-04
       H -1.40047e-03  1.30541e-04  4.73062e-04
       H -3.76563e-04 -7.39027e-04  8.75747e-04
       C -2.69407e-04 -1.43301e-04  1.40277e-04
       H  2.21658e-04 -9.24471e-05  1.03927e-03
       H  1.79092e-03  8.49295e-05  1.07534e-03
       C -1.16662e-04 -1.61639e-04  1.06369e-04
       H  5.32011e-04  6.97390e-05  8.33638e-04
       H  1.01650e-05  6.03925e-04  5.42752e-04
       C  4.65186e-04  2.47711e-06  4.85656e-05
       H  4.24540e-04  2.00137e-04 -3.31907e-04
       H -5.98110e-04 -2.75476e-05 -1.16955e-04
       C  3.36968e-05 -1.89693e-04 -8.60084e-05
       H -2.19679e-04 -7.85685e-04 -8.16672e-04
       H  6.57239e-04 -4.54259e-04  2.68488e-04
       C  5.05381e-04 -1.99542e-04 -3.20534e-04
       H -6.99558e-04 -5.78869e-05  5.97608e-04
       H  2.11539e-03 -7.06887e-04  3.07224e-04
       C -4.13939e-06  1.98392e-04  3.94238e-04
       H  8.16831e-05 -9.31490e-04  3.92301e-05
       H -8.27690e-04  1.10930e-03  1.61998e-03
       C -2.39487e-04 -3.21251e-04  5.95217e-05
       H  6.71953e-04  1.80043e-04 -1.20423e-04
       H -1.05690e-03  1.33371e-04 -4.22273e-06
       C -1.57540e-04 -2.11034e-04 -2.96177e-04
       H  5.33463e-04 -1.28449e-03  1.57742e-03
       H  7.10860e-04 -3.62510e-04  7.44808e-04
       C -2.14627e-04  1.64399e-04 -3.03878e-04
       H -5.80366e-04  1.68031e-03  5.64515e-04
       H  3.56707e-04  9.47533e-05 -1.56689e-04
       C -1.25786e-04  2.05285e-04  2.04551e-04
       H  7.65988e-04  5.94742e-04  1.62097e-03
       H -6.10639e-04  2.20134e-04 -2.93175e-04
       C  1.34294e-04 -1.53375e-05  4.05865e-04
       H -9.79544e-04  1.31251e-03 -6.89991e-06
       H  1.85941e-04  1.25234e-03  3.57055e-05
       H -9.74697e-04 -5.20273e-04 -8.29702e-04
       H  3.17817e-05  5.28160e-04 -1.31418e-03
       C -7.69312e-06 -1.73171e-05  3.76005e-04
       H -8.69720e-04  3.87100e-04 -3.97534e-04
       H  4.02035e-04 -1.02985e-05 -4.19439e-04
       C -4.20485e-05  1.54267e-04 -2.08119e-05
       H -1.05793e-04 -4.06308e-04 -7.00204e-04
       H -6.51270e-04 -7.03676e-04 -6.45668e-04
       C -2.30094e-04 -3.11620e-05  2.02849e-04
       H  2.98274e-04  1.30121e-04 -6.57453e-04
       H -5.37163e-04  5.20485e-04  3.46762e-05
       C -2.31886e-04  2.96841e-04  1.85537e-04
       H  6.14944e-05  1.55533e-03 -2.96756e-04
       H -8.08750e-04  1.00254e-04  1.46730e-03
       C -1.58996e-04 -9.76521e-05 -9.95262e-06
       H -6.80037e-04  9.62614e-04 -7.15436e-04
       H  3.77377e-04 -2.81366e-04  7.69201e-04
       C  2.07452e-04  2.36983e-04  3.40254e-04
       H  6.96503e-04  1.43101e-03  7.23029e-05
       H  1.48853e-03 -9.50746e-05 -1.09167e-04
       C -6.44373e-06 -3.73779e-04  2.35783e-04
       H -8.64259e-04 -1.05479e-03  8.56997e-05
       H -9.84926e-05 -7.35739e-04 -3.93951e-04
       C -2.92984e-04 -4.90635e-04 -3.02200e-04
       H  1.10048e-04 -4.92988e-05 -4.20008e-04
       H  1.01828e-04 -2.01398e-03 -4.36397e-04
       C  6.16041e-05 -7.74944e-05  6.75233e-05
       H  4.95303e-05 -1.36796e-04 -9.23854e-04
       H  4.95601e-04  5.32251e-04 -3.97060e-04
       C  5.22098e-06 -1.39467e-04 -1.89326e-04
       H -2.65987e-06  8.56411e-04  2.28224e-04
       H -6.17053e-04 -7.43743e-05 -7.44529e-04
       C -2.08687e-04 -1.39227e-04 -3.21321e-04
       H  3.29475e-04  4.55409e-04  3.71538e-04
       H -9.78821e-04 -1.08357e-03 -1.34511e-04
       C -1.58829e-04 -4.58705e-04  1.43536e-04
       H  1.43711e-03  1.21672e-04  1.00502e-03
       H  2.28874e-04 -3.13502e-04 -8.80568e-04
       H  7.67016e-04 -4.92862e-04  9.74609e-05
       H  1.15830e-04  5.31758e-04  5.04297e-04
       C -1.77555e-05 -1.45293e-05  1.72320e-05
       H  4.90704e-04 -1.22716e-03 -4.04551e-04
       H -5.09212e-05 -6.29624e-04 -1.64496e-03
       C -1.79310e-04  2.49603e-04  4.08482e-04
       H  1.17443e-04 -1.00618e-04  2.16053e-04
       H -2.87680e-04 -7.18820e-05  8.14164e-04
       C  3.45166e-04  1.32246e-05  1.35435e-04
       H  3.63007e-04  1.09928e-03 -6.32149e-04
       H  4.96910e-04 -3.09173e-04  5.08088e-04
       C -1.56396e-04  1.29251e-05 -2.89174e-05
       H -2.98462e-04  8.29108e-04  5.42831e-04
       H  9.93594e-04 -3.64571e-05  9.20893e-04
       C -6.52391e-04  1.02557e-04 -6.21421e-04
       H -2.93450e-04  6.22907e-04 -3.68780e-04
       H  9.61994e-04  3.37361e-04  7.84705e-04
       C  1.09916e-04 -3.02137e-04 -1.67911e-04
       H  4.57483e-04  9.13236e-04  1.40551e-05
       H -4.26771e-04 -1.10857e-03 -7.66530e-04
       C  1.50146e-04  5.45050e-05  8.49180e-05
       H -1.33385e-03  1.25156e-03 -2.59057e-04
       H -1.01141e-03 -4.36175e-04 -4.16016e-04
       C  1.80345e-04  9.47363e-06  2.26247e-04
       H -7.48944e-04  9.69682e-05 -1.10676e-04
       H  1.44775e-03 -4.12980e-04 -1.65430e-03
       C -8.33871e-06  2.04423e-04 -7.11046e-06
       H -7.52679e-04  5.06524e-04 -1.07188e-03
       H -7.78414e-05 -1.94168e-05 -7.66862e-04
       C  1.73554e-04 -8.98312e-05  1.19523e-04
       H -1.46034e-04 -2.83646e-04  4.59432e-04
       H  1.26192e-04  2.84644e-04 -1.00843e-03
       C  6.40488e-05 -2.49766e-05 -1.53886e-04
       H  3.93862e-04  1.51994e-04  6.99510e-04
       H -3.59191e-04 -7.23615e-04 -2.52391e-04
       C  1.02725e-04  9.85067e-05  2.22346e-04
       H -6.77941e-04 -8.26126e-04 -3.00988e-04
       H -8.76219e-04  1.79266e-05  3.48886e-04
       H -5.09506e-04 -3.89028e-04  1.23538e-04
       H  7.59896e-04 -3.20013e-04  5.24370e-04
       C -2.99186e-04 -1.35192e-04  5.70355e-05
       H  8.95559e-04  8.03352e-04 -9.16325e-04
       H -3.32303e-04 -4.73605e-04  6.22738e-04
       C  5.90254e-05 -7.61784e-05  1.20609e-04
       H -2.71970e-04 -8.53886e-04  6.18719e-05
       H  7.15155e-04  1.71312e-03  1.05779e-04
       C  2.15376e-04  7.49765e-05  1.29401e-04
       H -2.87457e-04  6.91588e-05  1.40766e-04
       H  9.53575e-04 -2.60954e-04  6.35086e-04
       C  1.55324e-04 -3.01697e-05 -2.45832e-04
       H  4.05747e-04  4.78039e-04  1.13458e-03
       H  3.37076e-04  3.87769e-04 -6.16154e-04
       C -6.82398e-06  7.86115e-04 -1.43633e-04
       H -5.27894e-04  8.07279e-04  4.81468e-04
       H -1.04311e-03  4.18082e-04 -8.12287e-05
       C  1.42524e-04 -3.46531e-04  3.40450e-04
       H -1.54824e-04 -1.09402e-03  8.45098e-05
       H  4.67336e-04 -1.70747e-04 -2.84284e-04
       C -7.23455e-05 -8.28397e-05  1.25558e-04
       H  8.49245e-04 -4.91142e-04  3.67991e-04
       H  1.45728e-03 -1.84599e-03 -2.77162e-04
       C -1.62710e-04 -1.24293e-04 -1.63025e-04
       H  8.46256e-04 -3.57658e-04 -7.25650e-05
       H -4.47527e-05 -1.53542e-03 -1.71606e-04
       C  1.52351e-04  6.78570e-05  4.28135e-04
       H -2.71219e-04 -7.59630e-04  1.48298e-03
       H  4.11504e-04 -1.40874e-05  7.48629e-04
       C  2.38995e-04 -2.36907e-05 -1.70663e-04
       H  3.92507e-04  1.52308e-03  4.98150e-04
       H -5.29901e-04  3.24796e-05  8.54085e-04
       C -2.13838e-04  1.62241e-04  1.60200e-04
       H -1.62348e-03  6.50588e-04  3.17176e-04
       H  4.84075e-04  1.06111e-03 -6.90853e-04
       C  4.19727e-05 -1.91884e-04 -2.06116e-04
       H  7.85447e-05  3.57404e-04  9.91071e-05
       H -5.71898e-04  6.44136e-04  2.74006e-04
       H -7.47431e-04 -2.12614e-04  1.44051e-03
       H -4.65488e-04 -5.43774e-04  6.29592e-04
       C -5.12762e-05  5.08540e-04 -9.65955e-06
       H -5.28040e-04 -1.53573e-03 -1.93695e-04
       H  3.62461e-07 -1.52923e-03  1.46609e-04
       C  2.82151e-04  6.40437e-05 -1.15979e-04
       H  7.45827e-04 -7.61115e-04  3.60099e-04
       H -1.90290e-04  4.94497e-04  5.69385e-04
       C  1.45411e-04 -1.10954e-05  1.20090e-04
       H  6.65822e-04 -4.10656e-04 -8.42891e-04
       H  5.40211e-04  7.65991e-04 -9.36317e-04
       C -2.05042e-04  1.12733e-04  8.30008e-05
       H -1.02190e-04 -4.49083e-04 -2.03381e-04
       H  1.19341e-03 -2.61108e-04 -6.11252e-04
       C -1.04896e-04  1.68864e-04  4.68333e-04
       H  1.25888e-04  7.03928e-04  7.03502e-04
       H  6.33944e-05 -6.36353e-04  8.61726e-04
       C  1.66612e-05 -3.19980e-04 -8.44861e-05
       H -2.84754e-04 -2.96505e-05  9.31902e-04
       H -3.19312e-04 -1.13291e-03  2.79719e-04
       C  4.95018e-05 -5.57296e-05 -2.97929e-04
       H  9.85248e-04  1.43039e-03  2.88630e-05
       H  3.94566e-04 -1.13249e-03  3.18698e-06
       C -1.80200e-04  7.61217e-06  1.40576e-04
       H  5.14763e-06 -4.90824e-04  2.78264e-04
       H  9.72391e-06 -9.03741e-04 -6.10940e-06
       C -1.37393e-04  5.39734e-05 -8.79481e-05
       H  8.05471e-06  1.98132e-05  3.37077e-04
       H  4.46428e-04 -1.43134e-03  7.34182e-04
       C  1.25198e-04 -4.87198e-05 -2.74056e-04
       H -3.38712e-04 -9.55872e-04  5.05378e-04
       H  4.95960e-04  1.66237e-04 -1.79921e-04
       C  2.33856e-04  8.39366e-05  4.28984e-05
       H -5.71537e-04 -7.33825e-04  6.23556e-04
       H -7.42424e-04  7.61856e-04  1.86844e-04
       C -2.01125e-04 -2.76226e-04  2.37547e-04
       H  3.63202e-04 -2.12191e-04  2.74635e-04
       H -1.43488e-03 -7.08748e-04  5.38539e-04
       H -3.09591e-04  5.72015e-04 -3.66571e-04
       H -7.03785e-04  4.75063e-04 -1.17939e-04
       C -2.62840e-04  2.92248e-04  1.21180e-05
       H  1.43743e-04  1.28049e-03  8.30278e-04
       H  1.24812e-03 -1.82618e-04 -2.63907e-04
       C -1.26165e-04 -9.20047e-05  2.07457e-04
       H  7.24646e-04  1.12269e-04  9.48776e-04
       H -2.11854e-04 -6.72893e-04  1.29572e-04
       C -5.33184e-06 -4.09371e-04  1.89076e-05
       H  4.10440e-04 -1.05433e-03  3.16774e-05
       H -7.49547e-04 -5.92594e-05 -2.42561e-04
       C -1.94647e-04 -5.13867e-05 -1.37876e-04
       H -5.40842e-04  1.19982e-03  9.03163e-04
       H -9.48177e-06  9.45193e-05  2.89427e-04
       C -1.77596e-04  3.08269e-04 -4.69733e-05
       H -1.49583e-04  4.29481e-04  5.11989e-04
       H  5.26309e-04 -3.85920e-04 -6.18288e-04
       C -8.90054e-06  6.47463e-05 -3.67255e-05
       H -2.69426e-04 -1.15870e-03 -6.36821e-04
       H -1.39200e-04  2.11250e-04  7.38758e-04
       C  3.44989e-04 -7.49871e-05 -2.37694e-04
       H -2.87076e-04 -1.00129e-03 -1.96629e-04
       H -4.87764e-04 -1.09526e-03 -5.53118e-05
       C  1.48331e-05  3.04607e-04  2.41801e-04
       H  4.66364e-04 -1.09589e-03  2.00440e-04
       H  3.73383e-04 -2.53987e-04 -5.53819e-05
       C  2.83163e-05 -5.91414e-05  1.40019e-04
       H -2.10393e-04  5.39733e-04 -9.05481e-04
       H -2.01267e-04 -4.78011e-05  6.52788e-04
       C  2.04024e-04  9.59221e-05 -2.82333e-04
       H -3.92578e-04  3.30791e-04 -8.90461e-04
       H -4.79373e-04  6.05801e-04  1.49826e-04
       C -3.30163e-05 -2.26919e-04  1.62784e-04
       H  4.03331e-04 -1.74462e-04  2.76142e-04
       H -2.49802e-04  1.02065e-04 -3.34237e-05
       C -4.38978e-04  1.78126e-04  2.26028e-04
       H  4.48354e-04  9.39416e-04 -1.69149e-03
       H -1.05873e-03  4.26219e-05 -2.96776e-04
       H  8.17004e-04 -1.25167e-04  1.94333e-03
       H -2.05848e-04  7.78937e-04  1.06590e-03
       C  2.61753e-04  1.08421e-04  5.96876e-05
       H -1.07504e-03  1.12109e-03 -1.44035e-03
       H  9.89669e-06  9.66136e-04 -9.38190e-04
       C  7.81771e-05  4.05227e-04 -5.72158e-05
       H -7.50821e-06  1.03666e-03  9.25010e-04
       H  3.49337e-04 -6.89760e-04 -4.41184e-04
       C -2.33869e-04 -2.79853e-05 -4.29497e-05
       H  4.89338e-04  1.65250e-03  7.18394e-04
       H -1.32213e-03  1.05526e-03 -2.74042e-04
       C -2.32772e-04 -7.51992e-05  4.03949e-06
       H  7.25382e-04 -3.98680e-04 -7.02148e-04
       H -5.68013e-04  2.12902e-04 -2.14538e-04
       C  9.94150e-05  2.04016e-04 -3.41710e-04
       H  8.35841e-04  3.87435e-04  1.55933e-04
       H  7.93841e-04 -4.13744e-04  8.90436e-04
       C -7.48135e-05  2.74135e-04 -1.39481e-04
       H  1.49703e-03 -2.30706e-04  5.73952e-04
       H  6.12090e-04  3.03770e-04 -3.19486e-04
       C  6.31659e-05  4.78528e-05 -2.97742e-04
       H -3.72947e-04 -6.93818e-04  3.64263e-04
       H  6.74731e-04  6.97747e-04  1.86825e-04
       C  2.44105e-04 -5.46275e-05  2.32221e-05
       H -1.38016e-05  8.51642e-04 -2.22765e-05
       H  6.31059e-04 -7.68984e-04 -1.62494e-03
       C  5.27752e-05  4.39892e-04  2.28589e-04
       H  1.11105e-03 -1.47131e-03 -5.43636e-04
       H  5.93173e-04 -8.30995e-04  5.93002e-04
       C  6.63425e-05  2.21170e-04  2.56670e-04
       H -2.49378e-04  1.00686e-03  3.58211e-04
       H -1.63555e-04 -1.34443e-03  7.75998e-04
       C  2.53677e-05  1.45873e-04 -6.17841e-06
       H  1.66348e-04  3.23390e-05 -8.88959e-04
       H -4.66505e-04  8.53540e-05  3.71150e-04
       C -1.25964e-04 -1.52895e-04 -1.70120e-04
       H -9.94003e-04 -1.01931e-03  2.29436e-05
       H  1.77778e-04  5.17131e-04 -1.46755e-04
       H  2.58994e-04  7.79851e-04 -1.41123e-03
       H -3.72714e-05  1.01213e-03  1.38471e-04
       C  1.41900e-04  3.73663e-05  4.82498e-05
       H -7.65566e-04  4.57420e-04  2.05583e-04
       H -5.30360e-04  4.70008e-04  4.07706e-05
       C -2.21814e-04 -9.33760e-05  6.62886e-05
       H  9.70778e-04  1.18971e-04  1.76379e-04
       H  1.20495e-03 -3.27170e-04 -2.93255e-05
       C -1.87575e-04 -1.19001e-05 -1.51994e-04
       H  1.14629e-03 -3.00235e-04 -1.06104e-04
       H -3.00347e-05  1.98933e-04 -2.44053e-04
       C  1.93109e-04  1.52228e-05 -1.02170e-04
       H -2.86449e-04 -1.12799e-05  7.69449e-04
       H -1.15936e-04 -4.58613e-04 -8.24726e-04
       C -4.69655e-04 -9.57157e-05  3.92083e-04
       H  1.10620e-03 -5.65920e-04  2.96155e-04
       H  2.32368e-05 -6.03060e-04 -9.54256e-04
       C  1.41692e-04  1.50949e-04  3.80399e-04
       H  9.70563e-04 -4.81366e-04 -1.16323e-03
       H -9.48466e-04  9.62352e-04 -3.68020e-04
       C -9.68775e-05 -5.42573e-06 -1.05889e-04
       H -3.95151e-04 -4.14881e-04  1.11119e-04
       H  2.13957e-04  1.03319e-03  2.12925e-04
       C  1.04051e-04 -1.23353e-04  1.22165e-05
       H -2.62084e-04  2.15485e-04 -1.78594e-04
       H  4.52136e-04  1.01063e-03 -8.84331e-04
       C -2.35165e-05 -1.01744e-04 -3.40938e-04
       H  9.98401e-04  1.62972e-03 -5.29911e-04
       H  3.09867e-04 -4.08009e-04 -7.69279e-04
       C -2.12159e-04 -1.68813e-04 -1.11474e-04
       H -6.28836e-04 -6.78978e-05  2.74244e-05
       H -1.97229e-05  4.15346e-04  4.25970e-04
       C -2.16072e-04 -2.78736e-04 -1.21206e-05
       H -1.39563e-04 -2.03978e-04 -6.66999e-04
       H -7.55214e-05  1.11126e-03 -1.94561e-04
       C -2.20566e-04  1.50828e-04  7.64610e-04
       H  7.42151e-04  5.44701e-04  2.37330e-04
       H  1.06330e-03 -2.48373e-04  5.75901e-04
       H  1.77531e-04 -1.49618e-03  6.63835e-04
       H  2.35373e-04  1.01080e-04 -2.08811e-04
       C -5.15745e-04  1.29976e-04 -5.56577e-06
       H  1.44995e-04 -3.05545e-05 -6.46538e-04
       H -5.17704e-05 -7.04526e-04 -1.12483e-03
       C -6.71031e-06 -2.86445e-04 -4.54983e-05
       H -4.53491e-04  4.25335e-04 -3.00034e-04
       H -3.87569e-04  6.98175e-05  7.83423e-04
       C  2.20228e-04 -2.21032e-04  3.39833e-05
       H  2.54861e-04 -5.80302e-04 -9.19100e-04
       H  7.31554e-05 -4.57553e-04 -5.43423e-04
       C  1.22867e-04 -4.37677e-04 -1.76269e-04
       H  4.11377e-04  3.30692e-04 -5.06694e-04
       H -1.21963e-03 -3.07593e-04 -7.25997e-04
       C  1.75297e-04 -4.86604e-05  1.03475e-04
       H  7.32403e-04  2.08630e-05  7.62269e-04
       H -1.12802e-03 -1.50395e-03 -1.08604e-03
       C  1.20295e-04 -2.20678e-05 -4.81629e-04
       H -4.17714e-04  5.11804e-04  1.51474e-04
       H  7.36763e-04  7.97703e-05  1.22312e-05
       C  1.41170e-04 -3.60026e-04  1.39057e-04
       H -1.00863e-03  4.42667e-04  7.54738e-04
       H  5.38933e-04  8.67421e-04 -8.51477e-04
       C  1.50352e-04 -1.63504e-05 -1.52121e-04
       H  4.43932e-04  7.04139e-04  8.91921e-04
       H  3.60386e-04  8.71781e-04  1.22728e-03
       C -3.03222e-05  1.82862e-04  9.82960e-05
       H  3.00738e-04 -2.38500e-04  1.98553e-04
       H -5.90606e-04 -1.21289e-03 -1.18663e-03
       C  1.27702e-04  2.15751e-04 -4.50154e-05
       H -1.09974e-04 -2.50104e-04  9.28403e-04
       H -8.65178e-04 -2.20208e-04  2.59298e-04
       C -4.07532e-04  2.06045e-04  3.49019e-04
       H -8.97846e-04  1.49219e-04  6.40438e-04
       H  1.93258e-04 -4.84204e-04  3.00767e-04
       C  1.25769e-04 -1.32308e-04 -1.28900e-04
       H  8.59794e-04  8.85542e-04 -4.33102e-04
       H  2.42921e-05 -1.64907e-04 -7.92720e-04
       H  1.81749e-03 -1.86323e-03  6.68469e-04
       H -1.66240e-04  5.35475e-04 -8.62522e-04
       C  1.37517e-04 -8.82693e-05  1.54170e-04
       H -1.20792e-04  1.89741e-03 -1.06305e-03
       H  1.93995e-05  6.21022e-04  2.17467e-04
       C  5.69546e-04  3.49130e-04 -1.71768e-04
       H  4.05984e-04  6.04136e-05 -1.26931e-04
       H -2.13574e-05 -1.11103e-04 -9.84897e-04
       C  1.35988e-04 -4.76040e-05 -7.95830e-05
       H  2.08196e-03  8.18505e-04  3.94977e-04
       H  3.34307e-04  4.31997e-05 -1.08384e-03
       C -1.18273e-04 -1.82937e-04  1.70155e-04
       H  1.24675e-04 -6.43760e-04 -5.78724e-05
       H -4.11874e-04  1.06208e-05 -3.41139e-04
       C -1.33982e-05 -1.76699e-04  3.65322e-05
       H  2.07733e-04 -7.47086e-04  3.27846e-05
       H -7.26683e-04  9.69623e-04 -1.62698e-04
       C  2.45435e-05 -8.27019e-06  7.16665e-05
       H -1.05604e-03 -5.46799e-04 -1.89017e-04
       H -1.33311e-04  4.12323e-04  1.10462e-03
       C  2.20150e-04 -3.25829e-05  3.92604e-05
       H  6.22240e-05 -1.37368e-04 -2.05836e-04
       H  1.23823e-03 -1.22127e-03 -4.55845e-04
       C -1.47261e-04 -1.44351e-04 -8.73944e-05
       H  1.44636e-03  4.13534e-04 -4.99755e-04
       H  2.50954e-04  1.67705e-04 -9.19498e-04
       C  9.16353e-05  1.31750e-06 -3.31165e-05
       H -4.27768e-04  3.14807e-04  5.83717e-04
       H  4.05568e-04 -1.02767e-03  1.01402e-03
       C  5.06313e-04 -1.74157e-04  9.78831e-05
       H -1.46668e-05 -6.44338e-04 -1.02218e-06
       H  1.00234e-03 -2.72184e-04  4.63234e-04
       C -1.91666e-04  9.18909e-05  1.82199e-04
       H  2.36652e-04  1.44503e-03  1.08365e-03
       H  5.37994e-04  7.41387e-04  2.24112e-04
       C -2.68582e-04  1.67161e-04  2.62850e-04
       H -1.15697e-04  4.68160e-05  8.75987e-04
       H  6.04125e-05 -4.02551e-06  3.07549e-04
       H  7.04793e-04  3.67987e-04 -7.31926e-04
       H -1.09155e-03 -1.20276e-03 -2.41414e-04
       C  4.39697e-04 -5.25884e-04 -2.77664e-05