                  Welcome to Q-Chem
     A Quantum Leap Into The Future Of Chemistry


 Q-Chem 5.4 (devel), Q-Chem, Inc., Pleasanton, CA (2021)

 E. Epifanovsky,  A. T. B. Gilbert,  Xintian Feng,  Joonho Lee,  Yuezhi Mao,  
 N. Mardirossian,  P. Pokhilko,  A. White,  M. Wormit,  M. P. Coons,  
 A. L. Dempwolff,  Zhengting Gan,  D. Hait,  P. R. Horn,  L. D. Jacobson,  
 I. Kaliman,  J. Kussmann,  A. W. Lange,  Ka Un Lao,  D. S. Levine,  Jie Liu,  
 S. C. McKenzie,  A. F. Morrison,  K. Nanda,  F. Plasser,  D. R. Rehn,  
 M. L. Vidal,  Zhi-Qiang You,  Ying Zhu,  B. Alam,  B. Albrecht,  
 A. Aldossary,  E. Alguire,  J. H. Andersen,  D. Barton,  K. Begam,  A. Behn,  
 Y. A. Bernard,  E. J. Berquist,  H. Burton,  A. Carreras,  K. Carter-Fenk,  
 R. Chakraborty,  A. D. Chien,  K. D. Closser,  V. Cofer-Shabica,  
 S. Dasgupta,  Jia Deng,  M. de Wergifosse,  M. Diedenhofen,  Hainam Do,  
 S. Ehlert,  Po-Tung Fang,  S. Fatehi,  Qingguo Feng,  T. Friedhoff,  
 J. Gayvert,  Qinghui Ge,  G. Gidofalvi,  M. Goldey,  J. Gomes,  
 C. Gonzalez-Espinoza,  S. Gulania,  A. Gunina,  M. W. D. Hanson-Heine,  
 P. H. P. Harbach,  A. W. Hauser,  M. F. Herbst,  M. Hernandez Vera,  
 M. Hodecker,  Z. C. Holden,  S. Houck,  Xunkun Huang,  Kerwin Hui,  
 B. C. Huynh,  M. Ivanov,  Hyunjun Ji,  Hanjie Jiang,  B. Kaduk,  S. Kaehler,  
 K. Khistyaev,  Jaehoon Kim,  P. Klunzinger,  Z. Koczor-Benda,  
 Joong Hoon Koh,  D. Kosenkov,  L. Koulias,  T. Kowalczyk,  C. M. Krauter,  
 K. Kue,  A. Kunitsa,  T. Kus,  A. Landau,  K. V. Lawler,  D. Lefrancois,  
 S. Lehtola,  Rain Li,  Yi-Pei Li,  Jiashu Liang,  M. Liebenthal,  
 Hung-Hsuan Lin,  You-Sheng Lin,  Fenglai Liu,  Kuan-Yu Liu,  
 M. Loipersberger,  A. Luenser,  A. Manjanath,  P. Manohar,  E. Mansoor,  
 S. F. Manzer,  Shan-Ping Mao,  A. V. Marenich,  T. Markovich,  S. Mason,  
 S. A. Maurer,  P. F. McLaughlin,  M. F. S. J. Menger,  J.-M. Mewes,  
 S. A. Mewes,  P. Morgante,  J. W. Mullinax,  K. J. Oosterbaan,  G. Paran,  
 Alexander C. Paul,  Suranjan K. Paul,  F. Pavosevic,  Zheng Pei,  S. Prager,  
 E. I. Proynov,  E. Ramos,  B. Rana,  A. E. Rask,  A. Rettig,  R. M. Richard,  
 F. Rob,  E. Rossomme,  T. Scheele,  M. Scheurer,  M. Schneider,  
 N. Sergueev,  S. M. Sharada,  W. Skomorowski,  D. W. Small,  C. J. Stein,  
 Yu-Chuan Su,  E. J. Sundstrom,  Zhen Tao,  J. Thirman,  T. Tsuchimochi,  
 N. M. Tubman,  S. P. Veccham,  O. Vydrov,  J. Wenzel,  J. Witte,  A. Yamada,  
 Kun Yao,  S. Yeganeh,  S. R. Yost,  A. Zech,  Igor Ying Zhang,  Xing Zhang,  
 Yu Zhang,  D. Zuev,  A. Aspuru-Guzik,  A. T. Bell,  N. A. Besley,  
 K. B. Bravaya,  B. R. Brooks,  D. Casanova,  Jeng-Da Chai,  S. Coriani,  
 C. J. Cramer,  A. E. DePrince, III,  R. A. DiStasio Jr.,  A. Dreuw,  
 B. D. Dunietz,  T. R. Furlani,  W. A. Goddard III,  S. Grimme,  
 S. Hammes-Schiffer,  T. Head-Gordon,  W. J. Hehre,  Chao-Ping Hsu,  
 T.-C. Jagau,  Yousung Jung,  A. Klamt,  Jing Kong,  D. S. Lambrecht,  
 WanZhen Liang,  N. J. Mayhall,  C. W. McCurdy,  J. B. Neaton,  
 C. Ochsenfeld,  J. A. Parkhill,  R. Peverati,  V. A. Rassolov,  Yihan Shao,  
 L. V. Slipchenko,  T. Stauch,  R. P. Steele,  J. E. Subotnik,  
 A. J. W. Thom,  A. Tkatchenko,  D. G. Truhlar,  T. Van Voorhis,  
 T. A. Wesolowski,  K. B. Whaley,  H. L. Woodcock III,  P. M. Zimmerman,  
 S. Faraji,  P. M. W. Gill,  M. Head-Gordon,  J. M. Herbert,  A. I. Krylov

 Additional authors for Version 5.4.1: 
 S. Kotaru,  Shaozhi Li,  Xiangyuan Li,  F. Matz,  A. Molle,  Haisheng Ren,  
 Yingli Su,  Hung-Yi Tsai,  C. Utku,  Fang Wang

 Contributors to earlier versions of Q-Chem not listed above: 
 R. D. Adamson,  B. Austin,  R. Baer,  J. Baker,  G. J. O. Beran,  
 K. Brandhorst,  S. T. Brown,  E. F. C. Byrd,  A. K. Chakraborty,  
 G. K. L. Chan,  Chun-Min Chang,  Yunqing Chen,  C.-L. Cheng,  
 Siu Hung Chien,  D. M. Chipman,  D. L. Crittenden,  H. Dachsel,  
 R. J. Doerksen,  A. D. Dutoi,  R. G. Edgar,  J. Fosso-Tande,  
 L. Fusti-Molnar,  D. Ghosh,  A. Ghysels,  A. Golubeva-Zadorozhnaya,  
 J. Gonthier,  M. S. Gordon,  S. R. Gwaltney,  G. Hawkins,  J. E. Herr,  
 A. Heyden,  S. Hirata,  E. G. Hohenstein,  G. Kedziora,  F. J. Keil,  
 C. Kelley,  Jihan Kim,  R. A. King,  R. Z. Khaliullin,  P. P. Korambath,  
 W. Kurlancheek,  A. Laurent,  A. M. Lee,  M. S. Lee,  S. V. Levchenko,  
 Ching Yeh Lin,  D. Liotard,  E. Livshits,  R. C. Lochan,  I. Lotan,  
 L. A. Martinez-Martinez,  P. E. Maslen,  N. Nair,  D. P. O'Neill,  
 D. Neuhauser,  E. Neuscamman,  C. M. Oana,  R. Olivares-Amaya,  R. Olson,  
 T. M. Perrine,  B. Peters,  P. A. Pieniazek,  A. Prociuk,  Y. M. Rhee,  
 J. Ritchie,  M. A. Rohrdanz,  E. Rosta,  N. J. Russ,  H. F. Schaefer III,  
 M. W. Schmidt,  N. E. Schultz,  S. Sharma,  N. Shenvi,  C. D. Sherrill,  
 A. C. Simmonett,  A. Sodt,  T. Stein,  D. Stuck,  K. S. Thanthiriwatte,  
 V. Vanovschi,  L. Vogt,  Tao Wang,  A. Warshel,  M. A. Watson,  
 C. F. Williams,  Q. Wu,  X. Xu,  Jun Yang,  W. Zhang,  Yan Zhao

 Please cite Q-Chem as follows:
 Y. Shao et al., Mol. Phys. 113, 184-215 (2015)
 DOI: 10.1080/00268976.2014.952696

 Q-Chem 5.4.1 for Intel X86 EM64T Linux

 Parts of Q-Chem use Armadillo 9.900.5 (Nocturnal Misbehaviour).
 http://arma.sourceforge.net/

 Q-Chem begins on Wed Jun  1 23:30:23 2022  

 Host: p09r14n13.grace.hpc.yale.internal
0

     Scratch files written to /home/tl686/scratch60/qchem_dev/scratch/qchem244051//
 Processing $rem in /home/tl686/qchem_dev/qchem/config/preferences:
 Processing $rem in /home/tl686/.qchemrc:
Applying user defined connections for MM calculations

 Checking the input file for inconsistencies... 	...done.

--------------------------------------------------------------
User input:
--------------------------------------------------------------
$molecule
0   1
 Fe 380.49724989 40.03989893 60.45950034    -1  0   0   0   0
C 379.52301046 36.90550160 59.78769963    -2  0   0   0   0 
C 381.34269270 43.27627053 61.30633397    -2  0   0   0   0
C 383.55324544 38.86846611 61.30064603    -2  0   0   0   0
C 380.13224812 40.74172374 57.19150929    -2  0   0   0   0
C 378.25625775 40.08201512 62.91979240    -2  0   0   0   0
O 378.60648002 34.97808209 59.20225348    -3  0   0   0   0
O 381.86853018 45.41004498 61.65208011    -3  0   0   0   0 
O 385.64604192 37.92464388 61.29584321    -3  0   0   0   0
O 380.48907177 41.02784248 55.02767791    -3  0   0   0   0 
O 377.00220616 40.00266327 64.84789123    -3  0   0   0   0
H 402.15762404 18.71367516 48.24403690      6     13    0    0    0 
C 401.34166122 18.03954141 46.50863570     1     12    14    15    16
H 402.96696541 17.95760039 45.16628392     6     13    0    0    0
H 400.49574821 16.29219768 46.78067241     6     13    0    0    0
C 399.52990346 19.85187572 45.31968184     2     13    17    18    19
H 400.35721481 21.64226777 45.19139270     6     16    0    0    0
H 399.40374992 19.38168072 43.25076292     6     16    0    0    0
C 396.86026589 20.09522625 46.27636255     2     16    20   21   22
H 396.01001028 18.31358200 46.31294075     6     19    0    0    0
H 396.87249784 20.77721862 48.28117256     6     19    0    0    0
C 395.29684783 21.89607414 44.45336296     2     19   23   24   25
H 396.14831011 23.68750508 44.93747307     6    22    0    0    0
H 395.78232011 21.40469944 42.52061287     6    22    0    0    0
C 392.45447981 21.83673213 44.83469373     2    22   26   27   28
H 391.66079986 19.94738123 44.48950120     6    25    0    0    0
H 392.12435142 22.28527888 46.83879613     6    25    0    0    0
C 391.05394060 23.87967660 43.03705042     2    25   29   30   31
H 391.96801878 25.94184932 42.90753935     6    28    0    0    0
H 391.16480099 23.09640769 41.04538356     6    28    0    0    0
C 388.20599033 24.27462528 43.64130619     2    28   32   33   34
H 387.20793285 22.48418900 43.63908195     6    31    0    0    0
H 387.81440413 25.39517265 45.47067698     6    31    0    0    0
C 386.86386412 25.61231028 41.37153243     2    31   35   36   37
H 388.20622558 27.30746606 41.10881256     6    34    0    0    0
H 387.04690125 24.45062672 39.74281336     6    34    0    0    0
C 384.24173771 26.64800662 41.86557698     2    34   38   39   40
H 382.74508503 25.55683635 42.83941786     6    37    0    0    0
H 384.29201826 28.22573994 43.30098229     6    37    0    0    0
C 383.04540826 27.81815173 39.35554444     2    37   41   42   43
H 384.14499948 29.41058684 38.97606981     6    40    0    0    0
H 383.21019945 26.70669042 37.78848069     6    40    0    0    0
C 380.31141192 28.70606908 39.41440305     2    40   44   45   46
H 379.07788685 27.01558242 39.36835161     6    43    0    0    0
H 380.18381153 29.74215515 41.18905149     6    43    0    0    0
C 379.52620764 30.39045691 37.10266900     1    43   47   48   49
H 380.88969626 31.91227603 36.74545014     6    46    0    0    0
H 377.67206815 31.13809708 37.41934287     6    46    0    0    0
H 379.47368887 29.25708493 35.40028665     6    46    0    0    0
H 374.41743845 35.01734518 53.14873769     6     51    0    0    0 
C 375.47249503 35.71683554 51.44954664     1     50    52    53    54
H 374.25302360 36.99845203 50.18983479     6     51    0    0    0
H 376.82324199 37.11191807 52.29629464     6     51    0    0    0
C 376.73467876 33.50049422 50.06966140     2     51    55    56    57
H 378.21403785 32.88768734 51.35923212     6     54    0    0    0
H 375.36067431 31.98339660 49.85544614     6     54    0    0    0
C 378.03715131 33.98177088 47.58089152     2     54    58   59   60
H 379.06374543 35.75837366 47.80814661     6     57    0    0    0
H 379.36479752 32.51336829 47.03061425     6     57    0    0    0
C 376.22353399 34.39942117 45.42769746     2     57   61   62   63
H 374.69605090 32.90047970 45.24137262     6    60    0    0    0
H 375.23483595 36.04162974 45.89907316     6    60    0    0    0
C 377.37593190 34.89589687 42.79349627     2    60   64   65   66
H 378.17927048 36.75048278 42.65625920     6    63    0    0    0
H 378.81625569 33.49517549 42.33574461     6    63    0    0    0
C 375.29343527 34.55703816 40.86589801     2    63   67   68   69
H 376.18342474 34.53203403 39.06233895     6    66    0    0    0
H 374.32511009 32.70984854 41.08739844     6    66    0    0    0
C 372.99356311 36.40832149 41.18796924     2    66   70   71   72
H 372.02169163 35.83035456 42.87358864     6    69    0    0    0
H 373.65956589 38.37081849 41.49853717     6    69    0    0    0
C 371.06245769 36.09537465 38.97546993     2    69   73   74   75
H 371.78722560 36.76372822 37.10650570     6    72    0    0    0
H 370.38805139 34.04821584 38.87553514     6    72    0    0    0
C 368.74127404 37.80647187 39.50746986     2    72   76   77   78
H 367.41439103 36.59463231 40.48518010     6    75    0    0    0
H 369.37177874 39.43540484 40.60041961     6    75    0    0    0
C 367.48129691 38.71201375 37.00526372     2    75   79   80   81
H 368.90713900 39.86643018 36.00665167     6    78    0    0    0
H 366.84362744 37.11077359 35.80301184     6    78    0    0    0
C 365.14711905 40.43536844 37.55655482     2    78   82   83   84
H 363.80542827 39.50072784 38.81026452     6    81    0    0    0
H 365.68063550 42.09373027 38.60968031     6    81    0    0    0
C 363.61481410 41.12847056 35.23905705     1    81   85   86   87
H 362.14252464 42.34919165 35.23728090     6    84    0    0    0
H 362.89425541 39.41414392 34.25735135     6    84    0    0    0
H 365.01306275 42.16401280 33.97667214     6    84    0    0    0
H 410.90290092 44.74364853 35.54172370     6     89    0    0    0 
C 409.28723604 43.97580236 36.38883911     1     88    90    91    92
H 409.49156123 43.43317631 38.33364342     6     89    0    0    0
H 408.04220193 45.48267542 36.60191612     6     89    0    0    0
C 408.16324590 41.78806298 34.91277018     2     89    93    94    95
H 408.57451372 42.27379448 32.91274604     6     92    0    0    0
H 409.27098363 40.00354449 35.34732367     6     92    0    0    0
C 405.27415247 41.15836025 35.23508907     2     92    96   97   98
H 404.96305883 40.81890734 37.20036822     6     95    0    0    0
H 403.92326621 42.79884604 34.85014896     6     95    0    0    0
C 404.60228656 38.68490770 33.77635852     2     95   99   100   101
H 405.10922569 38.72712866 31.78236514     6    98    0    0    0
H 405.53182342 36.96463527 34.63526022     6    98    0    0    0
C 401.81397825 38.04923010 33.56936068     2    98   102   103   104
H 400.83225737 37.75345187 35.49237594     6    101    0    0    0
H 400.91495134 39.64676046 32.62682546     6    101    0    0    0
C 401.37896618 35.69547492 31.95654897     2    101   105   106   107
H 402.07338525 35.67618813 30.03945454     6    104    0    0    0
H 402.05260808 34.01217883 32.93385143     6    104    0    0    0
C 398.50632942 35.40070955 31.81726524     2    104   108   109   110
H 397.62183971 35.91111020 33.67266118     6    107    0    0    0
H 397.86204109 36.82801420 30.56751652     6    107    0    0    0
C 397.89449240 32.78722408 30.65626270     2    107   111   112   113
H 399.05187218 32.42994130 28.96878217     6    110    0    0    0
H 398.50147088 31.32243342 32.10451106     6    110    0    0    0
C 395.11839485 32.42122264 30.01514404     2    110   114   115   116
H 394.27917544 32.49935529 31.86164868     6    113    0    0    0
H 394.58710931 33.71046293 28.71764132     6    113    0    0    0
C 394.56078153 29.87607928 28.71020008     2    113   117   118   119
H 395.45565414 29.84213407 26.88359417     6    116    0    0    0
H 395.68067973 28.51399728 29.63572295     6    116    0    0    0
C 391.69193549 28.99333870 28.63226653     2    116   120   121   122
H 391.05161525 29.15823194 30.63452924     6    119    0    0    0
H 390.54661558 30.46832533 27.70962394     6    119    0    0    0
C 391.15996754 26.39840588 27.67420619     1    119   123   124   125
H 389.09638647 26.04775979 27.62256246     6    122    0    0    0
H 392.06276017 24.84551534 28.62116673     6    122    0    0    0
H 392.07049920 26.26575662 25.85489320     6    122    0    0    0
H 407.29531056 34.36451072 47.51035589     6     127    0    0    0 
C 406.36821774 35.67652599 48.89897352     1     126    128    129    130
H 407.64175532 37.32907439 49.22089759     6     127    0    0    0
H 404.61554841 36.55988200 48.09425837     6     127    0    0    0
C 405.60893556 34.30676158 51.30016205     2     127    131    132    133
H 404.42198578 32.89398885 50.48551846     6     130    0    0    0
H 407.07371621 33.16914689 52.22802166     6     130    0    0    0
C 403.93703062 35.70641998 53.30271627     2     130    134   135   136
H 405.21013556 37.00230983 54.17159208     6     133    0    0    0
H 402.58474746 36.92278327 52.30827168     6     133    0    0    0
C 402.84429380 34.13545995 55.42049393     2     133   137   138   139
H 401.66227365 32.52678272 54.74266295     6    136    0    0    0
H 404.40374772 33.12256764 56.51112435     6    136    0    0    0
C 401.49718039 35.88015687 57.31764613     2    136   140   141   142
H 402.64691033 37.39280603 57.99851532     6    139    0    0    0
H 399.75355632 36.60341640 56.43719739     6    139    0    0    0
C 400.49290105 34.48369908 59.64532256     2    139   143   144   145
H 399.12733668 33.20600487 58.95740552     6    142    0    0    0
H 401.78033337 33.17494756 60.49896054     6    142    0    0    0
C 399.72440397 36.18893795 61.77921078     2    142   146   147   148
H 401.40544056 37.03971022 62.56881495     6    145    0    0    0
H 398.55315767 37.76539882 61.19123438     6    145    0    0    0
C 398.43099663 34.48925886 63.96090322     2    145   149   150   151
H 397.21263011 33.04032895 63.06458086     6    148    0    0    0
H 399.84999050 33.38476118 65.04776361     6    148    0    0    0
C 396.89451064 35.98208443 66.02110241     2    148   152   153   154
H 397.82140348 37.64676003 66.67835374     6    151    0    0    0
H 395.09948090 36.67537376 65.31122231     6    151    0    0    0
C 396.31783294 34.25664883 68.40903574     2    151   155   156   157
H 394.47163479 34.77176676 69.26275241     6    154    0    0    0
H 395.93132800 32.24227912 68.00668404     6    154    0    0    0
C 398.58926370 34.08773800 70.16407741     2    154   158   159   160
H 399.73323380 32.60787530 69.38842553     6    157    0    0    0
H 399.56349340 35.86388156 70.08288588     6    157    0    0    0
C 397.96642096 33.55314808 72.92611429     1    157   161   162   163
H 396.94413091 35.31971991 73.36260977     6    160    0    0    0
H 399.61681969 33.39118973 74.13662111     6    160    0    0    0
H 396.68484786 31.94098190 73.22401556     6    160    0    0    0
H 402.52743442 63.13073456 32.64726519     6     165    0    0    0 
C 402.99978145 64.01785533 34.44797958     1     164    166    167    168
H 404.12051566 65.50583098 33.67964338     6     165    0    0    0
H 401.28738057 64.81504146 35.33703035     6     165    0    0    0
C 404.24723109 62.14553500 36.34222774     2     165    169    170    171
H 402.93052681 60.74417301 36.93568230     6     168    0    0    0
H 405.63885188 61.10523602 35.06703496     6     168    0    0    0
C 405.41933444 63.64405041 38.72430173     2     168    172   173   174
H 406.73977407 65.06897394 38.01889288     6     171    0    0    0
H 403.96469511 64.81478304 39.46860627     6     171    0    0    0
C 406.72184897 61.75312185 40.76447573     2     171   175   176   177
H 405.29236838 60.36339951 41.44990315     6    174    0    0    0
H 408.24877196 60.93325410 39.82744899     6    174    0    0    0
C 407.72252709 63.29366102 42.97699869     2    174   178   179   180
H 409.36261872 64.38702911 42.50258815     6    177    0    0    0
H 406.30515985 64.63672049 43.52501954     6    177    0    0    0
C 408.41546496 61.53768215 45.25129131     2    177   181   182   183
H 407.00409102 60.18993629 45.43705316     6    180    0    0    0
H 410.22046460 60.62920635 44.87625296     6    180    0    0    0
C 408.47796006 63.17137082 47.78058431     2    180   184   185   186
H 409.73027326 64.74266447 47.62847659     6    183    0    0    0
H 406.52502472 63.80862606 47.94143182     6    183    0    0    0
C 409.02181849 61.36990827 49.87219798     2    183   187   188   189
H 407.84835821 59.61572832 49.80550460     6    186    0    0    0
H 410.95878773 60.74558463 49.79790846     6    186    0    0    0
C 408.59068548 62.52137564 52.45255813     2    186   190   191   192
H 409.84304537 64.12562091 52.56359332     6    189    0    0    0
H 406.72726985 63.16872167 52.42220331     6    189    0    0    0
C 409.09500913 60.65519442 54.69040900     2    189   193   194   195
H 407.55945046 59.35039439 54.89377312     6    192    0    0    0
H 410.76715132 59.42546990 54.71125900     6    192    0    0    0
C 409.12028720 62.10279167 57.21822261     2    192   196   197   198
H 410.89552495 63.28460797 57.45102434     6    195    0    0    0
H 407.35074967 63.18556828 57.14372717     6    195    0    0    0
C 409.22312130 60.48955919 59.64429737     1    195   199   200   201
H 408.97680737 61.71237381 61.29904589     6    198    0    0    0
H 410.98720334 59.41658044 59.76085444     6    198    0    0    0
H 407.76639967 59.10905927 59.68451489     6    198    0    0    0
H 390.27008067 72.41175811 37.78971687     6     203    0    0    0 
C 389.10334671 71.51805172 36.41719523     1     202    204    205    206
H 389.42961723 72.10280284 34.46327573     6     203    0    0    0
H 389.42873155 69.47825489 36.23050821     6     203    0    0    0
C 386.41086228 72.20566030 37.22188522     2     203    207    208    209
H 386.34786514 74.18592562 37.80808628     6     206    0    0    0
H 385.11358006 71.88120734 35.69476302     6     206    0    0    0
C 385.89573850 70.70165049 39.58434678     2     206    210   211   212
H 386.19125502 68.76073872 39.12268780     6     209    0    0    0
H 387.24532891 70.74066952 41.13147963     6     209    0    0    0
C 383.24111136 71.38892608 40.62746307     2     209   213   214   215
H 383.43932414 73.05138173 41.80023382     6    212    0    0    0
H 381.88667824 71.73159843 39.35013650     6    212    0    0    0
C 382.28841178 69.51277877 42.61647305     2    212   216   217   218
H 382.97983211 67.71289644 42.13715939     6    215    0    0    0
H 383.23926593 69.90861560 44.42693245     6    215    0    0    0
C 379.37793720 69.49936757 42.76475446     2    215   219   220   221
H 378.65699651 71.43506586 42.91152550     6    218    0    0    0
H 378.57435964 68.81366376 41.00730458     6    218    0    0    0
C 378.39736331 67.91534117 44.97833296     2    218   222   223   224
H 378.75223703 66.03846014 44.48433825     6    221    0    0    0
H 379.43556181 68.44308536 46.72845298     6    221    0    0    0
C 375.67221821 68.54266643 45.40350133     2    221   225   226   227
H 375.25434680 70.45985727 45.99327076     6    224    0    0    0
H 374.60616543 68.41939896 43.74238909     6    224    0    0    0
C 374.44012632 66.67777518 47.32280124     2    224   228   229   230
H 374.64768013 64.67581888 47.01402464     6    227    0    0    0
H 375.23442562 67.24783974 49.08096498     6    227    0    0    0
C 371.57921207 67.15208965 47.26200495     2    227   231   232   233
H 370.94917013 69.11789760 47.12355761     6    230    0    0    0
H 370.84734034 66.39180514 45.42877286     6    230    0    0    0
C 370.25256389 65.84507135 49.51356295     2    230   234   235   236
H 370.39327219 63.75536504 49.32164842     6    233    0    0    0
H 371.04798605 66.29065421 51.30626175     6    233    0    0    0
C 367.30454808 66.41649576 49.77885317     1    233   237   238   239
H 366.57104724 65.67413208 51.58497274     6    236    0    0    0
H 366.18243307 65.67773141 48.35106542     6    236    0    0    0
H 367.07189497 68.47452987 49.90375946     6    236    0    0    0
H 377.89581674 29.12132249 29.87536407     6     241    0    0    0 
C 377.41718180 31.17198765 30.15778827     1     240    242    243    244
H 377.68375012 31.43173952 32.14219321     6     241    0    0    0
H 378.97025982 31.96214428 29.18417837     6     241    0    0    0
C 374.63610504 31.75792393 29.31658971     2     241    245    246    247
H 374.56975479 31.75323842 27.13405994     6     244    0    0    0
H 373.28073836 30.42173670 30.03291886     6     244    0    0    0
C 373.77052423 34.43296516 29.83299947     2     244    248   249   250
H 374.10076484 35.01431489 31.73465694     6     247    0    0    0
H 375.13533273 35.79112362 28.78118942     6     247    0    0    0
C 370.99568858 35.14527549 29.43913949     2     247   251   252   253
H 370.88717211 37.17188567 29.69577393     6    250    0    0    0
H 370.40724712 34.96304883 27.50294346     6    250    0    0    0
C 369.04902207 33.81767273 30.99361344     2    250   254   255   256
H 369.08033900 31.97332068 30.39085614     6    253    0    0    0
H 369.64293598 33.83517643 33.01539142     6    253    0    0    0
C 366.26517827 34.74265248 30.70025622     2    253   257   258   259
H 366.41626992 36.80952894 30.94015419     6    256    0    0    0
H 365.48064865 34.41537925 28.85803250     6    256    0    0    0
C 364.43027618 33.44455431 32.48110597     2    256   260   261   262
H 364.98270444 31.58029633 32.27966898     6    259    0    0    0
H 364.71169181 33.95011134 34.48523092     6    259    0    0    0
C 361.58766010 34.06317473 32.10150774     2    259   263   264   265
H 361.09884891 35.95259551 32.30440633     6    262    0    0    0
H 361.06025830 33.76817943 30.13702958     6    262    0    0    0
C 359.77581578 32.66769256 33.89790011     2    262   266   267   268
H 360.02167261 30.59914544 33.94141060     6    265    0    0    0
H 359.89611640 33.52510207 35.83098290     6    265    0    0    0
C 357.13892505 32.91169872 32.70809263     2    265   269   270   271
H 356.61130573 34.91528744 32.52839720     6    268    0    0    0
H 357.16242500 32.00565825 30.84187832     6    268    0    0    0
C 355.24128962 31.38496241 34.18541242     2    268   272   273   274
H 355.81890757 29.48347778 33.99946409     6    271    0    0    0
H 355.22537036 31.88114625 36.17556138     6    271    0    0    0
C 352.61504673 31.41976878 33.04676747     1    271   275   276   277
H 351.95947402 33.35104017 32.62976181     6    274    0    0    0
H 351.24063463 30.63870341 34.44235286     6    274    0    0    0
H 352.37839806 30.23114243 31.40835223     6    274    0    0    0
H 398.73018434 59.37554432 31.28596213     6     279    0    0    0 
C 397.91524382 57.38724857 31.22691668     1     278    280    281    282
H 397.52557497 56.88477427 29.19204174     6     279    0    0    0
H 399.52230024 56.22013591 31.61079991     6     279    0    0    0
C 395.87321331 57.06235900 33.12116914     2     279    283    284    285
H 396.64466676 57.14833784 34.93352279     6     282    0    0    0
H 394.54005539 58.57512130 32.85954292     6     282    0    0    0
C 394.97540973 54.24936310 32.87139212     2     282    286   287   288
H 394.03638567 53.96523182 31.11494781     6     285    0    0    0
H 396.72451446 53.01368692 32.84020819     6     285    0    0    0
C 393.38511217 53.45982808 35.01272780     2     285   289   290   291
H 393.45379006 51.43733809 34.84777445     6    288    0    0    0
H 394.14103594 54.07627425 36.83165008     6    288    0    0    0
C 390.62523510 54.51015473 34.63121431     2    288   292   293   294
H 390.58564032 56.47883430 35.12453218     6    291    0    0    0
H 390.12705054 54.30016135 32.71661180     6    291    0    0    0
C 388.69395179 53.12588845 36.32425374     2    291   295   296   297
H 388.74296582 51.06661631 36.30121894     6    294    0    0    0
H 388.86612743 53.46270247 38.42701614     6    294    0    0    0
C 385.96390738 53.89676714 35.74287399     2    294   298   299   300
H 385.74119210 55.90143083 36.15322122     6    297    0    0    0
H 385.46045132 53.57293646 33.76004138     6    297    0    0    0
C 384.09784118 52.53000142 37.48235136     2    297   301   302   303
H 384.40115257 50.56347529 37.66777135     6    300    0    0    0
H 384.33057529 53.32203018 39.36936299     6    300    0    0    0
C 381.29950285 53.05805161 36.61354122     2    300   304   305   306
H 381.18983040 55.04080949 36.62334813     6    303    0    0    0
H 381.11988838 52.39429209 34.77907342     6    303    0    0    0
C 379.37299869 51.52541566 38.21141883     2    303   307   308   309
H 379.75752899 49.56507872 37.58921323     6    306    0    0    0
H 379.89580251 51.49154151 40.18050728     6    306    0    0    0
C 376.56258061 51.88982794 37.68256349     2    306   310   311   312
H 376.13517747 50.81912553 35.99093051     6    309    0    0    0
H 375.26642913 51.04920188 39.17918421     6    309    0    0    0
C 375.86066512 54.61188557 37.30635169     1    309   313   314   315
H 373.93403066 54.85828892 36.59641555     6    312    0    0    0
H 376.94411652 55.68473133 35.85284014     6    312    0    0    0
H 375.91608220 55.32170199 39.37985808     6    312    0    0    0
H 399.50758360 36.41202586 42.01352211     6     317    0    0    0 
C 397.96689894 37.55404787 41.76113313     1     316    318    319    320
H 398.28279235 39.57504845 42.00303774     6     317    0    0    0
H 397.31816951 37.20265832 39.80790940     6     317    0    0    0
C 396.00714907 36.50119083 43.61002490     2     317    321    322    323
H 394.08641329 37.54166781 43.48696495     6     320    0    0    0
H 395.62126839 34.45522700 43.49358852     6     320    0    0    0
C 396.94772583 36.94698203 46.30749197     2     320    324   325   326
H 398.99748550 36.45188187 46.56287724     6     323    0    0    0
H 396.56480676 38.88794585 46.80650210     6     323    0    0    0
C 395.19096766 35.56171258 48.20838575     2     323   327   328   329
H 393.36529121 36.23146831 48.22638439     6    326    0    0    0
H 394.93015794 33.66730366 47.56740628     6    326    0    0    0
C 396.46074131 35.43055279 50.83100074     2    326   330   331   332
H 398.57501163 35.10160334 50.75290313     6    329    0    0    0
H 396.29902550 37.37156771 51.58251484     6    329    0    0    0
C 395.61287334 33.46925038 52.79167895     2    329   333   334   335
H 395.79666576 31.53097463 52.20345476     6    332    0    0    0
H 396.87091295 33.63247590 54.55800291     6    332    0    0    0
C 392.89854832 34.18946475 53.53273126     2    332   336   337   338
H 392.92994081 36.15240272 54.00091079     6    335    0    0    0
H 391.70065037 33.65907186 51.89055589     6    335    0    0    0
C 391.85910376 32.92711450 55.85706860     2    335   339   340   341
H 389.89502262 33.07556813 55.94700484     6    338    0    0    0
H 392.07220325 30.90441636 55.75596354     6    338    0    0    0
C 392.89326600 33.68413011 58.43043417     2    338   342   343   344
H 394.83924916 32.92683142 58.75725617     6    341    0    0    0
H 392.73183016 35.81750154 58.61350829     6    341    0    0    0
C 391.51035352 32.80137931 60.68463351     2    341   345   346   347
H 392.41133362 34.08199210 61.92628747     6    344    0    0    0
H 389.52616229 33.48007426 60.61855001     6    344    0    0    0
C 391.53714182 29.96799003 61.16547020     2    344   348   349   350
H 390.48220623 28.80003469 59.73034728     6    347    0    0    0
H 393.49819494 29.35948851 60.97364131     6    347    0    0    0
C 390.47988556 29.07320536 63.76098314     1    347   351   352   353
H 388.76704479 30.16690829 64.11688596     6    350    0    0    0
H 391.78544721 29.40024012 65.38269178     6    350    0    0    0
H 389.89763299 27.06272132 63.72790854     6    350    0    0    0
H 378.86318162 37.58300471 32.74085832     6     355    0    0    0 
C 379.86221603 38.06725182 34.49652527     1     354    356    357    358
H 378.22211919 38.28070322 35.84992940     6     355    0    0    0
H 380.89923732 36.33081718 34.96697782     6     355    0    0    0
C 381.42138868 40.35979523 34.38639859     2     355    359    360    361
H 382.41433762 40.39197466 32.57746236     6     358    0    0    0
H 380.23083791 41.96146633 34.41126522     6     358    0    0    0
C 383.32310104 40.55965086 36.64262143     2     358    362   363   364
H 382.10297199 41.03694629 38.29813267     6     361    0    0    0
H 384.08173343 38.68389340 37.24339530     6     361    0    0    0
C 385.38546344 42.67708005 36.15344821     2     361   365   366   367
H 386.36042702 42.35317485 34.36833567     6    364    0    0    0
H 384.46713076 44.67351827 36.18150230     6    364    0    0    0
C 387.11444412 42.65415935 38.40821637     2    364   368   369   370
H 386.13106476 42.84961159 40.10067217     6    367    0    0    0
H 388.26246565 40.96382498 38.45877389     6    367    0    0    0
C 388.94154941 45.01722327 38.24060247     2    367   371   372   373
H 389.78044042 45.04424394 36.36537341     6    370    0    0    0
H 387.84650161 46.80163772 38.41039592     6    370    0    0    0
C 390.86289730 45.10170933 40.43452043     2    370   374   375   376
H 389.91501770 45.34325031 42.17240181     6    373    0    0    0
H 391.88308040 43.26747315 40.42245286     6    373    0    0    0
C 392.88950885 47.28185112 40.03008444     2    373   377   378   379
H 393.44276061 46.82207471 38.09655781     6    376    0    0    0
H 391.77552923 49.09628316 40.20825125     6    376    0    0    0
C 395.16190726 47.21315543 41.88333643     2    376   380   381   382
H 394.50822109 47.43513262 43.81132647     6    379    0    0    0
H 396.15746773 45.41234415 41.70784543     6    379    0    0    0
C 397.27067535 49.16731672 41.60260405     2    379   383   384   385
H 398.09240749 48.82318954 39.78376403     6    382    0    0    0
H 396.34693082 50.98739305 41.67418220     6    382    0    0    0
C 399.01797032 49.04974210 43.80952086     2    382   386   387   388
H 398.73054313 50.78512701 44.97800254     6    385    0    0    0
H 398.31223820 47.64089519 45.10667781     6    385    0    0    0
C 401.72501238 48.35723317 42.70759038     1    385   389   390   391
H 402.43840118 49.86949564 41.46450956     6    388    0    0    0
H 401.79534429 46.56240305 41.72971264     6    388    0    0    0
H 403.15166229 48.25427414 44.25747985     6    388    0    0    0
H 376.85374996 30.38479437 80.04602782     6     393    0    0    0 
C 374.98477233 29.70193563 79.89201412     1     392    394    395    396
H 374.41461136 28.36210368 81.29987690     6     393    0    0    0
H 373.88875340 31.36059748 80.17032655     6     393    0    0    0
C 374.76312183 28.68526520 77.17899227     2     393    397    398    399
H 375.99038350 29.96372275 76.09988345     6     396    0    0    0
H 375.36240255 26.67641602 77.08309285     6     396    0    0    0
C 372.03119405 28.85349879 76.35383261     2     396    400   401   402
H 370.73029008 27.98291578 77.86392561     6     399    0    0    0
H 371.47136730 30.94039593 76.33237507     6     399    0    0    0
C 371.51316915 27.71660103 73.72388260     2     399   403   404   405
H 373.21585699 28.37778748 72.63568192     6    402    0    0    0
H 371.68926226 25.57999943 73.72994680     6    402    0    0    0
C 368.98304984 28.59478724 72.36249266     2    402   406   407   408
H 367.29545499 28.05804343 73.52659518     6    405    0    0    0
H 369.12223060 30.75571790 72.29401881     6    405    0    0    0
C 368.83231593 27.16234408 69.72699397     2    405   409   410   411
H 370.30040077 27.58634473 68.38823631     6    408    0    0    0
H 368.84839281 25.14083537 69.85616822     6    408    0    0    0
C 366.45127078 28.03543552 68.28975373     2    408   412   413   414
H 364.69861520 27.79506849 69.12724553     6    411    0    0    0
H 366.67511662 30.04809041 68.18527652     6    411    0    0    0
C 366.19310195 26.93171600 65.53495768     2    411   415   416   417
H 368.01030380 26.97477918 64.61926237     6    414    0    0    0
H 365.48004930 25.02482332 65.53952497     6    414    0    0    0
C 364.25709253 28.38781318 64.02860245     2    414   418   419   420
H 362.30083604 28.04849620 64.82835077     6    417    0    0    0
H 364.68433225 30.42956995 64.06962374     6    417    0    0    0
C 364.46505089 27.51189978 61.33289283     2    417   421   422   423
H 366.43905488 27.39870536 60.63702252     6    420    0    0    0
H 363.68074119 25.57674574 61.46188472     6    420    0    0    0
C 363.13745904 29.07333540 59.29719833     2    420   424   425   426
H 363.16787318 27.97200813 57.55901354     6    423    0    0    0
H 361.09627298 29.55509599 59.98767750     6    423    0    0    0
C 364.51979743 31.48215101 58.52481091     1    423   427   428   429
H 363.43761686 32.60362251 57.07239809     6    426    0    0    0
H 366.34515342 31.08702641 57.76931043     6    426    0    0    0
H 364.63765606 32.76140460 60.14588646     6    426    0    0    0
H 369.51558999 7.17950590 53.56678022     6     431    0    0    0 
C 369.47035025 9.08036543 52.69674966     1     430    432    433    434
H 370.15705334 9.10360506 50.73046192     6     431    0    0    0
H 367.43408406 9.70749863 52.74143289     6     431    0    0    0
C 370.99216582 10.89557073 54.49632037     2     431    435    436    437
H 370.50998404 12.87752082 53.99922980     6     434    0    0    0
H 370.32171702 10.64431066 56.46055378     6     434    0    0    0
C 373.83784108 10.73587670 54.19856750     2     434    438   439   440
H 374.46677656 8.72721813 54.06077644     6     437    0    0    0
H 374.39833193 11.46812463 52.30183469     6     437    0    0    0
C 375.25093290 12.57089612 55.91436308     2     437   441   442   443
H 377.26729102 12.44130050 55.57340302     6    440    0    0    0
H 374.46460252 14.56157133 55.58826836     6    440    0    0    0
C 374.75514136 11.87907012 58.67687216     2    440   444   445   446
H 372.76487573 11.61230345 59.13121118     6    443    0    0    0
H 375.73009702 10.19508731 59.06192162     6    443    0    0    0
C 375.49330507 13.73936276 60.70316860     2    443   447   448   449
H 377.37571745 14.20480410 60.42246682     6    446    0    0    0
H 374.48265952 15.47853256 60.53972038     6    446    0    0    0
C 375.09792968 12.73850614 63.38425608     2    446   450   451   452
H 373.25686660 11.98705066 63.78099699     6    449    0    0    0
H 376.46945797 11.28648135 63.87848931     6    449    0    0    0
C 375.40180382 14.72725728 65.42110276     2    449   453   454   455
H 376.83434842 16.08723893 64.83587869     6    452    0    0    0
H 373.56958220 15.68925168 65.42733884     6    452    0    0    0
C 376.13154137 13.60872220 68.09823203     2    452   456   457   458
H 374.70897516 12.17803923 68.77954945     6    455    0    0    0
H 377.95494401 12.74447171 68.04868704     6    455    0    0    0
C 375.97919845 15.62295382 70.06586274     2    455   459   460   461
H 376.43011047 14.52898692 71.70587026     6    458    0    0    0
H 377.20327915 17.22503616 69.42701204     6    458    0    0    0
C 373.18980089 16.32200580 70.52863235     2    458   462   463   464
H 372.09350150 16.87717137 68.77455840     6    461    0    0    0
H 372.09405585 14.73926003 71.16298179     6    461    0    0    0
C 372.99687189 18.24661648 72.53651026     1    461   465   466   467
H 373.56649165 20.14006251 72.03312127     6    464    0    0    0
H 374.19990329 17.46231534 74.01564581     6    464    0    0    0
H 371.06990178 18.54160467 73.30056177     6    464    0    0    0
H 398.81099808 47.74890362 33.33849816     6     469    0    0    0 
C 399.85408218 46.04302236 33.56714527     1     468    470    471    472
H 400.91171515 45.53108851 31.93592069     6     469    0    0    0
H 401.47092907 46.79030215 34.61309837     6     469    0    0    0
C 398.35774364 43.94427361 35.04866018     2     469    473    474    475
H 399.83732384 42.48361483 35.28135189     6     472    0    0    0
H 397.94129363 44.77232874 36.94826808     6     472    0    0    0
C 396.03548830 43.17748535 33.51217657     2     472    476   477   478
H 394.78077851 44.79214310 33.63529947     6     475    0    0    0
H 396.49139024 42.36184265 31.50800017     6     475    0    0    0
C 394.83041322 40.93885465 35.01086967     2     475   479   480   481
H 396.20530477 39.48249370 34.93046219     6    478    0    0    0
H 394.67271326 41.44252193 37.00575834     6    478    0    0    0
C 392.40182790 40.03802917 33.96076931     2    478   482   483   484
H 390.85567756 41.25958540 34.69943994     6    481    0    0    0
H 392.50830435 40.23042405 31.79759274     6    481    0    0    0
C 391.67150711 37.40846607 34.71961869     2    481   485   486   487
H 392.88131993 36.07650717 33.81390425     6    484    0    0    0
H 391.70161405 37.14538254 36.86072072     6    484    0    0    0
C 389.03493095 36.59281363 33.61768431     2    484   488   489   490
H 387.48950745 37.82315627 34.13202772     6    487    0    0    0
H 389.00120327 36.80937316 31.59320930     6    487    0    0    0
C 388.38314301 33.83995591 33.94231268     2    487   491   492   493
H 389.93876698 32.55165851 33.85214974     6    490    0    0    0
H 387.85790414 33.81232242 35.94877342     6    490    0    0    0
C 386.07544255 32.89561239 32.43367952     2    490   494   495   496
H 384.21990714 33.81180239 32.84057545     6    493    0    0    0
H 386.37844206 33.45007621 30.53497729     6    493    0    0    0
C 385.79086941 30.05327110 32.58083681     2    493   497   498   499
H 387.58750626 29.10072624 32.60059978     6    496    0    0    0
H 384.94920597 29.61388768 34.27467342     6    496    0    0    0
C 384.61175499 29.06335854 30.16127331     2    496   500   501   502
H 383.04549419 30.28020481 29.79132997     6    499    0    0    0
H 386.04333764 29.16244661 28.83913444     6    499    0    0    0
C 383.40393933 26.29521439 30.23271385     1    499   503   504   505
H 382.44672430 25.65176450 28.62664758     6    502    0    0    0
H 382.31202586 26.19801812 32.00094644     6    502    0    0    0
H 385.03351115 25.11599705 30.48469189     6    502    0    0    0
H 352.53799517 26.07591153 41.02227937     6     507    0    0    0 
C 354.63455905 26.27342942 41.49863940     1     506    508    509    510
H 355.68312464 24.80127315 40.36100211     6     507    0    0    0
H 355.23256052 28.23384103 41.23636226     6     507    0    0    0
C 354.84556697 25.74224548 44.37584652     2     507    511    512    513
H 354.20241429 27.59096466 45.22166527     6     510    0    0    0
H 353.51232075 24.24387141 44.84266861     6     510    0    0    0
C 357.47526244 25.34689460 45.39796268     2     510    514   515   516
H 358.31226353 23.95979188 44.23753766     6     513    0    0    0
H 358.55979956 27.06882985 45.02342006     6     513    0    0    0
C 357.44527833 24.58168384 48.19164621     2     513   517   518   519
H 356.55337499 26.20690077 49.22255759     6    516    0    0    0
H 356.34827758 22.96789263 48.49854454     6    516    0    0    0
C 360.13973686 23.83985378 49.06989304     2    516   520   521   522
H 360.90424280 22.30368155 47.95362854     6    519    0    0    0
H 361.35839357 25.32910241 48.19684221     6    519    0    0    0
C 360.12340643 23.09885834 51.92578272     2    519   523   524   525
H 359.80538915 24.58559800 53.26570498     6    522    0    0    0
H 358.60274106 21.78716105 52.42558836     6    522    0    0    0
C 362.47923245 21.63893149 52.75207758     2    522   526   527   528
H 362.54793475 19.84818690 51.61782418     6    525    0    0    0
H 364.13687072 22.73374111 52.35914256     6    525    0    0    0
C 362.57171348 21.08889990 55.47913894     2    525   529   530   531
H 363.01122810 22.73868396 56.50585897     6    528    0    0    0
H 360.67839331 20.48226263 56.08142756     6    528    0    0    0
C 364.43219691 18.96398249 55.96877983     2    528   532   533   534
H 363.47949980 17.27493815 55.32783451     6    531    0    0    0
H 366.13447840 18.89372955 54.79532739     6    531    0    0    0
C 365.25974351 18.83902657 58.78191318     2    531   535   536   537
H 366.29646668 20.48988749 59.22295788     6    534    0    0    0
H 363.54053923 19.06815172 59.96147761     6    534    0    0    0
C 366.81885583 16.50199198 59.50103835     2    534   538   539   540
H 365.82378217 14.64474193 59.05196651     6    537    0    0    0
H 368.78475078 16.74484193 58.80443685     6    537    0    0    0
C 367.21004834 16.31790291 62.45354436     1    537   541   542   543
H 368.38003336 14.67547872 62.96360598     6    540    0    0    0
H 365.39698759 16.23641145 63.58116388     6    540    0    0    0
H 368.04155692 18.04632836 63.28248048     6    540    0    0    0
H 380.80540144 29.52066599 65.65814981     6     545    0    0    0 
C 381.47261846 31.42265611 65.45310894     1     544    546    547    548
H 382.98523989 31.42242302 64.05669602     6     545    0    0    0
H 379.91234974 32.61123909 64.60010690     6     545    0    0    0
C 382.42484260 32.36550171 68.07979515     2     545    549    550    551
H 381.19613957 32.22795017 69.70991647     6     548    0    0    0
H 383.92894624 30.94847056 68.40218648     6     548    0    0    0
C 383.46763605 35.00664101 67.92874225     2     548    552   553   554
H 385.18145410 34.99354589 66.78251760     6     551    0    0    0
H 382.23271601 36.19852658 66.85601443     6     551    0    0    0
C 383.98895214 36.13946497 70.54877858     2     551   555   556   557
H 382.13539442 36.58380381 71.14467204     6    554    0    0    0
H 384.78061888 34.56119590 71.55845330     6    554    0    0    0
C 386.19887843 38.22231558 70.46072817     2    554   558   559   560
H 387.56078631 37.83541959 68.90807767     6    557    0    0    0
H 385.40532622 40.07662299 69.99313607     6    557    0    0    0
C 387.53852263 38.27880742 72.94271189     2    557   561   562   563
H 385.95106639 38.13388066 74.19739551     6    560    0    0    0
H 388.68832068 36.63953111 73.28711312     6    560    0    0    0
C 388.84670720 40.69677070 73.70734047     2    560   564   565   566
H 387.83955110 42.38311461 72.89680483     6    563    0    0    0
H 388.64068431 40.80785666 75.72759558     6    563    0    0    0
C 391.52122644 40.72746736 72.85125298     2    563   567   568   569
H 392.54936525 39.11005666 73.65313718     6    566    0    0    0
H 391.76049882 40.29962485 70.81609548     6    566    0    0    0
C 393.03013030 43.13014962 73.41998064     2    566   570   571   572
H 391.62624519 44.47322296 73.95149830     6    569    0    0    0
H 394.25907381 42.97242537 75.03928303     6    569    0    0    0
C 394.63720588 44.03522143 71.18450859     2    569   573   574   575
H 396.07039586 42.71686287 70.70903148     6    572    0    0    0
H 393.16050129 44.37626921 69.61871814     6    572    0    0    0
C 395.81316809 46.57234918 71.66288337     2    572   576   577   578
H 394.39039081 48.07209979 71.46591756     6    575    0    0    0
H 396.51949690 46.66868575 73.66985819     6    575    0    0    0
C 398.12995195 47.04003284 70.13518625     1    575   579   580   581
H 399.61486834 45.84954175 70.52451650     6    578    0    0    0
H 398.92286473 48.93698649 70.59710963     6    578    0    0    0
H 397.72384694 47.19056706 68.13958993     6    578    0    0    0
H 394.70335634 63.65417744 36.27869322     6     583    0    0    0 
C 395.40487831 63.70504017 38.22200565     1     582    584    585    586
H 396.76235575 65.15622796 38.20720733     6     583    0    0    0
H 393.83266415 64.48519977 39.36855706     6     583    0    0    0
C 396.82498546 61.34021489 39.22044574     2     583    587    588    589
H 395.46697279 59.72292859 39.10677488     6     586    0    0    0
H 398.37650484 60.82106376 38.04630707     6     586    0    0    0
C 397.93826864 61.67433683 41.76663137     2     586    590   591   592
H 399.07207329 63.22393230 42.08456546     6     589    0    0    0
H 396.41096970 62.06101376 43.06176568     6     589    0    0    0
C 399.58715876 59.38180719 42.64518937     2     589   593   594   595
H 398.59932366 57.68781563 42.26812705     6    592    0    0    0
H 401.27166654 59.20882987 41.38797610     6    592    0    0    0
C 400.42771476 59.57258513 45.33366190     2    592   596   597   598
H 401.50148973 61.33099127 45.75034997     6    595    0    0    0
H 398.78682312 59.74251662 46.53383446     6    595    0    0    0
C 401.64635793 57.25598273 46.38237057     2    595   599   600   601
H 400.48253664 55.76689948 45.68265640     6    598    0    0    0
H 403.50370389 57.11145823 45.44515717     6    598    0    0    0
C 402.44251981 57.23817442 49.27186616     2    598   602   603   604
H 404.20745954 58.20397385 49.56848479     6    601    0    0    0
H 401.18589633 57.98237290 50.79844051     6    601    0    0    0
C 403.08540701 54.58686499 50.00449396     2    601   605   606   607
H 401.32215174 53.56303334 49.58060061     6    604    0    0    0
H 404.52341810 53.96654704 48.68279417     6    604    0    0    0
C 404.22535300 54.08845480 52.64090217     2    604   608   609   610
H 406.00373987 55.12994673 53.04985721     6    607    0    0    0
H 402.77858540 54.75938077 53.98956656     6    607    0    0    0
C 404.73429438 51.15113547 52.90689493     2    607   611   612   613
H 402.99974753 50.21781963 52.40350104     6    610    0    0    0
H 406.11060914 50.65148963 51.44253740     6    610    0    0    0
C 405.44982844 50.22667223 55.52927010     2    610   614   615   616
H 407.17702870 51.02425912 56.25153455     6    613    0    0    0
H 404.07394503 50.94646918 56.80159024     6    613    0    0    0
C 405.71485752 47.36246173 55.65575575     1    613   617   618   619
H 406.65408500 46.90415931 57.47182637     6    616    0    0    0
H 406.81480018 46.56535595 54.07930011     6    616    0    0    0
H 403.88676737 46.36427421 55.76420821     6    616    0    0    0
H 371.15517025 50.33509385 68.52981767     6     621    0    0    0 
C 369.85352728 50.96649855 67.15286487     1     620    622    623    624
H 369.92745328 49.63998969 65.58873470     6     621    0    0    0
H 367.86889425 50.89271520 67.86381343     6     621    0    0    0
C 370.34046190 53.75340038 66.35540682     2     621    625    626    627
H 368.95262333 54.22731648 64.99080395     6     624    0    0    0
H 369.97606349 55.10725144 67.93177467     6     624    0    0    0
C 373.16714750 54.03531529 65.51646648     2     624    628   629   630
H 374.58109003 54.19098659 67.05612161     6     627    0    0    0
H 373.69200228 52.39629006 64.35675332     6     627    0    0    0
C 373.28309197 56.51630950 64.03189674     2     627   631   632   633
H 374.83947509 56.62059749 62.65201398     6    630    0    0    0
H 371.62837385 56.46464020 62.86120797     6    630    0    0    0
C 373.24593420 58.85287357 65.82585562     2    630   634   635   636
H 371.85154012 58.73601567 67.27232929     6    633    0    0    0
H 374.92156242 58.99275694 66.90421806     6    633    0    0    0
C 372.51776054 61.21651845 64.18701975     2    633   637   638   639
H 373.52255874 61.34167304 62.36662442     6    636    0    0    0
H 370.52934682 61.18701301 63.74174031     6    636    0    0    0
C 372.91921297 63.64409541 65.62763733     2    636   640   641   642
H 372.29756576 63.49128023 67.56945815     6    639    0    0    0
H 374.88240846 64.04565233 65.69825058     6    639    0    0    0
C 371.57533774 65.89657200 64.46591430     2    639   643   644   645
H 372.84104214 66.26621784 62.99225928     6    642    0    0    0
H 369.73425065 65.43005172 63.64614662     6    642    0    0    0
C 371.37429415 68.22886182 66.24419786     2    642   646   647   648
H 370.15676177 67.66930114 67.80016188     6    645    0    0    0
H 373.24589098 68.73079058 67.10702913     6    645    0    0    0
C 369.78653186 70.47075735 65.03754450     2    645   649   650   651
H 370.79699369 71.71101761 63.68447272     6    648    0    0    0
H 368.22521034 69.55206742 63.95363253     6    648    0    0    0
C 368.50148410 72.19616260 67.10787613     2    648   652   653   654
H 367.56896978 70.80827560 68.38315127     6    651    0    0    0
H 370.06353271 73.24071739 67.95849793     6    651    0    0    0
C 366.54457108 74.07898458 65.90547702     1    651   655   656   657
H 364.91296016 73.10485548 65.03481697     6    654    0    0    0
H 367.32011081 75.45233995 64.53935555     6    654    0    0    0
H 365.91951432 75.33942809 67.40818869     6    654    0    0    0
H 391.42735227 50.09292317 46.73143358     6     659    0    0    0 
C 392.54639536 51.75107100 46.26504250     1     658    660    661    662
H 394.55901355 51.23139126 46.05605477     6     659    0    0    0
H 391.81782415 52.74415417 44.56830390     6     659    0    0    0
C 392.47738065 53.64229198 48.32830311     2     659    663    664    665
H 393.90382266 55.15596202 48.08290297     6     662    0    0    0
H 390.63217768 54.44395896 48.35790419     6     662    0    0    0
C 392.72203649 52.68529504 51.01822696     2     662    666   667   668
H 392.27941232 54.42066251 52.15315629     6     665    0    0    0
H 391.41320434 51.16552545 51.40097734     6     665    0    0    0
C 395.40213272 51.59630411 51.34715338     2     665   669   670   671
H 395.74276983 49.87164711 50.03968061     6    668    0    0    0
H 396.75801414 53.14194930 50.92784241     6    668    0    0    0
C 395.74548238 50.99050775 54.19481997     2    668   672   673   674
H 395.31587030 52.82207399 55.19021301     6    671    0    0    0
H 394.29397846 49.69308520 54.64992982     6    671    0    0    0
C 398.21412585 49.95907487 54.91034785     2    671   675   676   677
H 398.80427928 48.37208413 53.73022537     6    674    0    0    0
H 399.75651448 51.39064744 54.68464049     6    674    0    0    0
C 398.52488136 49.05033187 57.74073420     2    674   678   679   680
H 400.30213810 49.34431702 58.30226638     6    677    0    0    0
H 397.50133052 50.36069611 58.99764014     6    677    0    0    0
C 397.78610936 46.29511769 58.33106885     2    677   681   682   683
H 395.66498335 46.17259900 58.28455030     6    680    0    0    0
H 398.57469615 45.16748759 56.84535716     6    680    0    0    0
C 398.44566186 45.50136835 61.07696048     2    680   684   685   686
H 397.92941277 46.87496955 62.49092186     6    683    0    0    0
H 397.46519503 43.75969331 61.53808796     6    683    0    0    0
C 401.38578874 45.09814111 61.52986570     2    683   687   688   689
H 401.91091741 43.72299194 60.08994038     6    686    0    0    0
H 402.45741283 46.80263976 61.19433758     6    686    0    0    0
C 401.84105385 44.12973914 64.25648214     2    686   690   691   692
H 401.35485290 45.35439124 65.86143099     6    689    0    0    0
H 400.48445176 42.70793175 64.69211623     6    689    0    0    0
C 404.56516913 43.19637415 64.64255059     1    689   693   694   695
H 405.90653705 44.76033478 64.60016412     6    692    0    0    0
H 405.17369082 41.87890731 63.18425011     6    692    0    0    0
H 404.70842747 42.40096388 66.49038490     6    692    0    0    0
H 382.12057181 37.72915443 86.70976464     6     697    0    0    0 
C 382.14927525 39.70540664 86.14009688     1     696    698    699    700
H 380.14798795 40.54605329 85.83264377     6     697    0    0    0
H 382.88289996 40.64339667 87.84120234     6     697    0    0    0
C 383.87290181 40.04769864 83.75615465     2     697    701    702    703
H 384.34370040 42.04976536 83.61480843     6     700    0    0    0
H 385.73190482 39.29366524 84.16095089     6     700    0    0    0
C 382.89027334 38.70551098 81.40993489     2     700    704   705   706
H 380.93866118 39.24718665 80.91005313     6     703    0    0    0
H 384.14282371 39.45881302 79.76460167     6     703    0    0    0
C 383.04644102 35.88673584 81.54224314     2     703   707   708   709
H 384.97035908 35.13091328 82.13444320     6    706    0    0    0
H 381.76068943 35.36341767 83.04872434     6    706    0    0    0
C 382.44401321 34.59335058 78.82041250     2    706   710   711   712
H 380.56321171 35.09861409 78.18693120     6    709    0    0    0
H 383.78915522 35.27172269 77.45752986     6    709    0    0    0
C 382.38802732 31.65905088 78.66682634     2    709   713   714   715
H 384.14029458 30.98451900 79.34463474     6    712    0    0    0
H 381.00865998 30.87028351 80.01352704     6    712    0    0    0
C 381.90672560 30.49267837 76.13894204     2    712   716   717   718
H 380.16372776 31.44413718 75.37165483     6    715    0    0    0
H 383.32957235 31.16241246 74.98695239     6    715    0    0    0
C 381.93596394 27.60535553 76.23761795     2    715   719   720   721
H 383.49707847 26.90060855 77.27417009     6    718    0    0    0
H 380.21437770 27.21810169 77.27326097     6    718    0    0    0
C 381.69093906 26.04846830 73.89392748     2    718   722   723   724
H 379.74399343 26.20772183 73.07980999     6    721    0    0    0
H 382.87850112 26.71431311 72.35725821     6    721    0    0    0
C 382.23573198 23.16639147 74.58975206     2    721   725   726   727
H 383.99406936 23.03933668 75.70299640     6    724    0    0    0
H 380.71688694 22.37848303 75.77416163     6    724    0    0    0
C 382.43535223 21.45198227 72.28640565     2    724   728   729   730
H 383.84576060 22.00583632 71.03663244     6    727    0    0    0
H 382.49369458 19.41143954 72.83601940     6    727    0    0    0
C 380.24999693 21.60322205 70.48019734     1    727   731   732   733
H 380.69891005 20.03561129 69.22290886     6    730    0    0    0
H 380.00649068 23.28526607 69.46047730     6    730    0    0    0
H 378.59737605 21.06157348 71.53755865     6    730    0    0    0
H 409.50988547 29.70765008 37.22272305     6     735    0    0    0 
C 408.24024285 30.35896400 35.70712032     1     734    736    737    738
H 409.02527180 31.59599401 34.28719406     6     735    0    0    0
H 407.67416970 28.57244469 34.99719993     6     735    0    0    0
C 405.84994566 31.58504737 36.69546586     2     735    739    740    741
H 406.53161265 33.16840655 37.91848294     6     738    0    0    0
H 404.74011906 32.51505165 35.18036918     6     738    0    0    0
C 404.22266223 29.91440633 38.27748838     2     738    742   743   744
H 403.54251475 28.30126713 37.21701439     6     741    0    0    0
H 405.36130048 29.29648038 39.89125248     6     741    0    0    0
C 401.98588009 31.38516451 39.37977317     2     741   745   746   747
H 402.91400460 32.86079154 40.40545144     6    744    0    0    0
H 401.12719039 32.30201189 37.83179288     6    744    0    0    0
C 400.09132444 30.11684833 41.24119480     2    744   748   749   750
H 401.22535495 29.73584497 42.82942107     6    747    0    0    0
H 398.85277058 31.66018629 41.95167460     6    747    0    0    0
C 398.81703058 27.88230773 40.05997397     2    747   751   752   753
H 400.25543646 26.41133024 39.61077354     6    750    0    0    0
H 397.68891674 27.06805901 41.51958239     6    750    0    0    0
C 397.08408721 28.35350174 37.78982963     2    750   754   755   756
H 395.46854618 29.56240759 38.38472401     6    753    0    0    0
H 398.25336331 29.17016392 36.30298084     6    753    0    0    0
C 395.85714117 25.90710344 36.72787838     2    753   757   758   759
H 396.94557829 25.09617876 35.20007658     6    756    0    0    0
H 395.87141713 24.47394096 38.21592681     6    756    0    0    0
C 393.10551982 26.07477922 35.86054365     2    756   760   761   762
H 391.76783319 26.49917431 37.38581386     6    759    0    0    0
H 392.84545365 27.35665794 34.38561589     6    759    0    0    0
C 392.07537530 23.46663583 34.94086832     2    759   763   764   765
H 393.48720219 22.67222283 33.60501959     6    762    0    0    0
H 392.02167694 22.25971640 36.66358869     6    762    0    0    0
C 389.27036754 23.36730992 34.06683253     2    762   766   767   768
H 388.10241910 24.23797923 35.51181678     6    765    0    0    0
H 389.04581510 24.63265925 32.47939964     6    765    0    0    0
C 387.98800134 20.86619899 33.38075518     1    765   769   770   771
H 388.86472325 20.10417791 31.60773765     6    768    0    0    0
H 386.09617255 21.38386620 33.36258172     6    768    0    0    0
H 387.95795925 19.47352506 34.93980144     6    768    0    0    0
H 363.31554177 59.56039988 62.22000192     6     773    0    0    0 
C 363.76827580 58.29552296 63.81039088     1     772    774    775    776
H 365.63069639 57.54202030 63.72515889     6     773    0    0    0
H 363.93957704 59.49247555 65.47264870     6     773    0    0    0
C 361.81406584 56.10403877 64.11525591     2     773    777    778    779
H 360.95864337 56.33063630 66.00661145     6     776    0    0    0
H 360.31634753 56.34102630 62.83366372     6     776    0    0    0
C 363.07493269 53.43496765 63.71035433     2     776    780   781   782
H 364.05654548 53.73376372 61.94774924     6     779    0    0    0
H 364.43827048 52.96734284 65.15888444     6     779    0    0    0
C 361.01879013 51.27275050 63.47944292     2     779   783   784   785
H 359.58685291 51.34741093 65.00184083     6    782    0    0    0
H 359.98412030 51.57328174 61.74573477     6    782    0    0    0
C 362.18794043 48.67983080 63.48732626     2    782   786   787   788
H 363.87540965 48.54891254 62.36844218     6    785    0    0    0
H 362.72543311 48.49574670 65.44103558     6    785    0    0    0
C 360.41915882 46.63474054 62.56818124     2    785   789   790   791
H 358.65490878 46.83735998 63.56928789     6    788    0    0    0
H 360.11082970 46.83822483 60.56718456     6    788    0    0    0
C 361.41130203 43.97072983 63.07904312     2    788   792   793   794
H 363.28584537 43.77915301 62.74851052     6    791    0    0    0
H 361.17249733 43.60287715 65.09793865     6    791    0    0    0
C 359.89198065 42.16900564 61.51733780     2    791   795   796   797
H 357.88050596 42.40323997 61.77371684     6    794    0    0    0
H 360.32244530 42.52736439 59.48363596     6    794    0    0    0
C 360.40296756 39.42910777 62.13372612     2    794   798   799   800
H 362.28477706 38.68791308 61.53695012     6    797    0    0    0
H 360.26958906 39.12548749 64.22423704     6    797    0    0    0
C 358.33996646 37.64269172 60.94533239     2    797   801   802   803
H 356.35886343 38.53013950 60.80806075     6    800    0    0    0
H 359.00046387 37.37973923 59.03238790     6    800    0    0    0
C 358.37576764 35.12717672 62.19885007     2    800   804   805   806
H 360.25566512 34.55966860 62.49504709     6    803    0    0    0
H 357.43769264 35.53416061 63.89029749     6    803    0    0    0
C 357.13391919 33.07688985 60.57606248     1    803   807   808   809
H 357.29339007 31.12558489 61.27986373     6    806    0    0    0
H 357.99218467 32.88792912 58.70829184     6    806    0    0    0
H 355.14677458 33.44977356 60.71120165     6    806    0    0    0
H 380.43736994 45.09300995 39.59119436     6     811    0    0    0 
C 379.62624069 44.19898858 41.15672301     1     810    812    813    814
H 380.93847003 42.92636989 42.16267821     6     811    0    0    0
H 379.13472680 45.64938822 42.54528260     6     811    0    0    0
C 377.08086614 42.93634086 40.52541062     2     811    815    816    817
H 377.30545442 41.26246898 39.21248824     6     814    0    0    0
H 376.31587453 42.37914019 42.37246905     6     814    0    0    0
C 375.21838381 44.98590320 39.54679779     2     814    818   819   820
H 375.52278527 46.81913279 40.48425571     6     817    0    0    0
H 375.75017300 45.42616097 37.61637559     6     817    0    0    0
C 372.56772622 44.22453784 39.34245343     2     817   821   822   823
H 372.42921251 42.49518425 38.21129475     6    820    0    0    0
H 371.76160445 43.82831455 41.30796582     6    820    0    0    0
C 370.80685074 46.16788246 38.13836577     2    820   824   825   826
H 369.01114264 45.43768932 38.50038382     6    823    0    0    0
H 371.21971518 47.89466872 39.15464908     6    823    0    0    0
C 371.23577482 46.34713420 35.10202066     2    823   827   828   829
H 372.93168887 47.46902130 34.75920199     6    826    0    0    0
H 371.59857074 44.58971450 34.02255234     6    826    0    0    0
C 368.85858021 47.44713250 33.90647572     2    826   830   831   832
H 367.52219891 45.99917611 33.50363536     6    829    0    0    0
H 367.92338222 48.63034978 35.25868064     6    829    0    0    0
C 369.38618836 49.21268507 31.61740012     2    829   833   834   835
H 370.70518731 50.53971878 32.29041354     6    832    0    0    0
H 370.47754218 48.01347486 30.20391048     6    832    0    0    0
C 367.24992222 50.71825938 30.46537429     2    832   836   837   838
H 365.71512447 49.52224641 29.65490204     6    835    0    0    0
H 366.33666575 51.77283978 31.94290115     6    835    0    0    0
C 368.32086690 52.69848932 28.67032886     2    835   839   840   841
H 369.95156608 53.51240323 29.52759863     6    838    0    0    0
H 369.07443416 51.81273010 27.01597948     6    838    0    0    0
C 366.27302034 54.61794838 27.93639603     2    838   842   843   844
H 365.04386419 53.70921913 26.57638532     6    841    0    0    0
H 365.39851624 55.25603906 29.63921368     6    841    0    0    0
C 367.33639181 56.84294566 26.49950210     1    841   845   846   847
H 369.07396199 57.56798604 27.23021978     6    844    0    0    0
H 365.95507097 58.40854198 26.46511830     6    844    0    0    0
H 367.72522763 56.54902648 24.53488394     6    844    0    0    0
H 407.10540833 52.68295581 64.93400950     6     849    0    0    0 
C 405.29235958 51.99638231 65.80916288     1     848    850    851    852
H 405.44943859 50.11493733 66.55413189     6     849    0    0    0
H 404.94803695 53.22004065 67.32363713     6     849    0    0    0
C 403.18027082 52.26412876 63.98582253     2     849    853    854    855
H 403.22660418 50.88735265 62.47233387     6     852    0    0    0
H 401.40627732 52.00839469 64.99878115     6     852    0    0    0
C 403.42088803 55.00570089 62.76707099     2     852    856   857   858
H 403.98215078 56.41995186 64.33577590     6     855    0    0    0
H 404.97292519 54.92833332 61.45190946     6     855    0    0    0
C 400.97852707 56.18191808 61.44797373     2     855   859   860   861
H 400.55997001 54.90851901 59.89430257     6    858    0    0    0
H 399.44433982 56.27249433 62.70894153     6    858    0    0    0
C 401.58077400 58.96855734 60.77790674     2    858   862   863   864
H 402.63590119 59.71697978 62.31870805     6    861    0    0    0
H 402.78568036 59.38887723 59.16721061     6    861    0    0    0
C 399.05102405 60.48676920 60.68803551     2    861   865   866   867
H 397.99700473 59.53879005 59.27086281     6    864    0    0    0
H 398.07555745 60.33925463 62.46892929     6    864    0    0    0
C 399.28146677 63.36813104 59.90575989     2    864   868   869   870
H 400.62686147 64.33067742 61.00275284     6    867    0    0    0
H 400.09650588 63.35300979 57.95546801     6    867    0    0    0
C 396.70214246 64.78721256 59.91099770     2    867   871   872   873
H 395.19951211 63.41569359 59.60314388     6    870    0    0    0
H 396.17278682 65.44238005 61.87716414     6    870    0    0    0
C 396.77585190 66.92383174 58.01969148     2    870   874   875   876
H 398.26563833 68.13833987 58.67473114     6    873    0    0    0
H 397.32453461 66.22448961 56.07758758     6    873    0    0    0
C 394.17724873 68.48342189 57.69490666     2    873   877   878   879
H 392.89241204 67.29990764 56.78200419     6    876    0    0    0
H 393.64053911 68.94468370 59.59431396     6    876    0    0    0
C 394.58326201 70.92732991 56.14931175     2    876   880   881   882
H 396.10207958 71.96483941 57.15514996     6    879    0    0    0
H 395.25154072 70.17803286 54.32011524     6    879    0    0    0
C 392.36601285 72.63872828 55.63965247     1    879   883   884   885
H 391.12164930 72.87906153 57.29815765     6    882    0    0    0
H 391.15307375 72.00536257 54.14707009     6    882    0    0    0
H 393.10902523 74.45380036 55.47238951     6    882    0    0    0
H 376.41970241 45.49300054 47.49928836     6     887    0    0    0 
C 376.11230227 43.66656157 48.26076186     1     886    888    889    890
H 374.47242849 43.82741971 49.57702774     6     887    0    0    0
H 375.64222038 42.55749112 46.59133016     6     887    0    0    0
C 378.48897803 42.89414687 49.66890087     2     887    891    892    893
H 379.05317745 44.37093483 50.93007344     6     890    0    0    0
H 378.22235242 41.13941223 50.68308848     6     890    0    0    0
C 380.46319016 42.14630973 47.73702066     2     890    894   895   896
H 379.67509522 40.84999597 46.15222679     6     893    0    0    0
H 380.95863317 43.70134832 46.40147616     6     893    0    0    0
C 382.94734699 41.13901082 48.82733545     2     893   897   898   899
H 383.37992966 42.23623647 50.66070409     6    896    0    0    0
H 382.83820364 39.16385065 49.31562483     6    896    0    0    0
C 385.20589581 41.58379202 47.15858025     2    896   900   901   902
H 385.10004936 40.40604663 45.55716604     6    899    0    0    0
H 385.21326441 43.39913195 46.27766947     6    899    0    0    0
C 387.80592264 41.34340304 48.61008616     2    899   903   904   905
H 387.60796185 41.73424390 50.63932545     6    902    0    0    0
H 388.18418857 39.31964001 48.49928094     6    902    0    0    0
C 390.06660570 42.95171553 47.38680342     2    902   906   907   908
H 390.28843528 42.54247470 45.43616277     6    905    0    0    0
H 389.66585235 44.87871479 47.73311770     6    905    0    0    0
C 392.41998309 42.32193588 48.98710054     2    905   909   910   911
H 391.84968203 42.62354061 51.01824103     6    908    0    0    0
H 392.90486776 40.36890920 48.62159022     6    908    0    0    0
C 394.72704866 43.67371577 48.19623814     2    908   912   913   914
H 395.01393722 42.83867007 46.24679612     6    911    0    0    0
H 394.18086282 45.68531534 47.97520406     6    911    0    0    0
C 396.85746435 43.38350780 50.12184693     2    911   915   916   917
H 396.34441538 43.88849508 52.06328205     6    914    0    0    0
H 397.24874431 41.35121726 50.24233616     6    914    0    0    0
C 399.37360441 44.35070071 49.22997907     2    914   918   919   920
H 399.65157779 43.78905299 47.23707351     6    917    0    0    0
H 399.20675623 46.53607882 49.38748609     6    917    0    0    0
C 401.67263822 43.48520829 50.82719502     1    917   921   922   923
H 402.35947925 41.65139166 50.20683834     6    920    0    0    0
H 401.26837557 43.32998443 52.89901078     6    920    0    0    0
H 403.02211700 44.88357728 50.55237074     6    920    0    0    0
H 393.48527494 56.97731362 55.96393562     6     925    0    0    0 
C 392.55335701 58.64132128 56.76690470     1     924    926    927    928
H 390.78410691 57.93773123 57.36894181     6     925    0    0    0
H 393.94454418 59.14372463 58.33152051     6     925    0    0    0
C 392.33077859 60.62052122 54.70964916     2     925    929    930    931
H 391.13746438 59.99372115 53.26690290     6     928    0    0    0
H 391.43584050 62.18563446 55.69839842     6     928    0    0    0
C 394.93873899 61.24766994 53.56794362     2     928    932   933   934
H 396.08692923 62.18914027 54.95523080     6     931    0    0    0
H 396.05656949 59.66653200 52.88081377     6     931    0    0    0
C 394.89712524 63.33919004 51.48029671     2     931   935   936   937
H 393.86337918 62.55299641 49.80520650     6    934    0    0    0
H 394.13376150 64.93143461 52.25965603     6    934    0    0    0
C 397.50631348 63.93110221 50.45457337     2    934   938   939   940
H 398.64759931 64.85108033 51.88576868     6    937    0    0    0
H 398.61134512 62.22220987 49.99051796     6    937    0    0    0
C 397.61363699 65.91893747 48.27187069     2    937   941   942   943
H 396.65739077 65.41626135 46.59154198     6    940    0    0    0
H 396.66512867 67.66103848 48.69331193     6    940    0    0    0
C 400.28117368 66.38652628 47.34811197     2    940   944   945   946
H 401.61824111 65.05533637 48.07550466     6    943    0    0    0
H 399.98655971 66.22189241 45.29337187     6    943    0    0    0
C 401.15588682 69.16246699 47.57872381     2    943   947   948   949
H 399.80268261 70.50795562 46.91817613     6    946    0    0    0
H 401.18495032 69.70474241 49.58089608     6    946    0    0    0
C 403.64833819 69.77417774 46.16771483     2    946   950   951   952
H 405.00617356 68.31296997 46.26516163     6    949    0    0    0
H 403.18177252 69.95638776 44.19925843     6    949    0    0    0
C 404.98749401 72.19584930 47.14493748     2    949   953   954   955
H 403.70421999 73.73530162 47.48194911     6    952    0    0    0
H 405.92485062 71.77694036 48.87290775     6    952    0    0    0
C 407.09126462 73.28908080 45.56237442     2    952   956   957   958
H 406.38995022 73.80699414 43.72944895     6    955    0    0    0
H 407.46651624 75.07077716 46.61781069     6    955    0    0    0
C 409.48481807 71.62058991 45.54672009     1    955   959   960   961
H 411.00469365 72.61313361 44.70589836     6    958    0    0    0
H 409.02432181 70.23257987 44.22802765     6    958    0    0    0
H 409.92966313 70.65799184 47.31054740     6    958    0    0    0
H 373.59827353 28.32497116 42.76634039     6     963    0    0    0 
C 373.71043832 26.24567398 42.98778806     1     962    964    965    966
H 372.98319876 25.56681876 41.23800348     6     963    0    0    0
H 375.72310091 25.82527683 43.31371451     6     963    0    0    0
C 372.22717423 25.27480704 45.23698060     2     963    967    968    969
H 370.39892761 26.10107512 45.05818499     6     966    0    0    0
H 372.19242972 23.23619848 45.21184542     6     966    0    0    0
C 373.38209284 25.85549136 47.76761533     2     966    970   971   972
H 375.45524269 25.22370086 47.73693924     6     969    0    0    0
H 373.42391571 27.87260410 48.12352239     6     969    0    0    0
C 372.02608768 24.64590586 49.94240626     2     969   973   974   975
H 370.07044949 25.28062686 50.42665077     6    972    0    0    0
H 371.82525447 22.63973036 49.23273342     6    972    0    0    0
C 373.45878121 25.00787187 52.39305843     2    972   976   977   978
H 375.24350551 23.89888506 52.48397405     6    975    0    0    0
H 373.68710196 26.94911777 52.96974283     6    975    0    0    0
C 371.83046121 23.42532684 54.30232206     2    975   979   980   981
H 370.05739525 24.32105866 54.35486515     6    978    0    0    0
H 371.37120949 21.39111052 53.82166494     6    978    0    0    0
C 373.02361477 23.16899832 56.86344882     2    978   982   983   984
H 374.97156823 22.66277820 56.70214733     6    981    0    0    0
H 373.16763322 24.99805253 57.81027772     6    981    0    0    0
C 371.85634358 21.30578481 58.80564186     2    981   985   986   987
H 369.87630628 22.00099627 59.36066112     6    984    0    0    0
H 371.69027984 19.48085775 57.70336964     6    984    0    0    0
C 373.43431015 20.85872874 61.21503129     2    984   988   989   990
H 372.22512298 19.63226794 62.45531671     6    987    0    0    0
H 375.05587414 19.65290396 60.94688635     6    987    0    0    0
C 373.83323863 23.16400638 63.03043466     2    987   991   992   993
H 374.99457952 24.75016854 62.28112875     6    990    0    0    0
H 372.01011751 23.77425152 62.93762632     6    990    0    0    0
C 374.64323019 22.77183447 65.76346545     2    990   994   995   996
H 373.19247599 21.63958337 66.72171654     6    993    0    0    0
H 376.40830713 21.76592913 66.06085617     6    993    0    0    0
C 374.77486071 25.32189076 67.21382388     1    993   997   998   999
H 373.80320357 25.20686808 69.05153643     6    996    0    0    0
H 374.01197453 26.92685845 66.25819174     6    996    0    0    0
H 376.84716658 25.82695591 67.47884481     6    996    0    0    0
H 371.26507867 26.43846785 33.25774205     6     1001    0    0    0 
C 372.67864359 25.18151967 32.94357328     1     1000    1002    1003    1004
H 372.45174723 24.01583829 31.27486050     6     1001    0    0    0
H 374.29250721 26.25996684 32.93518600     6     1001    0    0    0
C 372.80059655 23.52564176 35.31674579     2     1001    1005    1006    1007
H 372.26406501 24.61956730 37.00251255     6     1004    0    0    0
H 371.67209684 21.84516013 35.17544899     6     1004    0    0    0
C 375.54074079 22.81498895 35.66383749     2     1004    1008   1009   1010
H 376.19631201 22.03602780 33.96381942     6     1007    0    0    0
H 376.53803125 24.51092277 36.12717428     6     1007    0    0    0
C 375.89755933 20.88435208 37.73327189     2     1007   1011   1012   1013
H 374.57146028 21.40292848 39.27657567     6    1010    0    0    0
H 375.56133465 19.01171651 36.95732599     6    1010    0    0    0
C 378.77437683 21.09972372 38.53960188     2    1010   1014   1015   1016
H 380.18843354 20.61489699 37.10327427     6    1013    0    0    0
H 379.39072504 22.95288639 39.00116951     6    1013    0    0    0
C 379.36563448 19.30283622 40.87901836     2    1013   1017   1018   1019
H 378.59585114 17.44222461 40.32499995     6    1016    0    0    0
H 381.38761823 19.43943454 41.24782083     6    1016    0    0    0
C 378.37684014 20.56310676 43.37874747     2    1016   1020   1021   1022
H 379.16627815 22.49719516 43.52133134     6    1019    0    0    0
H 376.22466170 20.75356702 43.29042018     6    1019    0    0    0
C 379.31822298 19.26300246 45.87156697     2    1019   1023   1024   1025
H 378.48382609 17.33376457 45.89091024     6    1022    0    0    0
H 381.36327422 18.99049778 45.51483357     6    1022    0    0    0
C 378.66576203 20.91756245 48.34008416     2    1022   1026   1027   1028
H 379.53409830 22.70787721 48.31758053     6    1025    0    0    0
H 376.62634607 21.14726161 48.35373930     6    1025    0    0    0
C 379.63435427 19.29258670 50.56918062     2    1025   1029   1030   1031
H 379.12565277 17.43315405 50.62773753     6    1028    0    0    0
H 381.64768825 19.12267100 50.56554105     6    1028    0    0    0
C 378.72044976 20.32692511 52.94559716     2    1028   1032   1033   1034
H 379.28149434 22.27919697 53.08636966     6    1031    0    0    0
H 376.74637855 19.97357509 53.17655315     6    1031    0    0    0
C 379.91366276 19.03369311 55.24583000     1    1031   1035   1036   1037
H 381.66358246 19.97019943 55.69928183     6    1034    0    0    0
H 380.22484169 16.89888720 55.19574376     6    1034    0    0    0
H 378.76321947 19.53170244 56.83303888     6    1034    0    0    0
H 367.75316761 44.09205676 59.08190447     6     1039    0    0    0 
C 366.82449003 45.93114880 59.48167182     1     1038    1040    1041    1042
H 364.76112126 45.67479981 59.46090254     6     1039    0    0    0
H 367.70508585 46.21215924 61.22909884     6     1039    0    0    0
C 367.73313467 47.92820724 57.70427947     2     1039    1043    1044    1045
H 369.87094024 47.81702420 57.58606018     6     1042    0    0    0
H 366.95059400 47.82150345 55.83473768     6     1042    0    0    0
C 367.17451357 50.63784816 58.75278408     2     1042    1046   1047   1048
H 365.18997946 50.70433314 58.94524927     6     1045    0    0    0
H 367.77765088 50.54084723 60.69131618     6     1045    0    0    0
C 368.28424479 52.98625805 57.38582291     2     1045   1049   1050   1051
H 370.23596694 52.61982388 56.79667983     6    1048    0    0    0
H 367.25800413 52.98456246 55.64429429     6    1048    0    0    0
C 367.91141644 55.59547582 58.70810478     2    1048   1052   1053   1054
H 365.95622441 55.88116682 59.05523617     6    1051    0    0    0
H 368.83414755 55.71525558 60.45447635     6    1051    0    0    0
C 368.61169011 57.86945259 56.98997092     2    1051   1055   1056   1057
H 370.54608780 57.82165650 56.47883357     6    1054    0    0    0
H 367.52852509 57.65823599 55.24397839     6    1054    0    0    0
C 367.73898567 60.31165808 58.17041255     2    1054   1058   1059   1060
H 365.63650930 60.54864130 58.14902260     6    1057    0    0    0
H 368.43290487 60.64061005 60.13382048     6    1057    0    0    0
C 368.87669351 62.76011700 56.95628782     2    1057   1061   1062   1063
H 370.93633377 62.45580386 57.30961395     6    1060    0    0    0
H 368.57099571 62.71052118 54.91128798     6    1060    0    0    0
C 368.15331163 65.28301698 58.02661767     2    1060   1064   1065   1066
H 366.11666758 65.43182094 57.79504928     6    1063    0    0    0
H 368.36014410 65.59318798 60.06341504     6    1063    0    0    0
C 369.29518398 67.44908674 56.50823936     2    1063   1067   1068   1069
H 371.19872630 66.81234268 56.15209275     6    1066    0    0    0
H 368.52524561 67.51299219 54.64219516     6    1066    0    0    0
C 369.28569223 70.04882333 57.97894106     2    1066   1070   1071   1072
H 367.96067643 70.05242130 59.53779906     6    1069    0    0    0
H 371.16953303 70.10526389 58.81550163     6    1069    0    0    0
C 368.77584301 72.21864758 56.26381113     1    1069   1073   1074   1075
H 368.11308527 73.90520383 57.13084517     6    1072    0    0    0
H 367.45850968 71.57612692 54.90848359     6    1072    0    0    0
H 370.54820284 72.68541704 55.13364098     6    1072    0    0    0
H 377.55591157 72.22496342 64.87372527     6     1077    0    0    0 
C 379.19119997 71.30172821 64.23199098     1     1076    1078    1079    1080
H 379.80771757 70.13313087 65.76395719     6     1077    0    0    0
H 378.67702393 69.85168173 62.85919198     6     1077    0    0    0
C 381.32400877 72.89273131 62.92223350     2     1077    1081    1082    1083
H 380.45564010 74.14647023 61.67466479     6     1080    0    0    0
H 382.07359960 73.90034927 64.50943155     6     1080    0    0    0
C 383.35595503 71.28717557 61.69230700     2     1080    1084   1085   1086
H 385.01404015 72.46159147 62.04889244     6     1083    0    0    0
H 383.84719064 69.55153164 62.63263357     6     1083    0    0    0
C 382.71968722 70.84567361 58.91363663     2     1083   1087   1088   1089
[...]
 1619      H     355.6057697000    44.0770691400    67.2755877400
 1620      H     357.2596714100    42.0008988300    68.3039394200
 1621      C     353.6305638900    41.0900393300    69.3097320900
 1622      H     353.9809499700    39.7063269700    70.8711348900
 1623      H     351.7854666700    42.0192688500    69.8222291800
 1624      C     353.4413419000    39.4012810800    66.8752779300
 1625      H     353.1101393800    40.5185485700    65.2131989000
 1626      H     355.1453767400    38.4891660100    66.3225925100
 1627      C     351.4338739000    37.4317483100    67.2489815500
 1628      H     352.2704914200    36.3445006500    68.7756249000
 1629      H     349.7573907800    38.1132487100    68.0868195800
 1630      C     351.1013965700    35.6633066700    64.8520433200
 1631      H     350.2306053300    36.8569557000    63.3340847800
 1632      H     352.8894895800    34.7699410700    64.2916453800
 1633      C     349.6155374500    33.2269512300    65.2498064500
 1634      H     349.8236105700    32.7255847800    67.1891580300
 1635      H     347.6473442300    33.6808272800    65.0088615200
 1636      C     350.4826886900    30.9555728100    63.6049635100
 1637      H     350.3941421400    31.5792393700    61.6626481400
 1638      H     352.4063527300    30.7227729100    63.9718430300
 1639      C     348.8766176300    28.6023460200    64.1432595600
 1640      H     349.2261846500    28.0625993000    66.0125787900
 1641      H     346.8524711400    29.0687179400    64.2582801000
 1642      C     349.1473433700    26.5116802100    62.1860557800
 1643      H     348.2869109200    27.2801127300    60.3399660300
 1644      H     348.0444520500    25.0060038400    62.8854219000
 1645      H     351.1333699500    25.8543955700    62.1770637300
 1646      H     345.6471052500    34.0482420300    37.2608322100
 1647      C     346.4994504700    35.3455289800    38.7196706800
 1648      H     348.4617612800    35.5742830100    38.6166036600
 1649      H     345.6987848600    37.2483036800    38.2196254800
 1650      C     345.6327247800    34.3611800900    41.2528536000
 1651      H     345.2516159600    36.1892428900    42.1226120700
 1652      H     343.9835324500    33.1090654800    40.8152713500
 1653      C     347.7926061000    32.9623659200    42.7306938900
 1654      H     348.4019731300    31.3955497400    41.6128620100
 1655      H     349.5672060100    34.1901762600    42.7893991600
 1656      C     347.0972409800    32.1895436500    45.3807060100
 1657      H     346.4138704000    33.8472135500    46.4563481000
 1658      H     345.4738011200    31.1732186300    45.2824537900
 1659      C     349.2454843800    30.6767956600    46.7113186200
 1660      H     349.3991968800    28.8358483700    45.8053606600
 1661      H     351.0093765200    31.8807278800    46.4016283400
 1662      C     348.8054060100    30.1451121500    49.4963539100
 1663      H     348.2332605700    31.8577335700    50.3147964600
 1664      H     347.2777202300    28.7619669800    49.5645817200
 1665      C     351.0658565400    29.1565388400    50.8337395200
 1666      H     352.2376720200    28.1826679600    49.4744034100
 1667      H     352.3370899500    30.8201684000    51.1708029900
 1668      C     350.5186544000    27.6837780900    53.2968867300
 1669      H     349.7505151400    28.8490831300    54.7259347900
 1670      H     349.2491604000    26.1791836100    52.7768650600
 1671      C     352.9130969000    26.3890904600    54.2457971800
 1672      H     353.9704098600    25.4980798700    52.8018116000
 1673      H     354.1644557200    27.8379635700    54.8039890000
 1674      C     352.5646806600    24.6176090600    56.3956620700
 1675      H     351.8142178700    25.5963298600    58.0841946700
 1676      H     351.1879126300    23.2646575800    55.8632698900
 1677      C     354.9998664800    23.3606897700    57.2794915600
 1678      H     355.9827206300    22.2632601500    55.8218683500
 1679      H     356.4261180600    24.8614002200    57.6450342100
 1680      C     354.4002267400    21.5437134700    59.4258044000
 1681      H     356.1092973400    20.6886072800    60.2232648700
 1682      H     353.3299095600    20.0795383900    58.5235521800
 1683      H     353.1990636400    22.3712187200    60.8989937000
 1684      H     366.2944661000    28.4593671100    35.5734527500
 1685      C     365.7887384700    27.6760634900    37.5427664900
 1686      H     363.7922911500    27.0535307600    37.6256752400
 1687      H     366.8548769300    25.9675110100    37.6242807300
 1688      C     366.7484392800    29.6929200800    39.5343800800
 1689      H     368.7683545900    29.9374105000    39.4155296100
 1690      H     365.7487834200    31.3744922600    39.0478870300
 1691      C     366.1786912100    28.9878616000    42.1698370000
 1692      H     364.2334981300    29.0325437700    42.9424342600
 1693      H     367.0614048700    27.1791856800    42.6054625700
 1694      C     367.5797852200    31.2200215700    43.6341046100
 1695      H     369.6130540700    30.9114691800    43.1437038000
 1696      H     366.9716661400    33.0772299300    43.0055966200
 1697      C     367.3897479700    31.2407665200    46.5695290400
 1698      H     365.3514348400    31.3578829400    46.8944101300
 1699      H     368.0290498400    29.4920967400    47.3678030200
 1700      C     368.5920308700    33.6609169100    47.7995410600
 1701      H     370.4391313100    33.8862342800    47.1246090000
 1702      H     367.3915529300    35.1567925100    47.0280870700
 1703      C     368.6506074800    33.3599471900    50.5361815200
 1704      H     367.0530582800    32.2697842200    51.3232077500
 1705      H     370.2258601800    32.1047123800    51.0858754600
 1706      C     368.8702086800    35.8749496700    52.1589463000
 1707      H     369.8083021400    35.5114325800    54.0113524800
 1708      H     370.1852249100    37.1348444200    51.1614141400
 1709      C     366.3348195500    37.2203856400    52.4574248300
 1710      H     365.4225477500    37.5288884500    50.6988044200
 1711      H     365.1584520500    35.9291180400    53.3685743500
 1712      C     366.6124565700    39.7390638200    53.9201675200
 1713      H     367.3915590000    39.4691784900    55.7824071000
 1714      H     367.8804203200    40.9462128600    52.7266297800
 1715      C     364.0510097100    41.0976751400    54.3416563300
 1716      H     364.5652343200    42.6305695000    55.6823802000
 1717      H     363.4658081400    41.8976741000    52.5585060700
 1718      C     361.9774894500    39.4055484400    55.5580070700
 1719      H     362.6678928700    38.4571199300    57.2501847400
 1720      H     361.3107865000    37.9406133000    54.2098784700
 1721      H     360.3759525700    40.4747129500    56.1454165600
 1722      H     383.3574387400    12.2623579500    65.1252801100
 1723      C     384.3329700500    13.2830634100    66.6748928300
 1724      H     382.8546016100    13.5532712200    68.1065905700
 1725      H     385.7748049100    11.9296971300    67.2819426800
 1726      C     385.4066774400    15.8412614400    65.7140235600
 1727      H     386.2990173000    17.0866027400    67.1938488600
 1728      H     386.8869682400    15.4350847600    64.4439009200
 1729      C     383.3494166300    17.2236208600    64.2571731100
 1730      H     383.1891450400    16.5391096700    62.2744223400
 1731      H     381.5088869900    16.6916512700    64.9140725100
 1732      C     383.7246372600    20.1312317900    64.0478282300
 1733      H     383.4980500800    21.1433225100    65.8025320500
 1734      H     385.7563164000    20.3475136700    63.6662556800
 1735      C     382.2458807600    21.4802656800    61.8995012200
 1736      H     383.1890416200    20.6899648000    60.1954248800
 1737      H     380.2212861200    20.9836052200    62.1201348200
 1738      C     382.6765238800    24.4656662700    61.7400436000
 1739      H     380.9627421200    25.3807878600    62.4319611000
 1740      H     384.3021178700    24.9894245100    62.9075855600
 1741      C     382.5187084000    25.3882418400    58.9201845100
 1742      H     384.1837492000    24.7426511500    57.9398174300
 1743      H     380.6384339800    24.7039896900    58.0952041100
 1744      C     382.5124439300    28.2042075000    58.5906337800
 1745      H     380.6569881300    28.7984970400    58.9362594700
 1746      H     383.8754648400    29.0260123800    59.9341417900
 1747      C     383.3012925400    29.1035811200    55.8583246400
 1748      H     385.1940347800    28.3751948600    55.2955808500
 1749      H     381.9251529200    28.4323966200    54.5695137600
 1750      C     383.4697039100    32.1327248800    55.6170344200
 1751      H     381.5307380800    33.0089784600    55.9704261700
 1752      H     384.5805696000    32.7579195800    57.3083021200
 1753      C     384.6840403400    33.1303825700    53.2166958000
 1754      H     386.7433933200    32.9739405200    53.2870500000
 1755      H     384.0596908700    32.0216260400    51.5041588300
 1756      C     384.1984965900    35.9018808100    52.7522823000
 1757      H     385.3425039900    36.8417763200    51.3941311100
 1758      H     384.3257056100    36.7432073700    54.5903327700
 1759      H     382.3088854100    36.0191527300    51.9429587900
 1760      H     401.2884728300    24.2631793500    54.8351507000
 1761      C     401.3157859400    23.3569362500    56.7003794100
 1762      H     401.3756583300    21.3451643700    56.7801873400
 1763      H     403.1536154000    23.9441499800    57.5221605200
 1764      C     399.2694073200    24.2047495300    58.4663153400
 1765      H     398.8661575800    26.1593214600    58.1660121200
 1766      H     397.3959110200    23.3885514100    57.9468628800
 1767      C     399.9958589100    23.4928746200    61.1330611800
 1768      H     399.9120496400    21.4763766400    61.5328788300
 1769      H     402.0505203300    23.7049567400    61.5842686200
 1770      C     398.3901593500    24.7354637200    63.2164014900
 1771      H     398.7876288400    26.8578672000    63.0413841700
 1772      H     396.4753427800    24.5368947400    62.8036148900
 1773      C     399.1686749500    23.7799703000    65.8679325800
 1774      H     399.0202667700    21.8173413100    65.9180902300
 1775      H     401.0682634800    24.2147568700    66.4072959800
 1776      C     397.4902000300    24.9205763800    68.0188531800
 1777      H     397.7796032800    27.0425245900    68.5679443200
 1778      H     395.5325684100    24.6169388900    67.4395779200
 1779      C     397.9639819000    22.9489788500    70.3281122700
 1780      H     397.0121685000    21.2780143900    69.6325707000
 1781      H     400.0461445300    22.6002282000    70.5670629300
 1782      C     396.6567201500    23.9360778700    72.7228515100
 1783      H     394.8075083200    24.7930255900    72.5155563200
 1784      H     396.1715236300    22.5489324200    74.1924034400
 1785      C     398.3318054100    25.7501369200    74.2137420600
 1786      H     400.2564810100    25.0936940200    74.7055764000
 1787      H     398.5484424900    27.4433131900    73.1043994100
 1788      C     397.4790833700    26.5669303900    76.8981386300
 1789      H     398.8542621800    27.9569992700    77.6206719800
 1790      H     395.5362721700    27.4841171400    76.8389974500
 1791      C     397.0552964400    24.4240069400    79.0029557000
 1792      H     396.1500036800    22.6344242200    78.1892327400
 1793      H     398.8176979500    23.9438775300    79.9711985900
 1794      C     395.1446690200    25.2674228100    81.1631549900
 1795      H     393.2447640500    25.5418002500    80.6828939700
 1796      H     395.9664651600    27.0148581500    81.8274578000
 1797      H     394.8583321000    23.7463483800    82.5687654600
 1798      H     382.2445250900    64.5688694000    63.8151857300
 1799      C     383.6354164900    63.0949098700    63.8822914100
 1800      H     385.3733138800    63.9651074600    64.5289548300
 1801      H     383.6570219300    61.7599520700    65.4209416600
 1802      C     383.7080859800    61.3876931000    61.4633459600
 1803      H     384.7391287500    59.7841902900    62.0056459600
 1804      H     381.8113169800    60.9479462500    61.0565789600
 1805      C     384.6808400400    62.8355293300    59.1690194500
 1806      H     383.0979252100    63.8666109200    58.5279174700
 1807      H     386.1452206300    64.2484498300    59.8131670100
 1808      C     385.9098397900    61.3719728800    57.0215882100
 1809      H     386.9216525300    62.7141811200    55.8162465000
 1810      H     387.4061718300    60.3822993400    57.9223128200
 1811      C     384.2100207800    59.7455347700    55.4312681700
 1812      H     382.7694394600    58.6637160300    56.5474510200
 1813      H     383.0760010500    61.0039024800    54.1554787700
 1814      C     385.6680636000    57.7596974100    53.9045758800
 1815      H     387.4891046000    58.2827172600    52.9362753000
 1816      H     386.5049263800    56.4374779600    55.2501239500
 1817      C     383.9741980100    56.0367967100    52.4198096200
 1818      H     383.1644902900    54.8364510800    53.8830473600
 1819      H     382.3375573000    57.0030812300    51.7634034300
 1820      C     385.2767748100    54.7725228300    50.1623897700
 1821      H     385.7234707800    56.2362713400    48.7432087700
 1822      H     387.0944106600    53.9865079600    50.6769683400
 1823      C     383.7625784000    52.6546156000    48.9917983200
 1824      H     383.7214639700    51.0033997800    50.1955916700
 1825      H     381.7561839200    53.1065992400    48.8851695700
 1826      C     384.4244746200    52.0906892500    46.1557159200
 1827      H     383.8641042200    53.6275733600    44.7871641800
 1828      H     386.4383060500    51.6987152700    46.0352631500
 1829      C     383.2817481700    49.6669809000    45.1662193700
 1830      H     383.1387239100    48.4277658200    46.8647117600
 1831      H     381.4097529700    50.0749490600    44.4161753400
 1832      C     384.9778479300    48.3274031200    43.2532947200
 1833      H     385.0128673900    49.5959105600    41.6939250300
 1834      H     384.1980887600    46.4943615300    42.6740564800
 1835      H     386.9822584000    47.9875123100    43.6932553900
 1836      H     385.3152375400    44.7682249600    55.3035062500
 1837      C     384.3614466400    46.5800360000    54.7540502900
 1838      H     384.8273574700    47.0070642500    52.8924462300
 1839      H     382.3519146300    46.0750314500    54.6503905400
 1840      C     384.8327074400    48.6367343600    56.7938432100
 1841      H     384.1099962700    50.4420993800    56.0857129700
 1842      H     383.5987733200    48.3818117400    58.5663638000
 1843      C     387.4852881300    49.3427261500    57.4958111300
 1844      H     388.5532435800    47.5626795100    57.6967697100
 1845      H     388.2716551000    50.2908179200    55.8501996700
 1846      C     387.5637536900    50.9876517200    59.7867060400
 1847      H     386.4513529300    52.6897256700    59.4528256600
 1848      H     386.5821466800    49.8059436100    61.0722767300
 1849      C     390.1213596600    51.5994708200    60.7100976800
 1850      H     390.9725078500    49.9530601100    61.3265397000
 1851      H     391.3837165100    52.1790004000    59.1265243200
 1852      C     389.7983405900    53.6967122200    62.7012274000
 1853      H     388.9977211300    55.5397114300    61.8558173400
 1854      H     388.4455114000    53.3454484300    64.1671604400
 1855      C     392.3082115700    54.2560421300    64.0348879100
 1856      H     393.2484010800    52.5410126500    64.9378752800
 1857      H     393.7256991700    55.0848326600    62.6042158200
 1858      C     391.6387528100    56.2498290500    66.0251741800
 1859      H     390.7484068100    57.8563489800    65.1976933900
 1860      H     390.4313099600    55.6692781400    67.6005959900
 1861      C     393.9311200200    57.5069655300    67.2287199400
 1862      H     394.9071020400    56.2028953600    68.5630966700
 1863      H     395.5466318600    57.7184021500    65.8160696000
 1864      C     393.4628522400    60.2977573900    67.9364332300
 1865      H     392.9342830200    61.3337567800    66.1168365500
 1866      H     391.8856356900    60.3168832100    69.0396629900
 1867      C     395.6659949900    61.6393678600    69.2904860500
 1868      H     395.6584353800    60.8066616200    71.2954281600
 1869      H     397.4434663400    60.8324469100    68.5133372100
 1870      C     395.8169418700    64.4819382100    69.0523221000
 1871      H     396.1624892400    64.9940258100    67.0677598600
 1872      H     397.2142244100    65.2467491900    70.3317903900
 1873      H     394.0538964700    65.3402713000    69.7653497700
 1874      H     374.7336988800    42.9249740000    79.5866919900
 1875      C     373.0842866200    41.7344050400    80.0351606000
 1876      H     372.5179502200    41.4312430500    82.0605701500
 1877      H     371.4754132400    42.3707300400    78.7623139400
 1878      C     373.6070925300    39.1212044200    79.0722373200
 1879      H     374.8729999500    38.0827949900    80.5041194200
 1880      H     371.8524151900    38.1831486900    78.8126816700
 1881      C     375.0484428500    38.7989570900    76.4602423600
 1882      H     373.9285915100    39.9760045200    75.3385164000
 1883      H     377.0826946500    39.3780628900    76.5896955400
 1884      C     375.0089368100    36.1600251700    75.3229383600
 1885      H     376.2606209800    34.8960036000    76.4367940500
 1886      H     373.0479105700    35.3285551700    75.3657148700
 1887      C     375.9011666900    36.4973864400    72.5857490300
 1888      H     375.0051933900    38.1678076100    71.9746657600
 1889      H     377.9426256100    36.9745782400    72.7202741200
 1890      C     375.2438660200    34.2091152100    70.8135751400
 1891      H     376.6700556200    32.6841199700    71.1684304200
 1892      H     373.3815051900    33.5987227900    71.1731916000
 1893      C     375.2482030500    34.8969173900    67.9597974800
 1894      H     373.9683246700    36.5069273200    67.8006665400
 1895      H     377.2790931100    35.3021903400    67.4299494300
 1896      C     374.2776189300    32.7899256100    66.1530746300
 1897      H     375.4067038400    31.0362908400    66.4309590400
 1898      H     372.3673861100    32.2575434900    66.7765404200
 1899      C     373.9177851600    33.6054232000    63.4833041300
 1900      H     372.5154703900    35.0300294300    63.5993656000
 1901      H     375.6618602100    34.4549942000    62.8447938000
 1902      C     372.7331821600    31.6091114600    61.7326592200
 1903      H     374.1285601600    29.9778929900    61.3789877500
 1904      H     371.2304638900    30.5300096900    62.8824809600
 1905      C     372.0641170600    32.6544363300    59.1385085800
 1906      H     370.1100174700    33.5029388900    59.0884276800
 1907      H     373.3985276300    34.1946914200    58.4646023100
 1908      C     372.1896684500    30.8255504400    56.9451860400
 1909      H     371.5603238000    31.5295064100    55.0350499200
 1910      H     371.2780675700    29.0895020400    57.3682568100
 1911      H     374.2128546300    30.3685532000    56.5875406600
 ----------------------------------------------------------------
 Nuclear Repulsion Energy =           0.00000000 hartrees
 There are       48 alpha and       48 beta electrons
 Total job time:  127.92s(wall), 252.11s(cpu) 
 Wed Jun  1 23:32:48 2022

        *************************************************************
        *                                                           *
        *  Thank you very much for using Q-Chem.  Have a nice day.  *
        *                                                           *
        *************************************************************


