                  Welcome to Q-Chem
     A Quantum Leap Into The Future Of Chemistry


 Q-Chem 5.4 (devel), Q-Chem, Inc., Pleasanton, CA (2021)

 E. Epifanovsky,  A. T. B. Gilbert,  Xintian Feng,  Joonho Lee,  Yuezhi Mao,  
 N. Mardirossian,  P. Pokhilko,  A. White,  M. Wormit,  M. P. Coons,  
 A. L. Dempwolff,  Zhengting Gan,  D. Hait,  P. R. Horn,  L. D. Jacobson,  
 I. Kaliman,  J. Kussmann,  A. W. Lange,  Ka Un Lao,  D. S. Levine,  Jie Liu,  
 S. C. McKenzie,  A. F. Morrison,  K. Nanda,  F. Plasser,  D. R. Rehn,  
 M. L. Vidal,  Zhi-Qiang You,  Ying Zhu,  B. Alam,  B. Albrecht,  
 A. Aldossary,  E. Alguire,  J. H. Andersen,  D. Barton,  K. Begam,  A. Behn,  
 Y. A. Bernard,  E. J. Berquist,  H. Burton,  A. Carreras,  K. Carter-Fenk,  
 R. Chakraborty,  A. D. Chien,  K. D. Closser,  V. Cofer-Shabica,  
 S. Dasgupta,  Jia Deng,  M. de Wergifosse,  M. Diedenhofen,  Hainam Do,  
 S. Ehlert,  Po-Tung Fang,  S. Fatehi,  Qingguo Feng,  T. Friedhoff,  
 J. Gayvert,  Qinghui Ge,  G. Gidofalvi,  M. Goldey,  J. Gomes,  
 C. Gonzalez-Espinoza,  S. Gulania,  A. Gunina,  M. W. D. Hanson-Heine,  
 P. H. P. Harbach,  A. W. Hauser,  M. F. Herbst,  M. Hernandez Vera,  
 M. Hodecker,  Z. C. Holden,  S. Houck,  Xunkun Huang,  Kerwin Hui,  
 B. C. Huynh,  M. Ivanov,  Hyunjun Ji,  Hanjie Jiang,  B. Kaduk,  S. Kaehler,  
 K. Khistyaev,  Jaehoon Kim,  P. Klunzinger,  Z. Koczor-Benda,  
 Joong Hoon Koh,  D. Kosenkov,  L. Koulias,  T. Kowalczyk,  C. M. Krauter,  
 K. Kue,  A. Kunitsa,  T. Kus,  A. Landau,  K. V. Lawler,  D. Lefrancois,  
 S. Lehtola,  Rain Li,  Yi-Pei Li,  Jiashu Liang,  M. Liebenthal,  
 Hung-Hsuan Lin,  You-Sheng Lin,  Fenglai Liu,  Kuan-Yu Liu,  
 M. Loipersberger,  A. Luenser,  A. Manjanath,  P. Manohar,  E. Mansoor,  
 S. F. Manzer,  Shan-Ping Mao,  A. V. Marenich,  T. Markovich,  S. Mason,  
 S. A. Maurer,  P. F. McLaughlin,  M. F. S. J. Menger,  J.-M. Mewes,  
 S. A. Mewes,  P. Morgante,  J. W. Mullinax,  K. J. Oosterbaan,  G. Paran,  
 Alexander C. Paul,  Suranjan K. Paul,  F. Pavosevic,  Zheng Pei,  S. Prager,  
 E. I. Proynov,  E. Ramos,  B. Rana,  A. E. Rask,  A. Rettig,  R. M. Richard,  
 F. Rob,  E. Rossomme,  T. Scheele,  M. Scheurer,  M. Schneider,  
 N. Sergueev,  S. M. Sharada,  W. Skomorowski,  D. W. Small,  C. J. Stein,  
 Yu-Chuan Su,  E. J. Sundstrom,  Zhen Tao,  J. Thirman,  T. Tsuchimochi,  
 N. M. Tubman,  S. P. Veccham,  O. Vydrov,  J. Wenzel,  J. Witte,  A. Yamada,  
 Kun Yao,  S. Yeganeh,  S. R. Yost,  A. Zech,  Igor Ying Zhang,  Xing Zhang,  
 Yu Zhang,  D. Zuev,  A. Aspuru-Guzik,  A. T. Bell,  N. A. Besley,  
 K. B. Bravaya,  B. R. Brooks,  D. Casanova,  Jeng-Da Chai,  S. Coriani,  
 C. J. Cramer,  A. E. DePrince, III,  R. A. DiStasio Jr.,  A. Dreuw,  
 B. D. Dunietz,  T. R. Furlani,  W. A. Goddard III,  S. Grimme,  
 S. Hammes-Schiffer,  T. Head-Gordon,  W. J. Hehre,  Chao-Ping Hsu,  
 T.-C. Jagau,  Yousung Jung,  A. Klamt,  Jing Kong,  D. S. Lambrecht,  
 WanZhen Liang,  N. J. Mayhall,  C. W. McCurdy,  J. B. Neaton,  
 C. Ochsenfeld,  J. A. Parkhill,  R. Peverati,  V. A. Rassolov,  Yihan Shao,  
 L. V. Slipchenko,  T. Stauch,  R. P. Steele,  J. E. Subotnik,  
 A. J. W. Thom,  A. Tkatchenko,  D. G. Truhlar,  T. Van Voorhis,  
 T. A. Wesolowski,  K. B. Whaley,  H. L. Woodcock III,  P. M. Zimmerman,  
 S. Faraji,  P. M. W. Gill,  M. Head-Gordon,  J. M. Herbert,  A. I. Krylov

 Additional authors for Version 5.4.1: 
 S. Kotaru,  Shaozhi Li,  Xiangyuan Li,  F. Matz,  A. Molle,  Haisheng Ren,  
 Yingli Su,  Hung-Yi Tsai,  C. Utku,  Fang Wang

 Contributors to earlier versions of Q-Chem not listed above: 
 R. D. Adamson,  B. Austin,  R. Baer,  J. Baker,  G. J. O. Beran,  
 K. Brandhorst,  S. T. Brown,  E. F. C. Byrd,  A. K. Chakraborty,  
 G. K. L. Chan,  Chun-Min Chang,  Yunqing Chen,  C.-L. Cheng,  
 Siu Hung Chien,  D. M. Chipman,  D. L. Crittenden,  H. Dachsel,  
 R. J. Doerksen,  A. D. Dutoi,  R. G. Edgar,  J. Fosso-Tande,  
 L. Fusti-Molnar,  D. Ghosh,  A. Ghysels,  A. Golubeva-Zadorozhnaya,  
 J. Gonthier,  M. S. Gordon,  S. R. Gwaltney,  G. Hawkins,  J. E. Herr,  
 A. Heyden,  S. Hirata,  E. G. Hohenstein,  G. Kedziora,  F. J. Keil,  
 C. Kelley,  Jihan Kim,  R. A. King,  R. Z. Khaliullin,  P. P. Korambath,  
 W. Kurlancheek,  A. Laurent,  A. M. Lee,  M. S. Lee,  S. V. Levchenko,  
 Ching Yeh Lin,  D. Liotard,  E. Livshits,  R. C. Lochan,  I. Lotan,  
 L. A. Martinez-Martinez,  P. E. Maslen,  N. Nair,  D. P. O'Neill,  
 D. Neuhauser,  E. Neuscamman,  C. M. Oana,  R. Olivares-Amaya,  R. Olson,  
 T. M. Perrine,  B. Peters,  P. A. Pieniazek,  A. Prociuk,  Y. M. Rhee,  
 J. Ritchie,  M. A. Rohrdanz,  E. Rosta,  N. J. Russ,  H. F. Schaefer III,  
 M. W. Schmidt,  N. E. Schultz,  S. Sharma,  N. Shenvi,  C. D. Sherrill,  
 A. C. Simmonett,  A. Sodt,  T. Stein,  D. Stuck,  K. S. Thanthiriwatte,  
 V. Vanovschi,  L. Vogt,  Tao Wang,  A. Warshel,  M. A. Watson,  
 C. F. Williams,  Q. Wu,  X. Xu,  Jun Yang,  W. Zhang,  Yan Zhao

 Please cite Q-Chem as follows:
 Y. Shao et al., Mol. Phys. 113, 184-215 (2015)
 DOI: 10.1080/00268976.2014.952696

 Q-Chem 5.4.1 for Intel X86 EM64T Linux

 Parts of Q-Chem use Armadillo 9.900.5 (Nocturnal Misbehaviour).
 http://arma.sourceforge.net/

 Q-Chem begins on Wed Jun 22 16:41:23 2022  

 Host: p09r14n13.grace.hpc.yale.internal
0

     Scratch files written to /home/tl686/scratch60/qchem_dev/scratch/qchem246761//
 Processing $rem in /home/tl686/qchem_dev/qchem/config/preferences:
 Processing $rem in /home/tl686/.qchemrc:
Applying user defined connections for MM calculations

 Checking the input file for inconsistencies... 	...done.

--------------------------------------------------------------
User input:
--------------------------------------------------------------
$molecule
0   1
 Fe 380.12465585 39.81532883 60.52448550    -1  0   0   0   0
C 378.59166535 37.01971502 59.36915189    -2  0   0   0   0 
C 381.51997580 42.51589294 62.01440868    -2  0   0   0   0
C 383.19054815 38.39416218 60.34373540    -2  0   0   0   0
C 379.66790073 41.20794314 57.49601644    -2  0   0   0   0
C 377.86923757 39.66943244 63.17899030    -2  0   0   0   0
O 377.42788248 35.21696336 58.80199578    -3  0   0   0   0
O 382.33657420 44.22178350 62.98237747    -3  0   0   0   0 
O 385.08030041 37.35298163 59.94672637    -3  0   0   0   0
O 379.87910839 42.04465448 55.35844691    -3  0   0   0   0 
O 376.53776913 39.41169284 64.95398014    -3  0   0   0   0
H 398.96185838 19.54807752 46.82878303      6     13    0    0    0 
C 399.35729681 17.88608703 45.87559863     1     12    14    15    16
H 401.08685674 18.40399097 44.84875736     6     13    0    0    0
H 399.68703789 16.34806902 47.26659312     6     13    0    0    0
C 396.98733878 16.99054315 44.24121682     2     13    17    18    19
H 397.39709164 17.12360197 42.27912285     6     16    0    0    0
H 396.36116700 15.00866207 44.64610819     6     16    0    0    0
C 394.70130853 18.67244543 45.03641669     2     16    20   21   22
H 394.24207248 18.71460533 46.88850915     6     19    0    0    0
H 395.27834178 20.65652980 44.43299434     6     19    0    0    0
C 392.26712270 18.15925179 43.68839508     2     19   23   24   25
H 392.69699351 18.05688456 41.70388017     6    22    0    0    0
H 391.60810308 16.29028246 44.20327436     6    22    0    0    0
C 390.26707666 20.20820850 44.00517364     2    22   26   27   28
H 390.17489258 20.70037052 45.94993473     6    25    0    0    0
H 390.90282800 21.93521665 42.86390374     6    25    0    0    0
C 387.40027095 19.49374960 43.45943326     2    25   29   30   31
H 387.15550051 18.50498308 41.60367611     6    28    0    0    0
H 386.73011936 17.92547615 44.68853592     6    28    0    0    0
C 385.63608325 21.74676534 43.62578588     2    28   32   33   34
H 383.73454274 21.06434552 43.48290151     6    31    0    0    0
H 385.57476044 22.51084082 45.62831694     6    31    0    0    0
C 385.99437888 23.99531538 41.79608667     2    31   35   36   37
H 387.85458073 24.52208369 41.51722380     6    34    0    0    0
H 385.49157249 23.48551961 39.86600114     6    34    0    0    0
C 384.27818502 26.44156590 42.19906451     2    34   38   39   40
H 382.31815356 25.81833251 42.89432151     6    37    0    0    0
H 384.97242836 27.31067907 43.80079454     6    37    0    0    0
C 384.01895401 28.11060396 39.87504226     2    37   41   42   43
H 385.83755660 28.81934043 39.05259547     6    40    0    0    0
H 383.40101382 26.87024681 38.31270542     6    40    0    0    0
C 382.03571447 30.12382590 40.48098254     2    40   44   45   46
H 380.09148381 29.37736893 40.89894361     6    43    0    0    0
H 382.80581413 31.12631993 42.21649947     6    43    0    0    0
C 381.60012095 32.14627601 38.45305974     1    43   47   48   49
H 383.34314997 33.24543644 38.07085446     6    46    0    0    0
H 380.05451633 33.55654828 38.42770802     6    46    0    0    0
H 381.09380625 31.02185098 36.72781001     6    46    0    0    0
H 377.03386408 37.43753298 54.13277536     6     51    0    0    0 
C 377.52665564 36.94481652 52.07428540     1     50    52    53    54
H 376.26094318 37.89627509 50.75499790     6     51    0    0    0
H 379.43557491 37.58004552 51.85844672     6     51    0    0    0
C 377.42932958 34.16309345 51.42910555     2     51    55    56    57
H 378.64324887 33.21161884 52.79390364     6     54    0    0    0
H 375.52651932 33.47495986 51.75249553     6     54    0    0    0
C 378.46171261 33.35938912 48.77335823     2     54    58   59   60
H 380.36429138 34.04007076 48.53822498     6     57    0    0    0
H 378.68114470 31.30822867 48.65895725     6     57    0    0    0
C 376.58128305 34.43790773 46.78983103     2     57   61   62   63
H 374.78410128 33.37094317 46.94806187     6    60    0    0    0
H 375.95447035 36.30021405 47.32070515     6    60    0    0    0
C 377.47391539 34.50149865 44.01020822     2    60   64   65   66
H 379.02103938 35.90243394 43.78220797     6    63    0    0    0
H 378.44359168 32.70324760 43.70844334     6    63    0    0    0
C 375.37077500 35.01639345 42.03926246     2    63   67   68   69
H 376.34418964 35.28323054 40.24750543     6    66    0    0    0
H 374.39953106 33.13706513 41.89718433     6    66    0    0    0
C 373.31118939 37.03391032 42.76711021     2    66   70   71   72
H 372.26239464 36.25068928 44.38508151     6    69    0    0    0
H 374.13749963 38.85650904 43.11675151     6    69    0    0    0
C 371.45596391 37.24621480 40.58254045     2    69   73   74   75
H 372.64069095 38.16907427 39.26941654     6    72    0    0    0
H 370.98337754 35.35689838 40.00977090     6    72    0    0    0
C 369.19632394 38.97577838 41.04674718     2    72   76   77   78
H 367.90464223 38.15101143 42.35876025     6    75    0    0    0
H 369.82970938 40.75738086 41.86898600     6    75    0    0    0
C 367.61876874 39.86372289 38.70836496     2    75   79   80   81
H 368.76626989 40.57052340 37.24623560     6    78    0    0    0
H 366.71082915 38.08753771 38.01545991     6    78    0    0    0
C 365.56126130 41.87989351 39.27517025     2    78   82   83   84
H 364.44054437 41.12916965 40.76841191     6    81    0    0    0
H 366.58690099 43.40933117 40.08336400     6    81    0    0    0
C 363.79276020 42.81544110 37.10507542     1    81   85   86   87
H 362.55026508 44.20824484 37.92069109     6    84    0    0    0
H 362.51233167 41.21827999 36.66670700     6    84    0    0    0
H 365.09984206 43.19315880 35.42985059     6    84    0    0    0
H 410.98162780 43.42297727 34.87337637     6     89    0    0    0 
C 408.92285241 43.26226205 34.12684680     1     88    90    91    92
H 407.54714887 43.99988178 35.64653177     6     89    0    0    0
H 408.61810560 44.09754853 32.21874274     6     89    0    0    0
C 408.33691149 40.46695458 33.83775666     2     89    93    94    95
H 409.34249224 39.59018439 32.28788671     6     92    0    0    0
H 409.16472804 39.42932102 35.48057542     6     92    0    0    0
C 405.54834258 40.08150614 33.28893513     2     92    96   97   98
H 404.48743031 40.97710784 34.82899182     6     95    0    0    0
H 405.11818213 41.14549436 31.53863059     6     95    0    0    0
C 404.74719593 37.30917672 33.03158754     2     95   99   100   101
H 405.59150092 36.52936952 31.39180820     6    98    0    0    0
H 405.30884963 36.31753585 34.78726441     6    98    0    0    0
C 401.87372893 37.04986788 32.58862401     2    98   102   103   104
H 400.76007442 37.33202596 34.29796182     6    101    0    0    0
H 401.41948876 38.15288545 31.06937537     6    101    0    0    0
C 401.00235405 34.44493891 31.58804213     2    101   105   106   107
H 401.63867066 34.30083211 29.71366358     6    104    0    0    0
H 401.85087295 32.88807066 32.62666613     6    104    0    0    0
C 398.17352798 34.14879505 31.34797420     2    104   108   109   110
H 397.23717977 34.37376906 33.20246282     6    107    0    0    0
H 397.44774099 35.54532156 30.04730437     6    107    0    0    0
C 397.65513745 31.50492866 30.27966448     2    107   111   112   113
H 398.73466628 31.02505533 28.64725296     6    110    0    0    0
H 398.35033173 30.25181199 31.77122378     6    110    0    0    0
C 394.81668409 30.87215921 29.81190423     2    110   114   115   116
H 394.00317949 30.67884490 31.78739853     6    113    0    0    0
H 394.06349173 32.56677988 29.10735318     6    113    0    0    0
C 394.30845219 28.45988885 28.37092374     2    113   117   118   119
H 394.67748787 28.95398562 26.38833740     6    116    0    0    0
H 395.77099611 27.13084737 28.98728002     6    116    0    0    0
C 391.60154329 27.71016023 28.87943567     2    116   120   121   122
H 390.97810193 27.67008261 30.80089940     6    119    0    0    0
H 390.26480903 28.97237608 27.95341285     6    119    0    0    0
C 391.29840561 25.17207849 27.61790768     1    119   123   124   125
H 389.31121047 24.43670701 27.95791955     6    122    0    0    0
H 392.76258598 23.89559854 28.35367003     6    122    0    0    0
H 391.24503883 25.49748723 25.54906398     6    122    0    0    0
H 407.57982364 33.87277432 47.42625790     6     127    0    0    0 
C 405.97288507 34.82714215 48.16368410     1     126    128    129    130
H 405.98163958 36.72068775 47.32650937     6     127    0    0    0
H 404.35672901 33.79108515 47.39915569     6     127    0    0    0
C 406.17030443 34.80840157 51.05380861     2     127    131    132    133
H 406.35462400 32.77703597 51.53238951     6     130    0    0    0
H 407.91673979 35.96647002 51.29094499     6     130    0    0    0
C 403.73222586 35.97157695 52.12127107     2     130    134   135   136
H 403.48660630 38.01288003 51.95535554     6     133    0    0    0
H 402.15474261 35.02627649 51.14177281     6     133    0    0    0
C 403.34850285 35.01372649 54.92444332     2     133   137   138   139
H 403.23224741 32.96041620 54.97097528     6    136    0    0    0
H 405.13874806 35.45739731 55.85071428     6    136    0    0    0
C 401.19442092 35.92336965 56.53553309     2    136   140   141   142
H 401.00744518 37.98288685 56.45905860     6    139    0    0    0
H 399.33944331 35.20584697 55.81888234     6    139    0    0    0
C 401.52099610 35.14429254 59.31259302     2    139   143   144   145
H 401.47728361 33.23351699 59.52410661     6    142    0    0    0
H 403.19882809 35.86534012 60.23574823     6    142    0    0    0
C 399.18091679 35.94728032 60.96664754     2    142   146   147   148
H 398.60723051 38.03973950 60.83644629     6    145    0    0    0
H 397.56015317 34.78933393 60.38425306     6    145    0    0    0
C 399.23942634 35.18435838 63.76752057     2    145   149   150   151
H 399.28212249 33.11028705 64.03933042     6    148    0    0    0
H 401.09683910 35.88978982 64.49649221     6    148    0    0    0
C 397.19497143 36.27392443 65.45199539     2    148   152   153   154
H 397.48309039 38.23917315 65.24174287     6    151    0    0    0
H 395.45023480 35.65046142 64.55841284     6    151    0    0    0
C 397.31465811 35.48394688 68.05849466     2    151   155   156   157
H 395.94694557 36.56702781 69.19554433     6    154    0    0    0
H 396.72187566 33.49068576 67.95248149     6    154    0    0    0
C 399.87607458 36.02663602 69.43251449     2    154   158   159   160
H 401.22868888 34.93461843 68.25532204     6    157    0    0    0
H 400.51423132 38.06952839 69.71926393     6    157    0    0    0
C 400.08122025 34.82838109 71.99339181     1    157   161   162   163
H 398.83405034 35.76607004 73.29417280     6    160    0    0    0
H 402.01387986 34.76598513 72.77628190     6    160    0    0    0
H 399.52016019 32.85516700 71.82024899     6    160    0    0    0
H 404.59568768 64.72857908 30.92191354     6     165    0    0    0 
C 406.17227619 64.32339555 32.15483564     1     164    166    167    168
H 407.38123619 62.85771708 31.46372342     6     165    0    0    0
H 407.44245455 65.97543987 32.10710110     6     165    0    0    0
C 405.32066516 63.56300585 34.74168744     2     165    169    170    171
H 403.47716598 64.34741471 35.19332566     6     168    0    0    0
H 404.88953893 61.44322764 34.70539307     6     168    0    0    0
C 407.17148400 64.07356715 36.97924844     2     168    172   173   174
H 408.85125203 62.82299178 36.65116092     6     171    0    0    0
H 407.74349350 66.01104192 36.77132873     6     171    0    0    0
C 405.75536316 63.34796464 39.46768652     2     171   175   176   177
H 403.95377304 64.44781499 39.40502216     6    174    0    0    0
H 405.20384262 61.47429201 39.29306254     6    174    0    0    0
C 407.28955168 63.94656697 41.74947568     2    174   178   179   180
H 409.32910269 63.61432694 41.29361208     6    177    0    0    0
H 407.13475794 66.03313726 42.03240246     6    177    0    0    0
C 406.49292536 62.55206210 44.19148674     2    177   181   182   183
H 404.53507095 62.99677923 44.61728442     6    180    0    0    0
H 406.89083438 60.46781104 44.03841515     6    180    0    0    0
C 408.34815082 63.49840821 46.37009613     2    180   184   185   186
H 410.14997912 63.04839664 45.73763204     6    183    0    0    0
H 408.24191910 65.47686817 46.44569984     6    183    0    0    0
C 408.02270758 62.17975189 48.97183688     2    183   187   188   189
H 406.10842451 62.20873300 49.91265768     6    186    0    0    0
H 408.21747027 60.17972187 48.70932529     6    186    0    0    0
C 410.03580264 63.12928324 50.92954631     2    186   190   191   192
H 411.79659899 63.55510349 49.93115438     6    189    0    0    0
H 409.37342597 64.98552730 51.67758651     6    189    0    0    0
C 410.52167173 61.21546343 53.07206668     2    189   193   194   195
H 408.90412229 61.09868954 54.25442279     6    192    0    0    0
H 410.82935797 59.23498679 52.52822202     6    192    0    0    0
C 412.71286942 62.23507590 54.75776712     2    192   196   197   198
H 414.31262866 62.18494687 53.48345081     6    195    0    0    0
H 412.50791530 64.11228474 55.25219678     6    195    0    0    0
C 413.36946248 60.56028515 56.91840734     1    195   199   200   201
H 415.00136519 61.05740493 58.19191343     6    198    0    0    0
H 413.64816635 58.54786879 56.26913255     6    198    0    0    0
H 411.67307361 60.41639929 58.12305985     6    198    0    0    0
H 386.27240284 71.27513529 36.91746455     6     203    0    0    0 
C 385.43905276 69.41283751 36.73143582     1     202    204    205    206
H 385.49103542 69.14219721 34.64588256     6     203    0    0    0
H 386.77978004 68.21089942 37.79207579     6     203    0    0    0
C 382.62567210 69.19403276 37.31668962     2     203    207    208    209
H 381.58191385 70.56342503 36.22129728     6     206    0    0    0
H 381.90733033 67.50000787 36.50560895     6     206    0    0    0
C 382.22773579 69.40032040 40.24532216     2     206    210   211   212
H 383.11251913 67.83528864 41.20128277     6     209    0    0    0
H 383.19540185 71.14906459 41.00516812     6     209    0    0    0
C 379.47160076 69.80111435 40.70616496     2     209   213   214   215
H 378.56808796 71.40906614 39.47900307     6    212    0    0    0
H 378.35790531 68.07865787 40.46037528     6    212    0    0    0
C 379.23255305 70.42239786 43.56752366     2    212   216   217   218
H 380.25244557 69.04555510 44.63613917     6    215    0    0    0
H 379.85291935 72.36018055 44.04342504     6    215    0    0    0
C 376.44598700 70.27058806 44.48432751     2    215   219   220   221
H 375.16522266 71.84785791 43.96464047     6    218    0    0    0
H 375.84235085 68.40433449 43.77068049     6    218    0    0    0
C 376.37732303 70.21547634 47.41289563     2    218   222   223   224
H 378.07461064 69.41507107 48.22261806     6    221    0    0    0
H 376.39770715 72.16368191 48.06006044     6    221    0    0    0
C 373.89736668 69.11541143 48.52565339     2    221   225   226   227
H 373.63190248 69.61780827 50.45481166     6    224    0    0    0
H 372.16220585 69.92258205 47.76378704     6    224    0    0    0
C 373.75606430 66.15920367 48.68550348     2    224   228   229   230
H 374.44187237 65.37012988 46.95199707     6    227    0    0    0
H 374.98629770 65.30430102 50.11273455     6    227    0    0    0
C 371.15136417 65.18246692 49.31621361     2    227   231   232   233
H 370.45329640 65.63121701 51.10857037     6    230    0    0    0
H 370.03637193 66.00058212 47.76358743     6    230    0    0    0
C 371.05552645 62.33083238 49.02319784     2    230   234   235   236
H 372.02599119 61.63968283 47.36722155     6    233    0    0    0
H 371.67369945 61.30377218 50.61035406     6    233    0    0    0
C 368.25552711 61.43053977 48.71557066     1    233   237   238   239
H 368.16161714 59.35984953 48.43505230     6    236    0    0    0
H 367.26667295 62.24827343 47.22025312     6    236    0    0    0
H 367.24264499 61.62878844 50.56276960     6    236    0    0    0
H 379.76740039 32.61776209 30.15844510     6     241    0    0    0 
C 379.03401783 34.41285512 29.33733421     1     240    242    243    244
H 379.82136828 35.92459679 30.42988534     6     241    0    0    0
H 379.71509951 34.59327874 27.47411770     6     241    0    0    0
C 376.06331037 34.58422021 29.13780169     2     241    245    246    247
H 375.21257392 32.85709164 28.31716239     6     244    0    0    0
H 375.52957329 34.55815858 31.05835681     6     244    0    0    0
C 374.89243256 37.00081163 28.27107908     2     244    248   249   250
H 375.08882155 38.21276124 29.86820002     6     247    0    0    0
H 376.07454052 37.76785317 26.65850660     6     247    0    0    0
C 372.17043545 36.88544842 27.31861058     2     247   251   252   253
H 371.49023226 38.77327336 26.61918289     6    250    0    0    0
H 372.31357088 35.44432041 25.85737498     6    250    0    0    0
C 370.32406682 36.06835535 29.44708360     2    250   254   255   256
H 370.97994938 34.51056285 30.43589905     6    253    0    0    0
H 370.53870239 37.61324907 30.90067691     6    253    0    0    0
C 367.54475128 35.69946579 28.66937220     2    253   257   258   259
H 366.76148746 37.34380459 27.69080724     6    256    0    0    0
H 367.20487491 34.29854975 27.12513649     6    256    0    0    0
C 366.00698463 34.73691552 30.94640740     2    256   260   261   262
H 366.68778435 32.81079818 31.46544975     6    259    0    0    0
H 366.25855487 36.00611105 32.55583307     6    259    0    0    0
C 363.13349856 34.27659863 30.58854176     2    259   263   264   265
H 362.21705201 36.10642639 30.56287349     6    262    0    0    0
H 362.87553946 33.50453241 28.56981594     6    262    0    0    0
C 361.98013531 32.57719471 32.67202684     2    262   266   267   268
H 363.00328147 30.77370914 32.57173036     6    265    0    0    0
H 362.14313974 33.41864287 34.50130886     6    265    0    0    0
C 359.12125015 32.00762018 32.34641591     2    265   269   270   271
H 357.91346100 33.61095696 32.20874731     6    268    0    0    0
H 358.82844744 31.15642565 30.53731305     6    268    0    0    0
C 358.23539065 30.09549804 34.14719681     2    268   272   273   274
H 359.15925267 28.33927841 33.68153126     6    271    0    0    0
H 358.90363250 30.36348400 36.11691810     6    271    0    0    0
C 355.33213596 30.05984284 34.14371766     1    271   275   276   277
H 354.32922230 30.87698461 35.72696159     6    274    0    0    0
H 354.54038535 28.15050630 34.36387357     6    274    0    0    0
H 354.55281462 30.83685457 32.43143630     6    274    0    0    0
H 399.08414646 57.66965212 31.04763582     6     279    0    0    0 
C 397.05886398 57.32330617 30.46022855     1     278    280    281    282
H 396.03865910 59.04348316 31.09883258     6     279    0    0    0
H 397.14977013 56.92196173 28.48583447     6     279    0    0    0
C 395.82487608 55.33954062 32.02411568     2     279    283    284    285
H 397.02335555 53.69748811 31.68690797     6     282    0    0    0
H 396.07477806 55.70286331 34.08930964     6     282    0    0    0
C 393.15295047 54.72798508 31.44958728     2     282    286   287   288
H 392.36865931 56.01938202 30.03829870     6     285    0    0    0
H 393.12499498 52.77680230 30.55893144     6     285    0    0    0
C 391.45852589 54.27768284 33.84757225     2     285   289   290   291
H 392.57509904 53.17715022 35.15808795     6    288    0    0    0
H 391.39599827 56.11734212 34.78289344     6    288    0    0    0
C 388.74636272 53.24706051 33.33524469     2    288   292   293   294
H 387.82996380 53.94986160 31.58973090     6    291    0    0    0
H 388.86394187 51.16641691 33.01165425     6    291    0    0    0
C 386.92456343 53.74351241 35.65403153     2    291   295   296   297
H 387.67625516 53.14554539 37.48873524     6    294    0    0    0
H 386.53743061 55.66774693 35.77852576     6    294    0    0    0
C 384.40828204 52.32419473 35.32563793     2    294   298   299   300
H 383.47289893 53.24001339 33.71678554     6    297    0    0    0
H 384.57726418 50.26168051 35.06409093     6    297    0    0    0
C 382.78590965 52.55778635 37.73428210     2    297   301   302   303
H 383.31124027 51.17849325 39.14188526     6    300    0    0    0
H 382.81792047 54.49730644 38.39428877     6    300    0    0    0
C 380.03309210 52.48396740 36.99914698     2    300   304   305   306
H 379.54097870 53.94838890 35.47951751     6    303    0    0    0
H 379.81250872 50.59780521 36.15227405     6    303    0    0    0
C 378.13539310 52.90539750 39.00717404     2    303   307   308   309
H 378.23172524 51.13385743 40.08781429     6    306    0    0    0
H 378.93297618 54.15642772 40.48637816     6    306    0    0    0
C 375.66171257 53.90804414 37.95073834     2    306   310   311   312
H 375.93990018 55.84619461 37.29953904     6    309    0    0    0
H 375.10232610 52.81531071 36.23360727     6    309    0    0    0
C 373.43922385 53.82437603 39.90785410     1    309   313   314   315
H 371.77646392 54.62535951 39.22441363     6    312    0    0    0
H 373.81733430 54.78963574 41.65886208     6    312    0    0    0
H 372.92751958 51.78713217 40.26954958     6    312    0    0    0
H 398.05010489 38.70058487 42.05283845     6     317    0    0    0 
C 396.62300056 39.59451177 43.06091574     1     316    318    319    320
H 397.61852037 41.13263540 44.13735973     6     317    0    0    0
H 395.34411359 40.68011769 41.79893483     6     317    0    0    0
C 395.26471842 37.78164956 44.78637039     2     317    321    322    323
H 393.66599069 38.74818184 45.54491252     6     320    0    0    0
H 394.65083300 36.08995349 43.83218440     6     320    0    0    0
C 396.95629857 36.80782805 46.84759743     2     320    324   325   326
H 398.39107440 35.74941055 45.74684124     6     323    0    0    0
H 397.56948102 38.26858243 48.21415002     6     323    0    0    0
C 395.30231213 34.96949845 48.45986996     2     323   327   328   329
H 393.54607262 35.80815624 48.76005196     6    326    0    0    0
H 395.08773815 33.12386812 47.40343658     6    326    0    0    0
C 396.51106598 34.22926217 50.98132346     2    326   330   331   332
H 398.20547826 33.04525751 50.39486510     6    329    0    0    0
H 397.23687183 35.76094286 52.02395216     6    329    0    0    0
C 394.91525686 32.92495452 53.01992028     2    329   333   334   335
H 393.87589748 31.34167523 52.29142259     6    332    0    0    0
H 396.18224680 32.01124190 54.50075095     6    332    0    0    0
C 393.10025812 34.78895805 54.42574905     2    332   336   337   338
H 394.18842062 36.15555136 55.57196409     6    335    0    0    0
H 392.05381037 36.07120302 53.15334901     6    335    0    0    0
C 391.15978301 33.29173288 56.21895123     2    335   339   340   341
H 389.88276206 34.78036102 56.86287279     6    338    0    0    0
H 390.11412682 31.84581315 55.30392106     6    338    0    0    0
C 392.54566430 32.17346530 58.59222592     2    338   342   343   344
H 393.88099257 30.66545520 58.02919086     6    341    0    0    0
H 393.65686411 33.66418120 59.44655809     6    341    0    0    0
C 390.56659154 31.17227809 60.49359161     2    341   345   346   347
H 391.74194683 30.81369441 62.19856676     6    344    0    0    0
H 389.32582562 32.66296240 60.94913635     6    344    0    0    0
C 389.55582622 28.67687837 59.55708281     2    344   348   349   350
H 388.44878968 28.81187489 57.92598147     6    347    0    0    0
H 391.02124811 27.40593458 58.99943225     6    347    0    0    0
C 388.02964592 27.24746135 61.57960353     1    347   351   352   353
H 386.46172461 28.47630142 62.19072288     6    350    0    0    0
H 389.13332628 26.50923072 63.14837087     6    350    0    0    0
H 387.01070291 25.64749581 60.83391092     6    350    0    0    0
H 379.53735415 38.88801219 33.57047226     6     355    0    0    0 
C 381.15910411 38.60443586 34.74427779     1     354    356    357    358
H 380.55751323 38.63285496 36.69270881     6     355    0    0    0
H 381.98636790 36.82347947 34.35972480     6     355    0    0    0
C 382.73174981 40.94908284 34.17279758     2     355    359    360    361
H 383.32108542 40.81490359 32.16092409     6     358    0    0    0
H 381.42971924 42.49112473 34.20122567     6     358    0    0    0
C 385.07653550 41.27980323 35.90951339     2     358    362   363   364
H 384.38577578 41.10573369 37.82711590     6     361    0    0    0
H 385.99060481 39.37060768 35.90041009     6     361    0    0    0
C 386.78423322 43.61787746 35.47867899     2     361   365   366   367
H 387.78608353 43.58278888 33.80667512     6    364    0    0    0
H 385.71697256 45.36203747 35.31375385     6    364    0    0    0
C 388.54437811 44.20918817 37.70835494     2    364   368   369   370
H 387.46366954 44.87282755 39.21885558     6    367    0    0    0
H 389.41246859 42.49203395 38.44426318     6    367    0    0    0
C 390.37006313 46.35494410 37.04540237     2    367   371   372   373
H 391.03017185 45.72002590 35.24095306     6    370    0    0    0
H 389.45817030 48.25989174 36.78777157     6    370    0    0    0
C 392.61682883 46.66639337 38.93342345     2    370   374   375   376
H 392.27533230 46.89005440 40.86350375     6    373    0    0    0
H 393.84648578 44.99820017 38.75453645     6    373    0    0    0
C 394.28213359 49.02528258 37.97353707     2    373   377   378   379
H 394.33485091 48.84187015 35.95625453     6    376    0    0    0
H 393.43245195 50.84914108 38.40121954     6    376    0    0    0
C 396.87846604 48.79431613 39.10698264     2    376   380   381   382
H 396.50753783 48.25943815 41.10453696     6    379    0    0    0
H 397.92967942 47.19430254 38.38021982     6    379    0    0    0
C 398.43472799 51.15010440 38.46328961     2    379   383   384   385
H 398.91910217 51.34920310 36.45921484     6    382    0    0    0
H 397.42317479 52.82485563 39.27797381     6    382    0    0    0
C 401.01908698 51.07348051 39.71704040     2    382   386   387   388
H 401.78576911 53.04161704 39.72358392     6    385    0    0    0
H 400.69766999 50.57696551 41.68499902     6    385    0    0    0
C 403.03314355 49.18431569 38.56130658     1    385   389   390   391
H 403.30603268 49.78133024 36.49708745     6    388    0    0    0
H 402.56262907 47.28617084 38.69881027     6    388    0    0    0
H 404.92136426 49.10172488 39.41784568     6    388    0    0    0
H 374.15618911 32.34951916 80.75821591     6     393    0    0    0 
C 372.51155001 32.10478755 79.69107143     1     392    394    395    396
H 370.91468781 32.21637808 80.98470212     6     393    0    0    0
H 372.38200260 33.75854472 78.44965219     6     393    0    0    0
C 372.35911659 29.69401196 78.13042235     2     393    397    398    399
H 374.18474275 29.25239634 77.47037896     6     396    0    0    0
H 372.38322778 28.16067553 79.43532049     6     396    0    0    0
C 370.26028404 29.50140479 76.24506814     2     396    400   401   402
H 368.60379100 29.30472164 77.39452624     6     399    0    0    0
H 370.07108090 31.43073717 75.34590354     6     399    0    0    0
C 370.51725195 27.25132012 74.42538951     2     399   403   404   405
H 372.19314123 27.33386970 73.30899216     6    402    0    0    0
H 370.56665783 25.52886688 75.47350004     6    402    0    0    0
C 368.35779155 27.27407366 72.60436414     2    402   406   407   408
H 366.69577543 26.48144512 73.51101333     6    405    0    0    0
H 367.78507368 29.09663963 71.92670449     6    405    0    0    0
C 368.44095179 25.87316750 70.03641619     2    405   409   410   411
H 370.30080999 26.43471223 69.21004198     6    408    0    0    0
H 368.59581085 23.89121368 70.37397102     6    408    0    0    0
C 366.30837781 26.69967779 68.15669808     2    408   412   413   414
H 364.44446255 26.05429875 68.83965861     6    411    0    0    0
H 366.31190639 28.79990697 68.08487330     6    411    0    0    0
C 366.61916326 25.71906542 65.41059613     2    411   415   416   417
H 368.39357449 26.59408104 64.85794254     6    414    0    0    0
H 366.92745738 23.65677194 65.44637503     6    414    0    0    0
C 364.71081665 26.44005883 63.36540713     2    414   418   419   420
H 362.75266708 26.09858916 63.90410460     6    417    0    0    0
H 365.02848355 28.51007958 63.05280207     6    417    0    0    0
C 365.21996422 25.35213743 60.74335647     2    417   421   422   423
H 367.11692854 25.39156872 59.99789381     6    420    0    0    0
H 364.76047920 23.45800861 60.59822569     6    420    0    0    0
C 364.11000292 26.95692999 58.69288722     2    420   424   425   426
H 364.85018039 28.88104668 58.97285838     6    423    0    0    0
H 364.82956012 26.37101002 56.70240536     6    423    0    0    0
C 361.33411752 26.80063893 58.72881668     1    423   427   428   429
H 360.82940228 25.06934173 59.66009337     6    426    0    0    0
H 360.49649945 26.86390935 56.87847272     6    426    0    0    0
H 360.66288359 28.29805157 59.87394228     6    426    0    0    0
H 373.36130516 8.36741952 50.18596069     6     431    0    0    0 
C 372.19742434 10.04464413 50.39488219     1     430    432    433    434
H 372.54535761 11.49704507 49.09140987     6     431    0    0    0
H 370.41904812 9.12914129 49.69494941     6     431    0    0    0
C 372.02680673 10.83495921 53.21906635     2     431    435    436    437
H 370.99280098 12.69260109 53.13016301     6     434    0    0    0
H 370.72551665 9.43183809 54.01256986     6     434    0    0    0
C 374.73546637 10.85542289 54.46312925     2     434    438   439   440
H 375.19272691 9.06277263 55.26805183     6     437    0    0    0
H 376.08723963 11.43209958 53.13740246     6     437    0    0    0
C 375.25348879 12.80361797 56.61066783     2     437   441   442   443
H 377.18340461 13.18186377 56.90495732     6    440    0    0    0
H 374.21617158 14.47053335 56.24225608     6    440    0    0    0
C 374.28719303 11.66391121 59.17588747     2    440   444   445   446
H 372.32932527 11.21908854 59.24045203     6    443    0    0    0
H 375.02178770 9.91575411 59.90742972     6    443    0    0    0
C 374.88090435 13.81551467 61.20344895     2    443   447   448   449
H 376.94550158 14.20947987 61.53926704     6    446    0    0    0
H 374.42574435 15.82810793 60.46887470     6    446    0    0    0
C 373.74603354 13.10784834 63.68961497     2    446   450   451   452
H 371.71884228 12.89233150 63.52143288     6    449    0    0    0
H 374.58354177 11.54028257 64.66976059     6    449    0    0    0
C 373.96585665 15.17373314 65.76456191     2    449   453   454   455
H 375.88026722 15.66517539 66.02169525     6    452    0    0    0
H 373.07732505 17.03566479 65.07125876     6    452    0    0    0
C 373.07705489 14.47441886 68.40835843     2    452   456   457   458
H 371.00734732 14.39004986 68.28127582     6    455    0    0    0
H 373.82683998 12.74340273 69.03446871     6    455    0    0    0
C 373.95334232 16.30810102 70.36379603     2    455   459   460   461
H 374.11610926 15.37891660 72.21864366     6    458    0    0    0
H 375.76639239 17.20447043 69.83626440     6    458    0    0    0
C 372.02537403 18.44142781 70.68067113     2    458   462   463   464
H 372.39196152 19.99465181 69.36355576     6    461    0    0    0
H 370.15004080 17.98683514 70.45683370     6    461    0    0    0
C 372.10910534 19.43229089 73.36393948     1    461   465   466   467
H 373.88597344 20.31428791 73.90090385     6    464    0    0    0
H 371.53609144 18.18639929 74.78963406     6    464    0    0    0
H 370.75227365 21.01737683 73.71463839     6    464    0    0    0
H 397.48550242 46.50640207 29.63205199     6     469    0    0    0 
C 398.53650416 44.97604350 30.63263944     1     468    470    471    472
H 399.16804309 43.53380539 29.30626019     6     469    0    0    0
H 400.06218095 45.93270704 31.72482013     6     469    0    0    0
C 396.58599349 43.61778901 32.29367107     2     469    473    474    475
H 397.74824074 42.74614481 33.90211639     6     472    0    0    0
H 395.42209875 45.09077014 33.19909694     6     472    0    0    0
C 395.21080352 41.46357567 30.98774643     2     472    476   477   478
H 394.34979188 42.08737712 29.31567674     6     475    0    0    0
H 396.72592672 40.03753841 30.52007103     6     475    0    0    0
C 393.29451387 40.12856085 32.71020065     2     475   479   480   481
H 394.42035546 39.08394119 33.92149128     6    478    0    0    0
H 392.33232487 41.59956833 33.75399529     6    478    0    0    0
C 391.50566782 38.34629360 31.20717669     2    478   482   483   484
H 389.90039015 39.43521057 30.60636616     6    481    0    0    0
H 392.36653240 37.15897976 29.70440496     6    481    0    0    0
C 390.21071002 36.33102766 32.89079864     2    481   485   486   487
H 391.66068644 34.98285251 33.02611439     6    484    0    0    0
H 389.90449439 36.67052007 34.92813820     6    484    0    0    0
C 387.92280987 34.98132227 31.57323668     2    484   488   489   490
H 386.09952137 35.99175624 31.96626138     6    487    0    0    0
H 388.06247882 34.97971554 29.45401270     6    487    0    0    0
C 387.66592745 32.19304498 32.57389113     2    487   491   492   493
H 389.33730429 31.17375314 32.11907656     6    490    0    0    0
H 387.68140607 31.95639315 34.65462396     6    490    0    0    0
C 385.23976749 30.93809917 31.53517443     2    490   494   495   496
H 383.49141892 31.48261305 32.65680800     6    493    0    0    0
H 384.96078101 31.55305545 29.53166377     6    493    0    0    0
C 385.35443795 28.06867083 31.57337011     2    493   497   498   499
H 386.73624380 27.65263323 30.10513434     6    496    0    0    0
H 385.94177195 27.61531940 33.42770184     6    496    0    0    0
C 382.82426885 26.64365651 31.16562841     2    496   500   501   502
H 381.27263158 27.53184794 32.16779253     6    499    0    0    0
H 382.30609643 26.70001406 29.16467941     6    499    0    0    0
C 383.02843420 23.73952955 31.67569312     1    499   503   504   505
H 381.15516918 23.02029723 31.43231140     6    502    0    0    0
H 383.83159905 23.53477761 33.55041975     6    502    0    0    0
H 384.33473347 22.84652456 30.29293507     6    502    0    0    0
H 355.84346504 27.46268206 40.87596901     6     507    0    0    0 
C 355.96636764 25.45997925 41.28909463     1     506    508    509    510
H 354.14874217 24.62439335 41.82205410     6     507    0    0    0
H 356.59291847 24.56677688 39.68476448     6     507    0    0    0
C 357.80193289 25.52555463 43.54310671     2     507    511    512    513
H 359.60097670 26.14456848 42.57605837     6     510    0    0    0
H 357.57287721 26.86856299 45.03778366     6     510    0    0    0
C 357.96129293 23.07720172 45.01726169     2     510    514   515   516
H 355.91218872 22.44489151 45.23341568     6     513    0    0    0
H 358.62526895 21.58509639 43.81923368     6     513    0    0    0
C 359.70731300 23.34464334 47.27920489     2     513   517   518   519
H 361.52099993 24.21162771 46.54038027     6    516    0    0    0
H 358.92620361 24.64768606 48.59319088     6    516    0    0    0
C 360.28071101 20.81054486 48.64303633     2    516   520   521   522
H 358.55011654 19.85213593 49.00882033     6    519    0    0    0
H 361.30839113 19.70893809 47.28103726     6    519    0    0    0
C 361.74749513 21.06087092 51.20241030     2    519   523   524   525
H 363.52396465 21.99399880 50.72405578     6    522    0    0    0
H 360.75706761 22.03417003 52.78691101     6    522    0    0    0
C 362.49816930 18.65648117 52.57919744     2    522   526   527   528
H 361.08210790 17.22669704 52.37372605     6    525    0    0    0
H 364.19643738 17.94121812 51.92834837     6    525    0    0    0
C 362.78283806 19.09899054 55.42468288     2    525   529   530   531
H 363.53024736 20.99259994 56.05499769     6    528    0    0    0
H 360.96155895 19.06815169 56.57547838     6    528    0    0    0
C 364.48137843 17.09576035 56.60514476     2    528   532   533   534
H 363.92836876 15.19613400 56.06356947     6    531    0    0    0
H 366.33609383 17.40039239 55.75281727     6    531    0    0    0
C 364.78020066 17.38829283 59.46151567     2    531   535   536   537
H 365.80907218 19.09873498 59.64972132     6    534    0    0    0
H 363.13170219 17.38841783 60.65235950     6    534    0    0    0
C 366.55289191 15.07055167 60.37673388     2    534   538   539   540
H 365.88596570 13.24533401 59.79120535     6    537    0    0    0
H 368.33266670 15.33730999 59.26424279     6    537    0    0    0
C 366.75083712 15.29655993 63.26269926     1    537   541   542   543
H 367.50554587 13.56606627 63.95820628     6    540    0    0    0
H 364.87484509 15.30782900 64.13300034     6    540    0    0    0
H 367.84829264 16.89381223 63.93513198     6    540    0    0    0
H 380.94784284 30.69622523 64.20429950     6     545    0    0    0 
C 381.82526682 32.45618195 64.48326835     1     544    546    547    548
H 383.06176519 32.90319970 62.85119059     6     545    0    0    0
H 380.38773411 33.96805650 64.58048906     6     545    0    0    0
C 383.19508341 32.36072422 67.08875168     2     545    549    550    551
H 381.68837331 32.41439986 68.44985921     6     548    0    0    0
H 384.51569450 30.78476118 67.16988529     6     548    0    0    0
C 384.65948453 34.87478803 67.60022158     2     548    552   553   554
H 386.53224646 34.78399670 66.69670605     6     551    0    0    0
H 383.60486010 36.45644762 66.69856674     6     551    0    0    0
C 384.70748434 35.51150173 70.33656070     2     551   555   556   557
H 382.80363662 35.82675016 71.18037078     6    554    0    0    0
H 385.44383971 33.95540100 71.42105702     6    554    0    0    0
C 386.23961587 37.75107350 70.86598404     2    554   558   559   560
H 388.01567828 37.42143427 69.87033220     6    557    0    0    0
H 385.51396960 39.52283204 69.96353320     6    557    0    0    0
C 386.81803143 37.98791981 73.74226949     2    557   561   562   563
H 385.01602159 38.11171656 74.80590320     6    560    0    0    0
H 387.84579502 36.42489384 74.70664285     6    560    0    0    0
C 388.28990488 40.28218051 74.74283011     2    560   564   565   566
H 387.24509893 42.09359192 74.38933886     6    563    0    0    0
H 388.38477515 40.13333706 76.77647522     6    563    0    0    0
C 391.01226862 40.60451794 73.72311265     2    563   567   568   569
H 392.12698231 38.93333327 74.05740033     6    566    0    0    0
H 390.51254805 40.87004644 71.73598225     6    566    0    0    0
C 392.14050675 43.07399497 74.74509797     2    566   570   571   572
H 390.88713898 44.73683030 74.12318099     6    569    0    0    0
H 391.88932003 43.09397284 76.72955329     6    569    0    0    0
C 394.89055928 43.53657629 74.34447410     2    569   573   574   575
H 395.70894727 44.79408026 75.80253993     6    572    0    0    0
H 395.98260330 41.81149120 74.34918669     6    572    0    0    0
C 395.46653887 44.93802974 71.90493800     2    572   576   577   578
H 393.93196319 46.10442004 71.26268566     6    575    0    0    0
H 397.03793362 46.29886582 72.42254574     6    575    0    0    0
C 396.04616123 43.03405309 69.79801696     1    575   579   580   581
H 397.85118725 42.29048278 69.75392584     6    578    0    0    0
H 395.72355271 43.96745738 67.94539238     6    578    0    0    0
H 394.72981070 41.35967267 69.77792479     6    578    0    0    0
H 398.01079436 61.09941527 34.58241565     6     583    0    0    0 
C 397.58742599 61.32275591 36.64740838     1     582    584    585    586
H 398.22782419 63.14529962 37.29611625     6     583    0    0    0
H 395.42632730 61.30781447 36.79068780     6     583    0    0    0
C 399.02105737 59.21429531 38.06442350     2     583    587    588    589
H 398.20150643 57.36043588 37.87157907     6     586    0    0    0
H 400.86295872 58.95803534 37.36931416     6     586    0    0    0
C 399.11303068 59.80753964 40.95244535     2     586    590   591   592
H 399.71780619 61.79502057 41.23031906     6     589    0    0    0
H 397.16228877 59.83526102 41.78108725     6     589    0    0    0
C 400.91003514 58.01941971 42.45896251     2     589   593   594   595
H 400.80720248 56.09931760 41.74825338     6    592    0    0    0
H 402.98322849 58.79790293 42.15611155     6    592    0    0    0
C 400.52259605 57.79068397 45.39388558     2    592   596   597   598
H 400.49606028 59.69369948 46.33065837     6    595    0    0    0
H 398.53982590 57.22851905 45.67236564     6    595    0    0    0
C 402.19033917 55.76392895 46.63070863     2    595   599   600   601
H 401.55464644 53.90321942 45.99371152     6    598    0    0    0
H 404.23962467 55.90717678 46.19519775     6    598    0    0    0
C 402.02080066 55.79668377 49.49289136     2    598   602   603   604
H 402.09399526 57.76006695 50.15146923     6    601    0    0    0
H 400.14484057 54.99073505 49.94469081     6    601    0    0    0
C 403.98052804 54.08297432 50.73072080     2    601   605   606   607
H 403.64470545 52.02219286 50.64840734     6    604    0    0    0
H 405.81411429 54.30513811 49.75834087     6    604    0    0    0
C 404.35660782 54.89578636 53.51062858     2    604   608   609   610
H 404.73947385 56.88248642 53.69050496     6    607    0    0    0
H 402.85141227 54.50795540 54.87038340     6    607    0    0    0
C 406.74160713 53.66290823 54.53307310     2    607   611   612   613
H 408.41806754 54.41102172 53.50342111     6    610    0    0    0
H 407.06050757 54.83362757 56.32683265     6    610    0    0    0
C 406.75760104 50.92393781 55.15679844     2    610   614   615   616
H 404.79858243 50.21301033 55.58991466     6    613    0    0    0
H 407.20724020 50.17798335 53.38879889     6    613    0    0    0
C 408.67947917 50.17483222 57.35373607     1    613   617   618   619
H 408.05740447 48.43027682 58.10297211     6    616    0    0    0
H 408.79242237 51.52043421 58.85430403     6    616    0    0    0
H 410.54430608 49.85761866 56.72414759     6    616    0    0    0
H 368.87696932 48.77875398 64.47172178     6     621    0    0    0 
C 369.78228425 49.38171433 62.72639105     1     620    622    623    624
H 371.22009333 47.96215547 62.39820684     6     621    0    0    0
H 368.19626035 49.10828930 61.32841699     6     621    0    0    0
C 370.47355060 52.24753286 62.85760006     2     621    625    626    627
H 371.52859064 52.83218033 61.13267648     6     624    0    0    0
H 368.77262723 53.32433489 63.10687014     6     624    0    0    0
C 372.16162037 52.79038924 65.10371005     2     624    628   629   630
H 371.10271545 52.32851234 66.80763144     6     627    0    0    0
H 373.76199425 51.58072505 65.16721259     6     627    0    0    0
C 373.18123646 55.33655769 65.17185683     2     627   631   632   633
H 374.63518105 55.44785800 66.65265101     6    630    0    0    0
H 374.20137022 55.74077751 63.36985272     6    630    0    0    0
C 371.02485345 57.37946077 65.31713049     2    630   634   635   636
H 369.56503082 57.54294603 63.78826901     6    633    0    0    0
H 369.89619173 57.20245022 67.08482067     6    633    0    0    0
C 372.18319611 60.01664732 65.54544282     2    633   637   638   639
H 373.56597367 59.88358307 67.16683544     6    636    0    0    0
H 373.45077895 60.54363231 64.03650138     6    636    0    0    0
C 370.16536639 62.03213046 66.18067421     2    636   640   641   642
H 368.66319248 61.82717070 64.78920601     6    639    0    0    0
H 369.19883763 61.47513509 67.83986965     6    639    0    0    0
C 371.19306278 64.76042123 66.01576203     2    639   643   644   645
H 372.83424197 64.81445404 67.14824858     6    642    0    0    0
H 371.70087572 65.12841660 64.00049200     6    642    0    0    0
C 369.15129782 66.54101674 66.92624417     2    642   646   647   648
H 367.86189775 66.73822288 65.35043142     6    645    0    0    0
H 368.06354333 65.52515535 68.38123285     6    645    0    0    0
C 370.27474225 69.06151024 67.58200320     2    645   649   650   651
H 371.54076442 69.09256471 69.24978701     6    648    0    0    0
H 371.29967294 69.65010247 65.87401121     6    648    0    0    0
C 368.32806795 71.01240542 68.18855111     2    648   652   653   654
H 366.86291370 71.22818509 66.71253932     6    651    0    0    0
H 367.07357533 70.36361662 69.62807240     6    651    0    0    0
C 369.30649566 73.62334068 69.08734040     1    651   655   656   657
H 370.58993860 74.30293526 67.61769619     6    654    0    0    0
H 370.32882176 73.66213101 70.83003930     6    654    0    0    0
H 367.81193134 74.97339709 68.94305540     6    654    0    0    0
H 391.76149879 52.93176928 43.85167514     6     659    0    0    0 
C 393.48446028 53.13021238 44.89888194     1     658    660    661    662
H 394.21905443 51.27342683 45.39156405     6     659    0    0    0
H 394.92317128 54.00042573 43.76414675     6     659    0    0    0
C 393.32526931 54.85429360 47.15382771     2     659    663    664    665
H 395.14625671 55.96021612 47.24686688     6     662    0    0    0
H 392.11195094 56.39628639 46.92549176     6     662    0    0    0
C 392.79910009 53.43769576 49.69734193     2     662    666   667   668
H 391.56718982 54.69721945 50.89710632     6     665    0    0    0
H 391.65978697 51.67421416 49.58549262     6     665    0    0    0
C 395.11554523 52.37811802 51.17605090     2     665   669   670   671
H 396.15603338 50.85888324 50.22401722     6    668    0    0    0
H 396.58479551 53.80069419 51.56489204     6    668    0    0    0
C 394.43179777 50.86081454 53.64311543     2    668   672   673   674
H 393.13182805 52.13331731 54.78609314     6    671    0    0    0
H 393.32921391 49.13800984 53.43888740     6    671    0    0    0
C 396.93060559 50.40942774 55.34568308     2    671   675   676   677
H 397.92820521 48.80738275 54.48057334     6    674    0    0    0
H 398.24591825 52.11386172 55.44051087     6    674    0    0    0
C 396.45170616 49.69732629 58.10943973     2    674   678   679   680
H 398.26696268 50.01941763 59.01524116     6    677    0    0    0
H 395.02102904 51.17437604 58.70612664     6    677    0    0    0
C 395.25574407 47.07996925 58.36641422     2    677   681   682   683
H 393.27114627 47.34886061 58.28850995     6    680    0    0    0
H 396.00908884 45.91313703 56.83559420     6    680    0    0    0
C 395.97938562 45.83621653 60.79097221     2    680   684   685   686
H 395.87669082 47.36655768 62.16160272     6    683    0    0    0
H 394.31443374 44.59015217 61.31969228     6    683    0    0    0
C 398.50448683 44.29268388 60.99677459     2    683   687   688   689
H 398.23048805 42.53207267 59.87120693     6    686    0    0    0
H 400.15199227 45.33434389 60.10212491     6    686    0    0    0
C 399.19718697 43.50770337 63.64212427     2    686   690   691   692
H 399.66616103 45.28884663 64.65100218     6    689    0    0    0
H 397.70617302 42.44314358 64.51809877     6    689    0    0    0
C 401.63064278 41.91152876 63.79625906     1    689   693   694   695
H 403.20200030 43.00283906 63.02461084     6    692    0    0    0
H 401.41977824 40.25254746 62.79289755     6    692    0    0    0
H 402.21268160 41.49721425 65.69081742     6    692    0    0    0
H 386.09895720 38.10296484 84.76748373     6     697    0    0    0 
C 384.33856146 39.11421361 84.60931788     1     696    698    699    700
H 382.88766613 37.81726211 85.33361260     6     697    0    0    0
H 384.39615715 40.77769181 85.99526283     6     697    0    0    0
C 383.98920999 40.08737424 81.86156081     2     697    701    702    703
H 383.17503916 42.06237256 81.76822718     6     700    0    0    0
H 385.97335174 40.00213606 81.14576130     6     700    0    0    0
C 382.45490351 38.35164297 80.15700569     2     700    704   705   706
H 380.64432306 38.05770249 81.20311529     6     703    0    0    0
H 382.08801018 39.20184692 78.23166541     6     703    0    0    0
C 383.46736174 35.59344560 80.19780799     2     703   707   708   709
H 385.41137142 35.49448396 79.41498836     6    706    0    0    0
H 383.53452504 34.82552247 82.00311721     6    706    0    0    0
C 382.02581742 33.84677218 78.55411305     2    706   710   711   712
H 380.24032428 33.70390261 79.54697197     6    709    0    0    0
H 381.51339088 34.68864175 76.77576215     6    709    0    0    0
C 383.20520623 31.47814359 77.99416796     2    709   713   714   715
H 385.12948441 31.72264184 77.25908440     6    712    0    0    0
H 383.55166706 30.57217128 79.86656725     6    712    0    0    0
C 381.44632444 29.78342923 76.23140551     2    712   716   717   718
H 379.34676608 30.23880690 76.55264366     6    715    0    0    0
H 381.63261675 30.28427691 74.23822580     6    715    0    0    0
C 381.99065764 26.83781408 76.65503489     2    715   719   720   721
H 383.88425755 26.41091707 76.20087991     6    718    0    0    0
H 381.58288694 26.33936844 78.64084116     6    718    0    0    0
C 380.38307463 25.29089448 74.89742943     2    718   722   723   724
H 378.53348113 25.52138594 75.42167196     6    721    0    0    0
H 380.58744468 26.16620399 72.99201343     6    721    0    0    0
C 381.27946170 22.58380639 75.14768723     2    721   725   726   727
H 383.39241741 22.54675827 74.94203813     6    724    0    0    0
H 380.65802808 21.85574142 76.99084955     6    724    0    0    0
C 380.20179872 20.98551314 73.03064829     2    724   728   729   730
H 380.29607207 19.00053766 73.29300291     6    727    0    0    0
H 378.15663094 21.51667396 72.76042292     6    727    0    0    0
C 381.86108142 21.14989298 70.66605312     1    727   731   732   733
H 380.89540576 20.49122503 68.95270220     6    730    0    0    0
H 383.73407264 20.51675023 71.08273509     6    730    0    0    0
H 382.23296054 23.02809175 69.87278400     6    730    0    0    0
H 406.14563713 29.06805258 41.76439529     6     735    0    0    0 
C 406.12617170 29.05361241 39.67637775     1     734    736    737    738
H 408.06160851 29.50777207 39.09952654     6     735    0    0    0
H 405.60925614 27.08265137 39.19064305     6     735    0    0    0
C 404.22824636 31.19136056 38.81900145     2     735    739    740    741
H 405.08142877 32.92235831 39.62720803     6     738    0    0    0
H 404.38156397 31.18304987 36.71984447     6     738    0    0    0
C 401.59096091 30.99979178 40.06636763     2     738    742   743   744
H 401.21533649 29.00922765 40.24507046     6     741    0    0    0
H 401.71292448 31.58050996 42.09118051     6     741    0    0    0
C 399.38110846 32.23488312 38.52474894     2     741   745   746   747
H 400.02059958 34.17904494 37.89890275     6    744    0    0    0
H 399.06631358 31.18669965 36.71851964     6    744    0    0    0
C 396.83284644 32.29007943 39.90737699     2    744   748   749   750
H 396.71790722 33.43706530 41.56609767     6    747    0    0    0
H 395.52909406 33.32231762 38.68986659     6    747    0    0    0
C 395.62646169 29.75314950 40.40253476     2    747   751   752   753
H 396.60940325 28.55885864 41.83838078     6    750    0    0    0
H 393.76235324 30.23332071 41.00811513     6    750    0    0    0
C 395.28962553 28.10224872 37.93537863     2    750   754   755   756
H 394.65130702 29.19625992 36.27915374     6    753    0    0    0
H 396.99338012 27.63201923 37.01431091     6    753    0    0    0
C 393.72243143 25.73056738 38.34753678     2    753   757   758   759
H 394.73960962 24.54918106 39.74699327     6    756    0    0    0
H 391.83531079 26.30769728 39.00808156     6    756    0    0    0
C 393.31518205 24.02805149 36.06426303     2    756   760   761   762
H 392.49917460 25.12987473 34.43050836     6    759    0    0    0
H 395.25789258 23.53499594 35.48624352     6    759    0    0    0
C 391.73878538 21.72399251 36.78643338     2    759   763   764   765
H 392.11408645 20.55797872 38.44127335     6    762    0    0    0
H 389.77634735 22.44080529 37.02309454     6    762    0    0    0
C 391.60579626 19.69606836 34.64786051     2    762   766   767   768
H 391.15721348 20.81478055 32.91712217     6    765    0    0    0
H 393.36591459 19.05448076 34.23329762     6    765    0    0    0
C 389.60014941 17.70602662 34.93681470     1    765   769   770   771
H 389.80649941 16.30455289 36.54301772     6    768    0    0    0
H 389.30822148 16.69702306 33.32921239     6    768    0    0    0
H 387.97123830 18.84043101 35.48861897     6    768    0    0    0
H 364.42060670 56.99901459 60.58281381     6     773    0    0    0 
C 363.68117430 57.29686626 62.47721041     1     772    774    775    776
H 365.33122650 57.52866887 63.52823285     6     773    0    0    0
H 362.52132063 59.03410026 62.58603577     6     773    0    0    0
C 361.97100525 55.27549790 63.61122517     2     773    777    778    779
H 361.28613996 55.66567638 65.56683123     6     776    0    0    0
H 360.26900367 55.28423214 62.54919680     6     776    0    0    0
C 362.94919088 52.49916843 63.35402976     2     776    780   781   782
H 363.36070361 52.01659879 61.33558948     6     779    0    0    0
H 364.74433054 52.38803837 64.43162117     6     779    0    0    0
C 360.78634713 50.67430361 64.26988219     2     779   783   784   785
H 359.90654865 51.35263672 65.99979631     6    782    0    0    0
H 359.41325345 50.78393817 62.74066887     6    782    0    0    0
C 361.86789716 48.16054484 64.70470501     2    782   786   787   788
H 363.38791312 47.56547003 63.33671017     6    785    0    0    0
H 362.68639181 47.92481891 66.69581114     6    785    0    0    0
C 359.85757937 45.98176528 64.58423860     2    785   789   790   791
H 358.78966824 45.78194674 66.36448302     6    788    0    0    0
H 358.55850278 46.33756167 62.97983105     6    788    0    0    0
C 361.04538514 43.49196438 64.03288866     2    788   792   793   794
H 362.24378805 43.45506528 62.40576382     6    791    0    0    0
H 362.32512366 42.89560390 65.68411777     6    791    0    0    0
C 359.11258909 41.45975222 63.52983401     2    791   795   796   797
H 357.41806460 41.75361415 64.57959528     6    794    0    0    0
H 358.35346030 41.64989054 61.57508051     6    794    0    0    0
C 360.01446681 38.75493386 63.66972562     2    794   798   799   800
H 361.91948411 38.59672545 62.81359493     6    797    0    0    0
H 360.65632870 38.21168282 65.59937018     6    797    0    0    0
C 358.08188887 36.94149879 62.70542780     2    797   801   802   803
H 356.23198286 37.30694472 63.71352688     6    800    0    0    0
H 357.68466308 37.18547616 60.71892591     6    800    0    0    0
C 358.74229535 34.18153857 62.78320579     2    800   804   805   806
H 360.29799978 33.69732840 61.38816955     6    803    0    0    0
H 359.31710055 33.67929469 64.66701603     6    803    0    0    0
C 356.46976943 32.51418136 62.42890437     1    803   807   808   809
H 356.93619407 30.47860897 62.43816786     6    806    0    0    0
H 355.60801067 32.88807177 60.54829658     6    806    0    0    0
H 354.97103040 32.78165666 63.92093975     6    806    0    0    0
H 382.13984656 44.06553747 39.09061209     6     811    0    0    0 
C 381.22677359 43.77206974 40.99730059     1     810    812    813    814
H 382.46389300 42.38912567 41.93180465     6     811    0    0    0
H 381.29589119 45.55207583 41.98055822     6     811    0    0    0
C 378.48130514 42.88168016 40.46849324     2     811    815    816    817
H 378.75209505 41.25885875 39.27472039     6     814    0    0    0
H 377.89455882 42.15361799 42.30829178     6     814    0    0    0
C 376.70905861 44.96676929 39.36411676     2     814    818   819   820
H 376.69680432 46.49984381 40.80725897     6     817    0    0    0
H 377.51836056 45.70347910 37.50794053     6     817    0    0    0
C 373.99591405 43.85794068 39.26210388     2     817   821   822   823
H 373.74965173 42.21158985 38.13473039     6    820    0    0    0
H 373.44701712 43.10161890 41.16930104     6    820    0    0    0
C 371.90606026 45.93724560 38.51652089     2    820   824   825   826
H 370.19720855 45.31699379 39.33413545     6    823    0    0    0
H 372.61388280 47.60117452 39.49808598     6    823    0    0    0
C 371.53252893 46.22933015 35.60800376     2    823   827   828   829
H 373.42866681 46.42338241 34.73414616     6    826    0    0    0
H 370.81998439 44.52973453 34.65530765     6    826    0    0    0
C 370.11914825 48.61582555 34.90301951     2    826   830   831   832
H 368.20688250 48.46960540 35.43394022     6    829    0    0    0
H 371.05440343 50.01973194 36.16726827     6    829    0    0    0
C 370.49631280 49.40733621 32.16924528     2    829   833   834   835
H 372.47251728 49.52129921 31.72959838     6    832    0    0    0
H 369.71980102 47.93149796 30.89535555     6    832    0    0    0
C 369.45463715 52.06634537 31.31764845     2    832   836   837   838
H 367.65281474 52.49912881 32.31989425     6    835    0    0    0
H 370.78305515 53.53928339 31.84000391     6    835    0    0    0
C 368.77556434 52.19742045 28.52660740     2    835   839   840   841
H 370.27933518 51.53847856 27.29793304     6    838    0    0    0
H 367.15908095 50.95620080 28.16615669     6    838    0    0    0
C 368.28605743 54.96781569 27.80205639     2    838   842   843   844
H 366.70555302 55.69172512 28.95983006     6    841    0    0    0
H 369.77670977 56.23875986 28.38244051     6    841    0    0    0
C 368.02242325 55.39380947 25.02196444     1    841   845   846   847
H 366.06439706 55.72439637 24.84268233     6    844    0    0    0
H 368.60406797 53.64528365 24.10453655     6    844    0    0    0
H 368.81469577 57.06445086 24.15289494     6    844    0    0    0
H 400.08792322 50.06806969 67.69279898     6     849    0    0    0 
C 402.11575739 50.20578705 67.83522142     1     848    850    851    852
H 402.70391473 49.62735816 69.74448385     6     849    0    0    0
H 403.02793444 49.04364864 66.40881776     6     849    0    0    0
C 402.85756271 53.03705534 67.50441663     2     849    853    854    855
H 402.79565041 54.21335470 69.25352525     6     852    0    0    0
H 404.92652446 52.98846547 66.89063320     6     852    0    0    0
C 401.38284287 54.50476599 65.36265493     2     852    856   857   858
H 400.63690510 53.26000452 63.89602174     6     855    0    0    0
H 399.79249817 55.37753813 66.08347516     6     855    0    0    0
C 403.00503500 56.54408730 64.22363017     2     855   859   860   861
H 403.86456770 57.69265356 65.78056828     6    858    0    0    0
H 404.45745872 55.42623792 63.19066002     6    858    0    0    0
C 401.31125636 58.16318407 62.37868420     2    858   862   863   864
H 400.43813945 57.14880712 60.87914580     6    861    0    0    0
H 399.75511189 59.18298124 63.31240303     6    861    0    0    0
C 403.14369761 60.11265031 61.20974678     2    861   865   866   867
H 404.10015542 61.05131272 62.82328874     6    864    0    0    0
H 404.83640625 59.20686944 60.36228406     6    864    0    0    0
C 401.85329954 61.99410266 59.36920866     2    864   868   869   870
H 401.46752374 61.07443137 57.50861959     6    867    0    0    0
H 400.09174185 62.57257708 60.08914650     6    867    0    0    0
C 403.33791215 64.45056023 58.91029196     2    867   871   872   873
H 403.94125638 65.33506075 60.69808698     6    870    0    0    0
H 404.94013040 63.74057579 57.95759534     6    870    0    0    0
C 402.08714273 66.51188937 57.19468353     2    870   874   875   876
H 403.54801436 67.99031511 57.04323213     6    873    0    0    0
H 401.83992719 66.18663072 55.18095555     6    873    0    0    0
C 399.70859330 67.79428194 58.44567946     2    873   877   878   879
H 398.12778995 66.62523684 58.74083220     6    876    0    0    0
H 400.38047864 68.48047415 60.36381001     6    876    0    0    0
C 398.32648255 70.02488939 57.19897425     2    876   880   881   882
H 397.40369399 69.46134280 55.39098140     6    879    0    0    0
H 396.85888850 70.62499712 58.41867865     6    879    0    0    0
C 400.08927298 72.15281814 56.53227378     1    879   883   884   885
H 401.12496943 71.36583051 54.88392712     6    882    0    0    0
H 401.29693823 72.46573872 58.10737246     6    882    0    0    0
H 399.16968501 73.90064015 56.00804076     6    882    0    0    0
H 374.76629364 44.07184247 45.74665494     6     887    0    0    0 
C 375.00489706 42.85341139 47.29331884     1     886    888    889    890
H 373.38600607 43.08990966 48.52930752     6     887    0    0    0
H 375.14101346 40.85571696 46.84513388     6     887    0    0    0
C 377.47573084 43.77722494 48.65258223     2     887    891    892    893
H 377.42309597 45.84687481 48.83184160     6     890    0    0    0
H 377.49123454 43.00126447 50.60476619     6     890    0    0    0
C 379.82845888 43.05893150 47.19330098     2     890    894   895   896
H 379.83235047 41.14387277 46.83078806     6     893    0    0    0
H 380.01267194 44.05769049 45.37947532     6     893    0    0    0
C 382.08666217 43.66505407 48.84564978     2     893   897   898   899
H 381.82964335 45.56007995 49.76696962     6    896    0    0    0
H 382.09371656 42.33122517 50.47237944     6    896    0    0    0
C 384.55223120 43.37544542 47.41954453     2    896   900   901   902
H 384.57312294 41.45062297 46.47714337     6    899    0    0    0
H 384.81479468 44.69025201 45.79737852     6    899    0    0    0
C 386.70059681 43.78528471 49.29843534     2    899   903   904   905
H 386.30497119 45.55024909 50.18392363     6    902    0    0    0
H 386.67857421 42.27184362 50.60615555     6    902    0    0    0
C 389.25443800 44.05557966 48.09497149     2    902   906   907   908
H 389.86302380 42.12227685 47.27683231     6    905    0    0    0
H 389.29870586 45.31532345 46.50083739     6    905    0    0    0
C 391.36370543 44.84464670 49.89101711     2    905   909   910   911
H 390.60499176 46.45371316 50.93681076     6    908    0    0    0
H 391.53298920 43.39444559 51.30709181     6    908    0    0    0
C 393.92390529 45.45340752 48.90000058     2    908   912   913   914
H 393.80941196 44.80231804 47.02953670     6    911    0    0    0
H 394.25055277 47.50941096 48.71075542     6    911    0    0    0
C 396.00168081 43.78019842 50.15780285     2    911   915   916   917
H 395.87507089 43.90679150 52.19302419     6    914    0    0    0
H 395.79297836 41.81835772 49.56173750     6    914    0    0    0
C 398.58976642 44.84003392 49.29683377     2    914   918   919   920
H 398.68973424 44.92686348 47.24329742     6    917    0    0    0
H 398.72692746 46.87274438 49.83370720     6    917    0    0    0
C 400.87821006 43.15161814 50.09294563     1    917   921   922   923
H 400.53270493 41.29216507 49.24926727     6    920    0    0    0
H 400.83960719 42.94322576 52.16245445     6    920    0    0    0
H 402.63162100 44.02480846 49.66211378     6    920    0    0    0
H 396.83498015 58.38690938 52.73775630     6     925    0    0    0 
C 395.59711693 59.55580000 53.70577173     1     924    926    927    928
H 394.63323337 58.25700372 54.90256691     6     925    0    0    0
H 397.04360709 60.39619950 54.63970514     6     925    0    0    0
C 393.81200736 61.43658654 52.34710109     2     925    929    930    931
H 392.31956587 60.10613877 51.78659226     6     928    0    0    0
H 392.85124355 62.68142563 53.59748272     6     928    0    0    0
C 395.17784919 62.77661800 50.20915209     2     928    932   933   934
H 396.60405843 61.44976674 49.37968329     6     931    0    0    0
H 393.82097597 62.91949823 48.64214848     6     931    0    0    0
C 396.16477796 65.52006805 50.89499193     2     931   935   936   937
H 394.60548330 66.81648928 51.59077304     6    934    0    0    0
H 397.64978151 65.62894598 52.44272327     6    934    0    0    0
C 397.23347074 67.06718775 48.59879019     2    934   938   939   940
H 398.82831883 65.99860217 48.11112370     6    937    0    0    0
H 395.84641595 67.04010186 46.86721411     6    937    0    0    0
C 398.10150684 69.81229359 49.26070015     2    937   941   942   943
H 396.26023051 70.61793257 49.66273553     6    940    0    0    0
H 399.13934505 69.77418979 51.08047109     6    940    0    0    0
C 399.77606803 71.35581833 47.50734120     2    940   944   945   946
H 399.06806661 71.01140361 45.66003231     6    943    0    0    0
H 399.36221600 73.36947705 48.00701289     6    943    0    0    0
C 402.63209938 70.62541730 47.66293650     2    943   947   948   949
H 403.19681806 70.25141642 49.58814106     6    946    0    0    0
H 402.85538090 68.82169778 46.59881609     6    946    0    0    0
C 404.44947509 72.45177237 46.33183842     2    946   950   951   952
H 404.19512839 72.70250346 44.34118049     6    949    0    0    0
H 403.94972882 74.20218894 47.29493766     6    949    0    0    0
C 407.25058413 71.47312080 46.69963982     2    949   953   954   955
H 407.57547139 71.41601981 48.75657817     6    952    0    0    0
H 407.60955818 69.69181040 45.69677416     6    952    0    0    0
C 409.07776021 73.48316486 45.65584339     2    952   956   957   958
H 408.22033109 73.76204702 43.89729484     6    955    0    0    0
H 409.06439760 75.25125598 46.57335604     6    955    0    0    0
C 411.84155499 72.41306374 45.39449108     1    955   959   960   961
H 413.19150920 73.71159007 44.71198080     6    958    0    0    0
H 411.99073762 70.73570944 44.10565146     6    958    0    0    0
H 413.01592227 71.81152171 47.01746097     6    958    0    0    0
H 376.49196684 29.22437834 45.54179270     6     963    0    0    0 
C 376.66661014 27.20046047 45.26956878     1     962    964    965    966
H 376.53911968 26.83917841 43.36967610     6     963    0    0    0
H 378.60559440 26.82917343 45.76069986     6     963    0    0    0
C 374.76338545 25.75474224 46.89592566     2     963    967    968    969
H 372.86439792 26.46071656 46.51744557     6     966    0    0    0
H 374.71060053 23.69282231 46.52459607     6     966    0    0    0
C 375.54954463 26.25063233 49.74041867     2     966    970   971   972
H 377.39219316 25.25940191 50.16804149     6     969    0    0    0
H 375.83789319 28.19707990 50.26459581     6     969    0    0    0
C 373.75140656 24.98455914 51.60766597     2     969   973   974   975
H 371.72606108 25.46534765 51.33114288     6    972    0    0    0
H 373.84612253 23.05590240 51.37262611     6    972    0    0    0
C 374.48310721 25.34072521 54.52957257     2    972   976   977   978
H 376.32747436 24.39393825 54.85882706     6    975    0    0    0
H 374.88010984 27.21827203 55.13325839     6    975    0    0    0
C 372.49290831 24.07087547 56.32033017     2    975   979   980   981
H 370.50257047 24.77552889 56.33125439     6    978    0    0    0
H 372.38687380 21.98116002 55.93890345     6    978    0    0    0
C 373.59035319 24.04726374 59.01966047     2    978   982   983   984
H 375.48686230 23.13870208 59.28585593     6    981    0    0    0
H 374.12852643 25.98243039 59.61178929     6    981    0    0    0
C 371.80816858 22.65877234 60.97537202     2    981   985   986   987
H 370.18827304 23.95506207 61.39394595     6    984    0    0    0
H 370.93237893 20.81404352 60.37150938     6    984    0    0    0
C 373.19673584 22.32703212 63.42437474     2    984   988   989   990
H 371.85237032 21.53942823 64.73143880     6    987    0    0    0
H 374.41376720 20.82579336 62.97331948     6    987    0    0    0
C 374.50205235 24.78704433 64.47254699     2    987   991   992   993
H 376.24647927 24.94362680 63.14342605     6    990    0    0    0
H 373.40557477 26.47477189 64.10033411     6    990    0    0    0
C 375.42414814 24.80476776 67.13756176     2    990   994   995   996
H 373.93949427 24.19046643 68.48728259     6    993    0    0    0
H 376.72603029 23.17854126 67.15458670     6    993    0    0    0
C 376.89496596 27.23885406 67.90824595     1    993   997   998   999
H 378.53695622 26.68498517 68.97724383     6    996    0    0    0
H 375.61864056 28.06730627 69.35732789     6    996    0    0    0
H 377.15504197 28.60018575 66.31248293     6    996    0    0    0
H 374.23974105 29.09775809 30.97970624     6     1001    0    0    0 
C 374.83510254 27.28628205 31.47287449     1     1000    1002    1003    1004
H 373.40982508 25.94127702 30.72162150     6     1001    0    0    0
H 376.52364526 27.12177635 30.44003532     6     1001    0    0    0
C 375.40416072 27.10325236 34.34666098     2     1001    1005    1006    1007
H 377.08798101 28.14041126 34.91242910     6     1004    0    0    0
H 373.87022001 27.94055010 35.45335229     6     1004    0    0    0
C 375.71224418 24.38931110 34.97374742     2     1004    1008   1009   1010
H 373.83650987 23.47103285 34.45999120     6     1007    0    0    0
H 377.05981642 23.47473728 33.72117870     6     1007    0    0    0
C 376.51033795 24.00680576 37.74391815     2     1007   1011   1012   1013
H 378.49539875 24.72650661 37.95773307     6    1010    0    0    0
H 375.49676591 25.11936172 39.17970226     6    1010    0    0    0
C 376.13783929 21.24150039 38.62854831     2    1010   1014   1015   1016
H 374.17408820 20.85564559 38.76656583     6    1013    0    0    0
H 376.94593657 19.98980987 37.08983302     6    1013    0    0    0
C 377.42479642 20.72737365 41.21040856     2    1013   1017   1018   1019
H 379.41135468 20.92740132 41.16547332     6    1016    0    0    0
H 376.83950563 22.36279776 42.24527947     6    1016    0    0    0
C 376.66329523 18.21220975 42.30382612     2    1016   1020   1021   1022
H 374.84833510 17.51102655 41.64294338     6    1019    0    0    0
H 378.05180707 16.95307237 41.65309353     6    1019    0    0    0
C 376.56926621 18.44464991 45.32290485     2    1019   1023   1024   1025
H 374.98683751 19.67095352 45.76451808     6    1022    0    0    0
H 376.30827104 16.58325367 46.18428347     6    1022    0    0    0
C 379.18062147 19.21804165 46.58725169     2    1022   1026   1027   1028
H 380.59465655 17.78593332 45.96664712     6    1025    0    0    0
H 379.76908141 21.22761589 45.99925143     6    1025    0    0    0
C 379.07397556 18.99024311 49.43352868     2    1025   1029   1030   1031
H 378.36069062 20.71137541 50.24567116     6    1028    0    0    0
H 378.01329401 17.20950742 49.99135584     6    1028    0    0    0
C 381.72003894 18.64395879 50.63528099     2    1028   1032   1033   1034
H 382.73420727 16.95285660 49.95490739     6    1031    0    0    0
H 382.99224217 20.29471107 50.36448409     6    1031    0    0    0
C 381.28551425 18.39836861 53.46282217     1    1031   1035   1036   1037
H 379.65191714 17.30159562 54.01948991     6    1034    0    0    0
H 380.69243942 20.22283728 54.16573912     6    1034    0    0    0
H 383.07003951 18.13127275 54.46427380     6    1034    0    0    0
H 366.54286599 44.66664039 55.70375071     6     1039    0    0    0 
C 365.72104442 46.44573909 56.03250217     1     1038    1040    1041    1042
H 364.16506778 46.70319159 54.68524585     6     1039    0    0    0
H 364.69884171 46.40107692 57.83661182     6     1039    0    0    0
C 367.75591773 48.43228926 55.61933639     2     1039    1043    1044    1045
H 369.33471559 48.27373721 56.81553599     6     1042    0    0    0
H 368.54132588 48.14024062 53.78784988     6     1042    0    0    0
C 366.92744190 51.09861212 55.71201770     2     1042    1046   1047   1048
H 365.51709723 51.25160939 54.12551714     6     1045    0    0    0
H 365.78098405 51.34063045 57.36438617     6     1045    0    0    0
C 368.84411882 53.13092498 55.14935862     2     1045   1049   1050   1051
H 370.67582473 52.66478223 56.12361344     6    1048    0    0    0
H 369.28883363 53.24644875 53.17037779     6    1048    0    0    0
C 367.81156605 55.75820118 55.96966382     2    1048   1052   1053   1054
H 365.99131703 56.01746462 55.02759040     6    1051    0    0    0
H 367.48473349 55.74797410 58.03145903     6    1051    0    0    0
C 369.58448244 58.05716864 55.55803134     2    1051   1055   1056   1057
H 371.24329475 57.95228648 56.78926775     6    1054    0    0    0
H 370.06993717 58.16456582 53.43431223     6    1054    0    0    0
C 368.05334433 60.56951853 56.29941645     2    1054   1058   1059   1060
H 366.88935530 60.96546206 54.63774614     6    1057    0    0    0
H 366.84291632 60.38449097 57.91887372     6    1057    0    0    0
C 369.75787961 62.60198494 57.20770799     2    1057   1061   1062   1063
H 371.13907878 61.90246287 58.44746369     6    1060    0    0    0
H 370.77123599 63.27743629 55.72176294     6    1060    0    0    0
C 368.53476462 64.98310858 58.57757842     2    1060   1064   1065   1066
H 366.72133738 65.44737246 57.72013864     6    1063    0    0    0
H 367.96685407 64.54518517 60.56958638     6    1063    0    0    0
C 369.90261071 67.54565447 58.50920909     2    1063   1067   1068   1069
H 371.85420117 67.22057516 59.24083867     6    1066    0    0    0
H 370.03616080 67.79658501 56.52576887     6    1066    0    0    0
C 368.61267162 69.59058759 59.92822751     2    1066   1070   1071   1072
H 366.65084480 69.97873236 59.25420696     6    1069    0    0    0
H 368.39651121 69.18080473 61.99011305     6    1069    0    0    0
C 370.05434369 72.12128450 59.79044135     1    1069   1073   1074   1075
H 369.27501868 73.31500643 61.29582441     6    1072    0    0    0
H 370.06830636 73.02463073 57.98826015     6    1072    0    0    0
H 372.15510232 71.79099902 60.23013254     6    1072    0    0    0
H 378.79158112 75.47271278 67.52579695     6     1077    0    0    0 
C 379.46978456 75.36771075 65.53177159     1     1076    1078    1079    1080
H 380.20270460 77.14188801 64.86545801     6     1077    0    0    0
H 381.04867559 74.03756556 65.52447930     6     1077    0    0    0
C 377.33978545 74.42848631 63.69507051     2     1077    1081    1082    1083
H 376.56650917 72.74343168 64.57924851     6     1080    0    0    0
H 375.64235307 75.65925259 63.72834212     6     1080    0    0    0
C 378.32998943 74.56220447 60.89512374     2     1080    1084   1085   1086
H 376.65154375 74.23399076 59.62535873     6     1083    0    0    0
H 378.68666000 76.61704624 60.65741697     6     1083    0    0    0
C 380.19461461 72.44130282 60.21134327     2     1083   1087   1088   1089
[...]
 1763      H     401.6326562200    28.3774579600    57.7674773900
 1764      C     399.0966619900    26.5622613800    60.4962616000
 1765      H     397.5751838600    27.9386113400    60.4384741600
 1766      H     398.1062473800    24.7440188700    60.5128704800
 1767      C     400.7098737200    27.1649133800    62.7808055000
 1768      H     402.1306627100    25.8421573000    62.6549433600
 1769      H     401.5177258100    29.1117650300    62.7100678700
 1770      C     399.3397878500    27.1213814600    65.2623492700
 1771      H     398.1986710400    28.7887185900    65.5435668100
 1772      H     398.2382467000    25.4208439700    65.2182146200
 1773      C     400.9952028400    26.9179175500    67.6550791400
 1774      H     402.3217212200    25.4566502700    67.2932100500
 1775      H     402.4162751800    28.5106930400    67.8270400300
 1776      C     399.7432171400    26.4931294800    70.2550624300
 1777      H     398.2723368200    28.0148967700    70.6984160700
 1778      H     398.5280114100    24.8732411600    70.3995034400
 1779      C     401.5322926000    26.3323822500    72.3889719100
 1780      H     402.9100316100    24.9186476300    71.9239269800
 1781      H     402.5764699500    28.1265366500    72.4881267200
 1782      C     400.2100178700    25.6738346500    74.8872976800
 1783      H     399.0753061200    27.3160769200    75.3807570400
 1784      H     398.7205831900    24.0979948000    74.6879888200
 1785      C     402.0038213600    24.9012808300    77.0787906800
 1786      H     401.9107368100    22.7988082200    76.8330282600
 1787      H     403.9227234100    25.5407083200    77.1250873900
 1788      C     400.9230467300    25.5006750400    79.7433096800
 1789      H     402.0393065000    24.4531084700    81.0911039800
 1790      H     401.2905821800    27.6120998000    80.1463246400
 1791      C     398.0756631800    24.8888576000    80.1058731400
 1792      H     396.9584435500    26.0633791600    78.8665239400
 1793      H     397.7464790500    22.8357220400    79.6614425400
 1794      C     396.8195756700    25.3623305900    82.8404322100
 1795      H     397.2817422500    27.2841463200    83.3157861700
 1796      H     397.7034642400    24.2459061700    84.4601572300
 1797      H     394.7337066900    25.2501633700    82.8802267800
 1798      H     380.4346059300    62.7267498600    62.6117509100
 1799      C     382.0901246400    62.1205773900    63.5770016000
 1800      H     383.0817086200    63.8207263600    64.3324172100
 1801      H     381.7041512700    61.0496379100    65.3112016300
 1802      C     384.0720772500    60.8300251400    61.8835313900
 1803      H     385.8910334000    60.4100027800    62.9883502200
 1804      H     383.4465837000    58.9630812800    61.2060896800
 1805      C     385.1333052100    62.5178037800    59.7444946100
 1806      H     383.6248189200    63.2366669400    58.5946338700
 1807      H     386.3134509100    64.0590644400    60.5185646300
 1808      C     386.6456842600    60.8014729300    57.8630594000
 1809      H     387.9916579500    62.1234594900    57.0095240600
 1810      H     387.8426894800    59.3271019600    58.8229454600
 1811      C     384.8594107200    59.5610661700    55.8964424600
 1812      H     383.7034254700    58.3330439600    56.8072329500
 1813      H     383.5857117900    60.9230399700    55.0957434600
 1814      C     386.5259998800    58.2731977300    53.8035514400
 1815      H     387.6047821100    59.7237305100    52.9732893400
 1816      H     387.7378660700    57.0287883400    54.6178199100
 1817      C     384.8760401100    56.8351117200    51.8334591600
 1818      H     383.3525758300    55.8582786500    52.9189289600
 1819      H     383.8786366000    58.2917037700    50.7529225000
 1820      C     386.2914906000    54.8715206900    50.2443825200
 1821      H     387.8722395600    55.7826432400    49.3054531500
 1822      H     387.1342407500    53.3948796900    51.4769829400
 1823      C     384.6058394800    53.5839283700    48.4560525000
 1824      H     383.3836604200    52.2628709600    49.3068724800
 1825      H     383.3348964300    54.6991833500    47.3182510800
 1826      C     386.2661774500    52.5156176700    46.2761056200
 1827      H     387.6548955900    53.7558253600    45.3574012200
 1828      H     387.3768829400    51.1484384600    47.0287588900
 1829      C     384.9394672400    51.3003991800    44.1405426500
 1830      H     383.5017587200    49.9883956100    44.9313076000
 1831      H     383.9126333200    52.7116333800    43.0987501500
 1832      C     386.8462446300    49.7580190300    42.4747939000
 1833      H     388.0101744800    50.7856706100    41.2078854800
 1834      H     386.0983922900    48.1991345200    41.3113385400
 1835      H     387.9956514000    48.6826106200    43.7815056700
 1836      H     382.1954806900    46.3979697900    57.8549352600
 1837      C     382.4807376100    47.3222685300    55.9241875700
 1838      H     383.2934914000    45.8923871200    54.8100926300
 1839      H     380.6013535500    47.8670296100    55.2830399500
 1840      C     383.9606904500    49.8810262900    56.0709132100
 1841      H     384.4272749500    50.6659298800    54.2128388800
 1842      H     383.0370789100    51.1452270900    57.4206048800
 1843      C     386.4358169200    49.5894819400    57.4311025100
 1844      H     386.0850269300    48.6588693900    59.2093309900
 1845      H     387.5797722400    48.3782413400    56.3422252100
 1846      C     387.8083636200    52.1607032400    57.6301562900
 1847      H     388.9676536900    52.5473100800    56.0301370800
 1848      H     386.4972859000    53.7156400900    57.5735375300
 1849      C     389.4018733800    52.2874085100    60.1513291700
 1850      H     388.4353094300    51.6293313000    61.8572679400
 1851      H     390.9976708700    50.9004280900    60.0731782100
 1852      C     390.1116206200    55.1583059500    60.2401724700
 1853      H     390.9448742100    55.8446511800    58.4309432000
 1854      H     388.4053609300    56.0597385400    60.6737037200
 1855      C     392.1074620500    55.6371481900    62.2624252900
 1856      H     391.7235202700    54.6202339300    63.9615033400
 1857      H     393.8310142700    54.7834041800    61.5450960000
 1858      C     392.4290125500    58.4640941000    62.8410210400
 1859      H     393.2101285700    59.4876080300    61.2391352100
 1860      H     390.4850231300    59.2742047500    63.1458454700
 1861      C     394.1091402200    58.7891106300    65.0832707100
 1862      H     393.3254971400    57.7357837600    66.5902046900
 1863      H     395.7831122000    57.9904485000    64.4906211200
 1864      C     394.3740036500    61.5571967000    65.9649536300
 1865      H     395.4181109000    62.6065472300    64.3744263300
 1866      H     392.6717642400    62.3226305200    66.3786590700
 1867      C     396.2510217900    61.7138600700    68.2406049700
 1868      H     395.4808267900    60.7703834800    69.9747654100
 1869      H     398.0896877300    60.8208508300    67.9303474700
 1870      C     396.7268411000    64.5528241200    68.8891639700
 1871      H     397.9851096500    65.3043212600    67.5808494700
 1872      H     397.8250115100    64.7183150100    70.5870528800
 1873      H     395.1208334900    65.8094735400    69.0185058900
 1874      H     377.4538968400    42.4157783600    77.9223967700
 1875      C     375.4958935500    42.5732178800    78.2887462400
 1876      H     375.3917484900    42.8460494500    80.3589057500
 1877      H     374.6759200200    44.2018886500    77.2684630300
 1878      C     374.3391195900    40.0739903600    77.6332008500
 1879      H     375.4426508300    38.5815970800    78.7692983200
 1880      H     372.4862502500    39.9633418600    78.3598372600
 1881      C     374.2895069900    39.6246665900    74.7447996000
 1882      H     372.9550171900    40.9211359600    74.0890567100
 1883      H     376.1490643100    40.0256666900    73.9517599000
 1884      C     373.7324985200    36.8521700400    73.8333971900
 1885      H     374.6195918800    35.4863777900    75.0888870100
 1886      H     371.7196219700    36.7587371800    74.0624700600
 1887      C     374.3812160000    36.2637326600    71.0381894500
 1888      H     374.4506286300    37.7472635500    69.7107675500
 1889      H     376.4397646000    35.9150011600    70.9575354000
 1890      C     373.1492230200    33.8562036200    70.0101726200
 1891      H     373.8303568900    32.2440093800    71.0025824100
 1892      H     371.2060132300    33.8953040200    70.5052106100
 1893      C     373.7072167000    33.8757959400    67.0028547700
 1894      H     373.1003168400    35.7310417400    66.2057415400
 1895      H     375.7844563400    33.9123521900    66.7423976000
 1896      C     372.3203056100    31.7906094400    65.3806546500
 1897      H     372.5878173700    29.9076513900    66.1975632000
 1898      H     370.3778939700    31.8535355100    65.9545951000
 1899      C     372.6517424000    31.9474220700    62.3762056000
 1900      H     372.9744503900    33.9085830500    61.8820287800
 1901      H     374.3781459800    31.0439022900    61.5317552100
 1902      C     370.3265840300    30.9493794500    60.7318762900
 1903      H     370.4395359900    29.0264542700    59.8427017900
 1904      H     368.6324468800    30.8671084600    61.8269792900
 1905      C     369.7929847500    32.8125170200    58.5976679600
 1906      H     367.6745571000    32.8811953900    58.2825118700
 1907      H     370.1342086200    34.7274268000    59.0596713000
 1908      C     371.0864426700    32.0830870500    56.1268941300
 1909      H     370.7582057700    33.3453286800    54.4655695500
 1910      H     370.8972340700    30.1570370100    55.4099076600
 1911      H     372.9937941100    32.3451432200    56.7085082800
 ----------------------------------------------------------------
 Nuclear Repulsion Energy =           0.00000000 hartrees
 There are     2498 alpha and     2498 beta electrons

 Total QAlloc Memory Limit   2000 MB
 Mega-Array Size       204 MB
 MEM_STATIC part       192 MB
   **** Step 1: MM calculation on the entire system **** 
 OPLSAA force field loaded.
Reading user-defined FF parameters...
 Reading user defined atom types.
 Found 3 user defined AtomTypes
finished.
Determining angles, torsions, etc. from user defined input
Determining VDW/Coulomb pairs... (useList = 0)

 Time req'd to get MM system information: 0.2 s (CPU) 0.3 s (wall)

 ------ MM Energies ------
   Ebond:           566.576873455943
   Eangle:          907.300097402097
   EUreyBrad:         0.000000000000
   Eimptors:          0.000000000000
   Etorsion:        235.004686433837
   Evdw:        1089799.269173827488
   Ecoulomb:        184.747598364408
   Etot:        1091692.898429483874 Kcal/mol (   1739.723380891384 hartree)
 -------------------------
 Time req'd to calc MM energy: 0.1 s (CPU) 0.1 s (wall)
 OPLSAA force field loaded.
Reading user-defined FF parameters...
 Reading user defined atom types.
 Found 3 user defined AtomTypes
finished.
 Time req'd to get MM system information: 0.0 s (CPU) 0.0 s (wall)
 Time req'd to calc MM gradient: 0.2 s (CPU) 0.2 s (wall)
   **** Step 2: MM calculation on the model system **** 
 Reading user defined atom types.
 Found 3 user defined AtomTypes
 ----------------------------------------------------------------
             Standard Nuclear Orientation (Bohr)
    I     Atom           X                Y                Z
 ----------------------------------------------------------------
    1      Fe    380.1246558500    39.8153288300    60.5244855000
    2      C     378.5916653500    37.0197150200    59.3691518900
    3      C     381.5199758000    42.5158929400    62.0144086800
    4      C     383.1905481500    38.3941621800    60.3437354000
    5      C     379.6679007300    41.2079431400    57.4960164400
    6      C     377.8692375700    39.6694324400    63.1789903000
    7      O     377.4278824800    35.2169633600    58.8019957800
    8      O     382.3365742000    44.2217835000    62.9823774700
    9      O     385.0803004100    37.3529816300    59.9467263700
   10      O     379.8791083900    42.0446544800    55.3584469100
   11      O     376.5377691300    39.4116928400    64.9539801400
 ----------------------------------------------------------------
 Nuclear Repulsion Energy =         801.67875496 hartrees
 There are       48 alpha and       48 beta electrons
 OPLSAA force field loaded.
Reading user-defined FF parameters...
 Reading user defined atom types.
 Found 3 user defined AtomTypes
finished.
Determining VDW/Coulomb pairs... (useList = 0)

 No MM bonds in system. Return all possible pairs.
 Time req'd to get MM system information: 0.0 s (CPU) 0.0 s (wall)

 ------ MM Energies ------
   Ebond:             0.000000000000
   Eangle:            0.000000000000
   EUreyBrad:         0.000000000000
   Eimptors:          0.000000000000
   Etorsion:          0.000000000000
   Evdw:        1090226.991558575071
   Ecoulomb:         -6.431194990319
   Etot:        1090220.560363584664 Kcal/mol (   1737.377060821421 hartree)
 -------------------------
 Eold: 1739.7233809 mm_energy: 1737.3770608 Enew:    2.3463201
 Time req'd to calc MM energy: 0.0 s (CPU) 0.0 s (wall)
 OPLSAA force field loaded.
Reading user-defined FF parameters...
 Reading user defined atom types.
 Found 3 user defined AtomTypes
finished.
Determining VDW/Coulomb pairs... (useList = 0)

 No MM bonds in system. Return all possible pairs.
 Time req'd to get MM system information: 0.0 s (CPU) 0.0 s (wall)
 Number of fixed atoms: 0
 Time req'd to calc MM gradient: 0.0 s (CPU) 0.0 s (wall)
   **** Step 3: QM calculation on the model system **** 
 Requested basis set is def2-mSVP
 There are 80 shells and 174 basis functions

                       Distance Matrix (Bohrs)
             Fe(  1)   C (  2)   C (  3)   C (  4)   C (  5)   C (  6)
   C (  2)  3.391211
   C (  3)  3.385238  6.766118
   C (  4)  3.384092  4.897820  4.750855
   C (  5)  3.364465  4.712555  5.055372  5.332533
   C (  6)  3.486344  4.696570  4.773518  6.162900  6.156167
   O (  7)  5.602189  2.219453  8.963214  6.758688  6.528024  6.259182
   O (  8)  5.509143  8.885355  2.124584  6.453904  6.804793  6.381195
   O (  9)  5.563755  6.522810  6.603550  2.193818  7.082427  8.234859
   O ( 10)  5.631886  6.556926  6.871415  7.010337  2.305189  8.416778
   O ( 11)  5.713939  6.413295  6.565023  8.157769  8.285256  2.233792
             O (  7)   O (  8)   O (  9)   O ( 10)
   O (  8) 11.075091
   O (  9)  8.026985  7.995227
   O ( 10)  8.030187  8.300804  8.373560
   O ( 11)  7.498998  7.787832 10.113640 10.496251

 A cutoff of  1.0D-11 yielded   2484 shell pairs
 There are     12732 function pairs (     14551 Cartesian)
 Smallest overlap matrix eigenvalue = 2.37E-03
 Guess MOs from SCF MO coefficient file
 Reading MOs from coefficient file
 Reading MOs from coefficient file
 A restricted Kohn-Sham SCF calculation will be
 performed using Pulay DIIS extrapolation
 Exchange:  B88      Correlation:  P86
 Using SG-1 standard quadrature grid
 SCF converges when DIIS error is below 1.0E-08
 Using Q-Chem read-in guess as SCF_GUESS READ specified.

 using 2 threads for integral computing
 -------------------------------------------------------
 OpenMP Integral computing Module                
 Release: version 1.0, May 2013, Q-Chem Inc. Pittsburgh 
 -------------------------------------------------------
 ---------------------------------------
  Cycle       Energy         DIIS Error
 ---------------------------------------
    1   -1830.5147084539      3.10E-09
    2   -1830.5147084535      1.66E-08
    3   -1830.5147084538      1.20E-08
    4   -1830.5147084540      3.43E-10 Convergence criterion met
 ---------------------------------------
 SCF time:  CPU 5.39 s  wall 2.86 s
 E(QM + QM/MM):    -1830.5147084540 E(MM):    2.3463201 E(Tot): -1828.168388384081 
 SCF   energy in the final basis set = -1828.16838838
 Total energy in the final basis set = -1828.16838838

 --------------------------------------------------------------

                    Orbital Energies (a.u.)
 --------------------------------------------------------------

 Alpha MOs
 -- Occupied --
******** -29.6388 -25.5983 -25.5861 -25.5819 -18.8928 -18.8880 -18.8818
-18.8770 -18.8652 -10.0596 -10.0536 -10.0512 -10.0440 -10.0429  -3.3239
 -2.1597  -2.1360  -2.1264  -1.0879  -1.0550  -1.0517  -1.0435  -1.0089
 -0.5781  -0.5296  -0.5228  -0.5175  -0.5143  -0.4606  -0.4543  -0.4487
 -0.4384  -0.4347  -0.4309  -0.4267  -0.4158  -0.4149  -0.4097  -0.4011
 -0.3973  -0.3940  -0.3875  -0.3757  -0.2831  -0.2748  -0.2384  -0.2233
 -- Virtual --
 -0.0985  -0.0912  -0.0869  -0.0849  -0.0770  -0.0750  -0.0681  -0.0633
 -0.0439  -0.0374  -0.0265   0.0108   0.1881   0.2072   0.2191   0.2423
  0.2893   0.3079   0.3897   0.4037   0.4061   0.4080   0.4344   0.4476
  0.4495   0.4763   0.4847   0.4966   0.5373   0.5493   0.5608   0.5872
  0.5940   0.6117   0.6434   0.6639   0.7326   0.7551   0.7613   0.7657
  0.7944   0.8312   0.8352   0.8557   0.8694   0.8921   0.9499   0.9541
  0.9648   0.9844   0.9869   0.9945   1.0130   1.0234   1.0278   1.0783
  1.2041   1.2396   1.2502   1.3207   1.3991   1.4005   1.4046   1.4116
  1.4170   1.4275   1.4366   1.4445   1.4507   1.4641   1.4770   1.4935
  1.5110   1.5205   1.5471   1.5697   1.5973   1.6377   1.6721   1.6819
  1.7028   1.8226   1.8300   1.8367   1.8395   1.8434   1.8460   1.8560
  1.8574   1.8609   1.8690   1.8747   1.8849   1.8912   1.9095   1.9607
  2.3636   2.3748   2.4028   2.4344   2.4433   2.4562   2.4690   2.4820
  2.5004   2.5268   2.6242   2.6355   2.6558   2.6811   2.6887   2.7986
  2.8325   2.8714   2.8831   2.9978  13.2506  13.2953  13.3315  13.3401
 13.4503  24.9071  24.9156  24.9549  24.9659  25.0204
 --------------------------------------------------------------

          Ground-State Mulliken Net Atomic Charges

     Atom                 Charge (a.u.)
  ----------------------------------------
      1 Fe                   -0.513534
      2 C                     0.212608
      3 C                     0.191284
      4 C                     0.242125
      5 C                     0.250873
      6 C                     0.211854
      7 O                    -0.116846
      8 O                    -0.071817
      9 O                    -0.113951
     10 O                    -0.168950
     11 O                    -0.123645
  ----------------------------------------
  Sum of atomic charges =     0.000000

 -----------------------------------------------------------------
                    Cartesian Multipole Moments
 -----------------------------------------------------------------
    Charge (ESU x 10^10)
                -0.0000
    Dipole Moment (Debye)
         X       0.1242050142      Y       0.1313533706      Z       0.6234784687
       Tot       0.6491579118
    Quadrupole Moments (Debye-Ang)
        XX     -19.3386     XY      29.2315     YY     -63.2609
        XZ     130.5527     YZ      18.6010     ZZ     -31.4356
    Octopole Moments (Debye-Ang^2)
       XXX  -26756.9440    XXY    4993.9540    XYY  -12664.2524
       YYY   -4162.5666    XXZ   25075.1671    XYZ    3854.9419
       YYZ   -1691.6895    XZZ   -6119.1254    YZZ    -449.3983
       ZZZ   -4925.2601
    Hexadecapole Moments (Debye-Ang^3)
      XXXX ************   XXXY  534148.3269   XXYY ************
      XYYY -836119.4095   YYYY -178088.7417   XXXZ 4358681.0871
      XXYZ  751730.5398   XYYZ -337868.6545   YYYZ -125569.2896
      XXZZ ************   XYZZ  -85993.9500   YYZZ  -75494.2123
      XZZZ -982788.3714   YZZZ  -95834.0108   ZZZZ -356332.5689
 -----------------------------------------------------------------
 Calculating MO derivatives via CPSCF
 Full subspace dimension requested for CIS/TDDFT
 MAX_CIS_SUBSPACE fits in available memory
    1     0    36    0.0415208  
    2     0    36    0.0057548  
    3     0    36    0.0006443  
