                  Welcome to Q-Chem
     A Quantum Leap Into The Future Of Chemistry


 Q-Chem 5.4 (devel), Q-Chem, Inc., Pleasanton, CA (2021)

 E. Epifanovsky,  A. T. B. Gilbert,  Xintian Feng,  Joonho Lee,  Yuezhi Mao,  
 N. Mardirossian,  P. Pokhilko,  A. White,  M. Wormit,  M. P. Coons,  
 A. L. Dempwolff,  Zhengting Gan,  D. Hait,  P. R. Horn,  L. D. Jacobson,  
 I. Kaliman,  J. Kussmann,  A. W. Lange,  Ka Un Lao,  D. S. Levine,  Jie Liu,  
 S. C. McKenzie,  A. F. Morrison,  K. Nanda,  F. Plasser,  D. R. Rehn,  
 M. L. Vidal,  Zhi-Qiang You,  Ying Zhu,  B. Alam,  B. Albrecht,  
 A. Aldossary,  E. Alguire,  J. H. Andersen,  D. Barton,  K. Begam,  A. Behn,  
 Y. A. Bernard,  E. J. Berquist,  H. Burton,  A. Carreras,  K. Carter-Fenk,  
 R. Chakraborty,  A. D. Chien,  K. D. Closser,  V. Cofer-Shabica,  
 S. Dasgupta,  Jia Deng,  M. de Wergifosse,  M. Diedenhofen,  Hainam Do,  
 S. Ehlert,  Po-Tung Fang,  S. Fatehi,  Qingguo Feng,  T. Friedhoff,  
 J. Gayvert,  Qinghui Ge,  G. Gidofalvi,  M. Goldey,  J. Gomes,  
 C. Gonzalez-Espinoza,  S. Gulania,  A. Gunina,  M. W. D. Hanson-Heine,  
 P. H. P. Harbach,  A. W. Hauser,  M. F. Herbst,  M. Hernandez Vera,  
 M. Hodecker,  Z. C. Holden,  S. Houck,  Xunkun Huang,  Kerwin Hui,  
 B. C. Huynh,  M. Ivanov,  Hyunjun Ji,  Hanjie Jiang,  B. Kaduk,  S. Kaehler,  
 K. Khistyaev,  Jaehoon Kim,  P. Klunzinger,  Z. Koczor-Benda,  
 Joong Hoon Koh,  D. Kosenkov,  L. Koulias,  T. Kowalczyk,  C. M. Krauter,  
 K. Kue,  A. Kunitsa,  T. Kus,  A. Landau,  K. V. Lawler,  D. Lefrancois,  
 S. Lehtola,  Rain Li,  Yi-Pei Li,  Jiashu Liang,  M. Liebenthal,  
 Hung-Hsuan Lin,  You-Sheng Lin,  Fenglai Liu,  Kuan-Yu Liu,  
 M. Loipersberger,  A. Luenser,  A. Manjanath,  P. Manohar,  E. Mansoor,  
 S. F. Manzer,  Shan-Ping Mao,  A. V. Marenich,  T. Markovich,  S. Mason,  
 S. A. Maurer,  P. F. McLaughlin,  M. F. S. J. Menger,  J.-M. Mewes,  
 S. A. Mewes,  P. Morgante,  J. W. Mullinax,  K. J. Oosterbaan,  G. Paran,  
 Alexander C. Paul,  Suranjan K. Paul,  F. Pavosevic,  Zheng Pei,  S. Prager,  
 E. I. Proynov,  E. Ramos,  B. Rana,  A. E. Rask,  A. Rettig,  R. M. Richard,  
 F. Rob,  E. Rossomme,  T. Scheele,  M. Scheurer,  M. Schneider,  
 N. Sergueev,  S. M. Sharada,  W. Skomorowski,  D. W. Small,  C. J. Stein,  
 Yu-Chuan Su,  E. J. Sundstrom,  Zhen Tao,  J. Thirman,  T. Tsuchimochi,  
 N. M. Tubman,  S. P. Veccham,  O. Vydrov,  J. Wenzel,  J. Witte,  A. Yamada,  
 Kun Yao,  S. Yeganeh,  S. R. Yost,  A. Zech,  Igor Ying Zhang,  Xing Zhang,  
 Yu Zhang,  D. Zuev,  A. Aspuru-Guzik,  A. T. Bell,  N. A. Besley,  
 K. B. Bravaya,  B. R. Brooks,  D. Casanova,  Jeng-Da Chai,  S. Coriani,  
 C. J. Cramer,  A. E. DePrince, III,  R. A. DiStasio Jr.,  A. Dreuw,  
 B. D. Dunietz,  T. R. Furlani,  W. A. Goddard III,  S. Grimme,  
 S. Hammes-Schiffer,  T. Head-Gordon,  W. J. Hehre,  Chao-Ping Hsu,  
 T.-C. Jagau,  Yousung Jung,  A. Klamt,  Jing Kong,  D. S. Lambrecht,  
 WanZhen Liang,  N. J. Mayhall,  C. W. McCurdy,  J. B. Neaton,  
 C. Ochsenfeld,  J. A. Parkhill,  R. Peverati,  V. A. Rassolov,  Yihan Shao,  
 L. V. Slipchenko,  T. Stauch,  R. P. Steele,  J. E. Subotnik,  
 A. J. W. Thom,  A. Tkatchenko,  D. G. Truhlar,  T. Van Voorhis,  
 T. A. Wesolowski,  K. B. Whaley,  H. L. Woodcock III,  P. M. Zimmerman,  
 S. Faraji,  P. M. W. Gill,  M. Head-Gordon,  J. M. Herbert,  A. I. Krylov

 Additional authors for Version 5.4.1: 
 S. Kotaru,  Shaozhi Li,  Xiangyuan Li,  F. Matz,  A. Molle,  Haisheng Ren,  
 Yingli Su,  Hung-Yi Tsai,  C. Utku,  Fang Wang

 Contributors to earlier versions of Q-Chem not listed above: 
 R. D. Adamson,  B. Austin,  R. Baer,  J. Baker,  G. J. O. Beran,  
 K. Brandhorst,  S. T. Brown,  E. F. C. Byrd,  A. K. Chakraborty,  
 G. K. L. Chan,  Chun-Min Chang,  Yunqing Chen,  C.-L. Cheng,  
 Siu Hung Chien,  D. M. Chipman,  D. L. Crittenden,  H. Dachsel,  
 R. J. Doerksen,  A. D. Dutoi,  R. G. Edgar,  J. Fosso-Tande,  
 L. Fusti-Molnar,  D. Ghosh,  A. Ghysels,  A. Golubeva-Zadorozhnaya,  
 J. Gonthier,  M. S. Gordon,  S. R. Gwaltney,  G. Hawkins,  J. E. Herr,  
 A. Heyden,  S. Hirata,  E. G. Hohenstein,  G. Kedziora,  F. J. Keil,  
 C. Kelley,  Jihan Kim,  R. A. King,  R. Z. Khaliullin,  P. P. Korambath,  
 W. Kurlancheek,  A. Laurent,  A. M. Lee,  M. S. Lee,  S. V. Levchenko,  
 Ching Yeh Lin,  D. Liotard,  E. Livshits,  R. C. Lochan,  I. Lotan,  
 L. A. Martinez-Martinez,  P. E. Maslen,  N. Nair,  D. P. O'Neill,  
 D. Neuhauser,  E. Neuscamman,  C. M. Oana,  R. Olivares-Amaya,  R. Olson,  
 T. M. Perrine,  B. Peters,  P. A. Pieniazek,  A. Prociuk,  Y. M. Rhee,  
 J. Ritchie,  M. A. Rohrdanz,  E. Rosta,  N. J. Russ,  H. F. Schaefer III,  
 M. W. Schmidt,  N. E. Schultz,  S. Sharma,  N. Shenvi,  C. D. Sherrill,  
 A. C. Simmonett,  A. Sodt,  T. Stein,  D. Stuck,  K. S. Thanthiriwatte,  
 V. Vanovschi,  L. Vogt,  Tao Wang,  A. Warshel,  M. A. Watson,  
 C. F. Williams,  Q. Wu,  X. Xu,  Jun Yang,  W. Zhang,  Yan Zhao

 Please cite Q-Chem as follows:
 Y. Shao et al., Mol. Phys. 113, 184-215 (2015)
 DOI: 10.1080/00268976.2014.952696

 Q-Chem 5.4.1 for Intel X86 EM64T Linux

 Parts of Q-Chem use Armadillo 9.900.5 (Nocturnal Misbehaviour).
 http://arma.sourceforge.net/

 Q-Chem begins on Wed Jun  1 23:30:23 2022  

 Host: p09r14n13.grace.hpc.yale.internal
0

     Scratch files written to /home/tl686/scratch60/qchem_dev/scratch/qchem244188//
 Processing $rem in /home/tl686/qchem_dev/qchem/config/preferences:
 Processing $rem in /home/tl686/.qchemrc:
Applying user defined connections for MM calculations

 Checking the input file for inconsistencies... 	...done.

--------------------------------------------------------------
User input:
--------------------------------------------------------------
$molecule
0   1
 Fe 1118.04619977 41.44060491 -61.46130665    -1  0   0   0   0
C 1114.58948562 42.07031345 -61.99435795    -2  0   0   0   0 
C 1120.98984416 41.40993186 -63.33564835    -2  0   0   0   0
C 1118.70163508 44.82004637 -61.69352440    -2  0   0   0   0
C 1118.53157721 40.84519140 -58.18027483    -2  0   0   0   0
C 1117.56640300 38.22929033 -62.46724650    -2  0   0   0   0
O 1112.43626603 42.47591558 -61.87230953    -3  0   0   0   0
O 1122.84700724 41.52973377 -64.52408314    -3  0   0   0   0 
O 1119.33133931 46.96872689 -62.08204605    -3  0   0   0   0
O 1119.26131273 40.31232455 -56.16061540    -3  0   0   0   0 
O 1117.30931513 36.41620373 -63.51734546    -3  0   0   0   0
H 1113.09153481 67.35284651 -46.08474782      6     13    0    0    0 
C 1112.41469096 66.70722240 -47.87065899     1     12    14    15    16
H 1111.82357882 68.32144036 -49.17644062     6     13    0    0    0
H 1114.21713944 65.87905283 -48.39453715     6     13    0    0    0
C 1110.22211442 64.68240216 -47.61667039     2     13    17    18    19
H 1108.73627540 65.64318449 -46.58568004     6     16    0    0    0
H 1109.39111949 64.33281258 -49.56526161     6     16    0    0    0
C 1110.66182777 61.97925552 -46.60188708     2     16    20   21   22
H 1111.95422203 60.80565660 -47.63906540     6     19    0    0    0
H 1111.13440282 62.05852669 -44.70361134     6     19    0    0    0
C 1108.26548397 60.34775692 -46.28895668     2     19   23   24   25
H 1106.79115803 61.08737590 -44.96562853     6    22    0    0    0
H 1107.13458039 60.57272092 -48.01200249     6    22    0    0    0
C 1109.01746840 57.61799958 -45.56181289     2    22   26   27   28
H 1109.11676897 56.48913174 -47.37296973     6    25    0    0    0
H 1110.75828870 57.56373523 -44.45934749     6    25    0    0    0
C 1106.75077874 56.61178679 -44.13115523     2    25   29   30   31
H 1106.20748333 57.70263018 -42.45975169     6    28    0    0    0
H 1105.10543276 57.01224945 -45.41350927     6    28    0    0    0
C 1107.07990488 53.84114798 -43.72703227     2    28   32   33   34
H 1107.07522098 52.95069010 -45.55902146     6    31    0    0    0
H 1109.01339145 53.41419281 -43.03249665     6    31    0    0    0
C 1104.89787166 52.65820330 -42.14405518     2    31   35   36   37
H 1104.44051540 53.80868623 -40.41430898     6    34    0    0    0
H 1103.14929436 52.80862389 -43.28567291     6    34    0    0    0
C 1105.56395232 49.94685431 -41.47475124     2    34   38   39   40
H 1106.11727628 48.84430399 -43.16735193     6    37    0    0    0
H 1106.99419599 50.06161150 -40.06882770     6    37    0    0    0
C 1103.16490444 48.74262654 -40.31731502     2    37   41   42   43
H 1102.21882623 49.73555062 -38.84566810     6    40    0    0    0
H 1101.66907051 48.63246974 -41.76736137     6    40    0    0    0
C 1103.94611453 46.23011125 -39.20850906     2    40   44   45   46
H 1105.32549044 45.25824466 -40.42751990     6    43    0    0    0
H 1105.02301462 46.52920862 -37.49982028     6    43    0    0    0
C 1101.84668419 44.46048471 -38.59288513     1    43   47   48   49
H 1100.41181047 45.24854142 -37.50235837     6    46    0    0    0
H 1102.44727283 42.88379146 -37.44487475     6    46    0    0    0
H 1100.95484483 43.84984520 -40.31239045     6    46    0    0    0
H 1112.22612207 36.55018959 -54.73362002     6     51    0    0    0 
C 1111.74698989 38.48036351 -55.26409411     1     50    52    53    54
H 1113.45633233 39.67696175 -54.94025502     6     51    0    0    0
H 1111.72826000 38.40787927 -57.32758768     6     51    0    0    0
C 1109.48855057 39.69578917 -54.12361539     2     51    55    56    57
H 1109.12407593 41.19415388 -55.39896244     6     54    0    0    0
H 1107.90094844 38.48625917 -54.21392367     6     54    0    0    0
C 1109.88843673 40.21837129 -51.31393014     2     54    58   59   60
H 1111.57162166 39.39990588 -50.66370082     6     57    0    0    0
H 1110.06203239 42.25642524 -51.05023208     6     57    0    0    0
C 1108.06006236 38.69477374 -49.64029892     2     57   61   62   63
H 1106.08060371 38.98555622 -50.45581315     6    60    0    0    0
H 1108.44682633 36.74685012 -49.94304702     6    60    0    0    0
C 1108.16649664 38.99901044 -46.76188505     2    60   64   65   66
H 1110.09012456 38.79055675 -46.04060343     6    63    0    0    0
H 1108.06854713 41.04053436 -46.35968366     6    63    0    0    0
C 1106.28832886 37.51647829 -45.30492408     2    63   67   68   69
H 1106.19357536 38.00126318 -43.40141613     6    66    0    0    0
H 1104.47217148 37.64736214 -46.18817841     6    66    0    0    0
C 1106.93690208 34.74120960 -45.28015877     2    66   70   71   72
H 1106.63617874 34.24056333 -47.30720480     6    69    0    0    0
H 1108.94252185 34.41146019 -44.66640052     6    69    0    0    0
C 1105.18747909 33.20033976 -43.48638050     2    69   73   74   75
H 1105.44419520 33.81860794 -41.56191622     6    72    0    0    0
H 1103.20303587 33.70861204 -43.70596567     6    72    0    0    0
C 1105.74745471 30.39320646 -44.05216507     2    72   76   77   78
H 1105.38767266 30.24862934 -46.08088524     6    75    0    0    0
H 1107.81015612 30.05715738 -43.52075566     6    75    0    0    0
C 1103.78000082 28.63799196 -42.50070193     2    75   79   80   81
H 1104.06852247 29.14305390 -40.56220819     6    78    0    0    0
H 1101.86618988 29.10713284 -43.04732566     6    78    0    0    0
C 1104.42074843 25.85991165 -42.97061856     2    78   82   83   84
H 1104.07150163 25.23815975 -44.90783017     6    81    0    0    0
H 1106.44931754 25.28984113 -42.95158739     6    81    0    0    0
C 1103.08152912 24.35562991 -40.77528825     1    81   85   86   87
H 1103.63036476 22.48173328 -40.79161625     6    84    0    0    0
H 1101.00969357 24.55638122 -40.75725360     6    84    0    0    0
H 1103.80919800 25.10772868 -39.02849938     6    84    0    0    0
H 1125.90254676 64.89562748 -32.84065211     6     89    0    0    0 
C 1124.88885863 63.35106335 -33.83079010     1     88    90    91    92
H 1123.63079334 64.07225652 -35.21767312     6     89    0    0    0
H 1126.32345393 62.27348376 -34.71940505     6     89    0    0    0
C 1123.55248885 62.00436131 -31.60875083     2     89    93    94    95
H 1125.01892240 62.01915267 -30.12087209     6     92    0    0    0
H 1122.03188543 63.14551037 -30.86060344     6     92    0    0    0
C 1122.77000396 59.42697639 -32.21677308     2     92    96   97   98
H 1121.78708519 59.24588066 -33.92897605     6     95    0    0    0
H 1124.43627424 58.32555975 -32.41748049     6     95    0    0    0
C 1121.06993541 58.14374415 -30.19273681     2     95   99   100   101
H 1121.86432612 58.17492819 -28.34296392     6    98    0    0    0
H 1119.31048466 59.18642835 -30.07304755     6    98    0    0    0
C 1120.63480797 55.34352766 -30.68208955     2    98   102   103   104
H 1120.49682529 55.14655433 -32.75018254     6    101    0    0    0
H 1122.24718803 54.19159609 -29.89305223     6    101    0    0    0
C 1117.99317801 54.39218547 -29.68946590     2    101   105   106   107
H 1117.59514279 55.14502513 -27.85135236     6    104    0    0    0
H 1116.52269979 55.31297002 -30.74438397     6    104    0    0    0
C 1117.68396018 51.62489242 -30.08740213     2    104   108   109   110
H 1117.93329541 51.16774457 -31.97352697     6    107    0    0    0
H 1119.15891526 50.75372411 -28.91436874     6    107    0    0    0
C 1114.91493370 50.87052327 -29.41577462     2    107   111   112   113
H 1114.61024718 51.51494529 -27.41651082     6    110    0    0    0
H 1113.49559562 51.99256754 -30.37648192     6    110    0    0    0
C 1114.13243917 48.02628242 -29.49530566     2    110   114   115   116
H 1114.38390133 47.26675461 -31.36084501     6    113    0    0    0
H 1115.34562309 46.94473064 -28.27657400     6    113    0    0    0
C 1111.39349220 47.47977179 -28.44445602     2    113   117   118   119
H 1111.22332283 48.09330601 -26.58079046     6    116    0    0    0
H 1109.97609795 48.42293410 -29.56436216     6    116    0    0    0
C 1110.52116071 44.72041529 -28.78550200     2    116   120   121   122
H 1108.64325209 44.58549625 -28.15901400     6    119    0    0    0
H 1110.65850011 44.01907805 -30.62850099     6    119    0    0    0
C 1112.03321171 42.88321509 -27.14033904     1    119   123   124   125
H 1111.11890728 40.97247388 -27.72463992     6    122    0    0    0
H 1111.42222171 43.15226284 -25.15900179     6    122    0    0    0
H 1114.07411592 42.68033243 -27.27781270     6    122    0    0    0
H 1145.48332388 47.34836308 -41.77583947     6     127    0    0    0 
C 1143.69629759 47.78826365 -42.69442690     1     126    128    129    130
H 1142.52995777 46.04864856 -42.29436584     6     127    0    0    0
H 1142.87871269 49.28958592 -41.56975653     6     127    0    0    0
C 1143.79649051 48.39162127 -45.56646173     2     127    131    132    133
H 1144.95077602 50.09550697 -45.64391747     6     130    0    0    0
H 1144.66301541 46.89800215 -46.61210104     6     130    0    0    0
C 1141.04699986 48.71289163 -46.51430917     2     130    134   135   136
H 1140.01799164 47.01569172 -46.06811059     6     133    0    0    0
H 1140.19645223 50.26884039 -45.41219822     6     133    0    0    0
C 1140.90577801 49.44084525 -49.30754245     2     133   137   138   139
H 1142.05663658 51.05404357 -49.76164821     6    136    0    0    0
H 1141.48335923 47.95616640 -50.47778084     6    136    0    0    0
C 1138.13599435 49.87744754 -50.12023881     2    136   140   141   142
H 1137.26908538 48.11845790 -50.16072829     6    139    0    0    0
H 1137.01949191 51.21270255 -48.92145326     6    139    0    0    0
C 1138.05928991 50.94238267 -52.88947746     2    139   143   144   145
H 1138.41942862 53.12773792 -52.86426684     6    142    0    0    0
H 1139.36109332 49.86400677 -54.25179388     6    142    0    0    0
C 1135.25898065 50.69167206 -53.87198381     2    142   146   147   148
H 1134.64283262 48.72638011 -53.76360178     6    145    0    0    0
H 1133.91322131 51.28637067 -52.48346298     6    145    0    0    0
C 1134.77332572 51.82551570 -56.60380522     2    145   149   150   151
H 1135.28218497 53.80184436 -56.66772680     6    148    0    0    0
H 1136.26033881 51.02072589 -57.69360495     6    148    0    0    0
C 1132.18527073 51.35134659 -57.83292346     2    148   152   153   154
H 1131.79479836 49.35461015 -57.50840592     6    151    0    0    0
H 1130.66028553 52.56306059 -57.28680040     6    151    0    0    0
C 1132.41927093 51.74795506 -60.83687696     2    151   155   156   157
H 1132.93847034 53.71411829 -60.92593846     6    154    0    0    0
H 1134.03636114 50.64730609 -61.48523746     6    154    0    0    0
C 1129.93670422 51.58153569 -62.22398483     2    154   158   159   160
H 1128.89819290 49.91840722 -61.59940025     6    157    0    0    0
H 1128.82045258 53.25794606 -61.71932714     6    157    0    0    0
C 1130.31248316 51.34265502 -65.04827670     1    157   161   162   163
H 1132.20846451 50.70776143 -65.52787444     6    160    0    0    0
H 1130.02719182 53.17284518 -66.01350039     6    160    0    0    0
H 1129.12259634 49.92346159 -66.07327153     6    160    0    0    0
H 1134.59140347 32.32716992 -20.90534151     6     165    0    0    0 
C 1134.90618927 34.01957096 -22.03126931     1     164    166    167    168
H 1133.16747273 34.98033307 -22.32098072     6     165    0    0    0
H 1136.00855215 35.11904250 -20.59124643     6     165    0    0    0
C 1136.41663021 33.27465319 -24.43000890     2     165    169    170    171
H 1138.08372906 32.21978831 -23.73629947     6     168    0    0    0
H 1135.47085439 32.02994096 -25.82742986     6     168    0    0    0
C 1137.38955722 35.42944114 -26.00739379     2     168    172   173   174
H 1135.95650557 36.38348265 -26.93228650     6     171    0    0    0
H 1138.17232230 36.70553446 -24.51866138     6     171    0    0    0
C 1139.57174321 34.62724213 -27.89353811     2     171   175   176   177
H 1140.76612745 33.87232458 -26.66771282     6    174    0    0    0
H 1139.12851352 32.90134009 -29.14597719     6    174    0    0    0
C 1140.76809887 36.77725816 -29.59472842     2    174   178   179   180
H 1139.19335569 38.09617986 -30.14770163     6    177    0    0    0
H 1142.22410243 37.64978781 -28.34903646     6    177    0    0    0
C 1141.89956999 35.80369505 -32.09961948     2    177   181   182   183
H 1140.57106277 34.44380848 -32.74372072     6    180    0    0    0
H 1142.17131080 37.27295630 -33.63239716     6    180    0    0    0
C 1144.40480710 34.37738361 -31.90399421     2    180   184   185   186
H 1145.80682516 35.49487757 -30.84004702     6    183    0    0    0
H 1144.10828980 32.66691441 -30.78104957     6    183    0    0    0
C 1145.52283958 33.44084301 -34.43824409     2    183   187   188   189
H 1144.01973094 32.21458184 -35.07148295     6    186    0    0    0
H 1145.62502882 35.03899490 -35.94246343     6    186    0    0    0
C 1147.96465153 32.08055329 -34.41890546     2    186   190   191   192
H 1149.29541525 33.17978108 -33.23799617     6    189    0    0    0
H 1147.85234376 30.20745141 -33.67608902     6    189    0    0    0
C 1149.11052929 31.70066912 -36.98401110     2    189   193   194   195
H 1147.44432147 31.17174045 -38.22554889     6    192    0    0    0
H 1149.78784443 33.52387038 -37.54224616     6    192    0    0    0
C 1151.56038229 29.86773187 -37.29465448     2    192   196   197   198
H 1152.85281543 30.07771195 -35.74434213     6    195    0    0    0
H 1150.72184531 28.01458536 -37.36181698     6    195    0    0    0
C 1152.89089205 30.16361028 -39.75917930     1    195   199   200   201
H 1154.61282256 29.12631761 -39.54742981     6    198    0    0    0
H 1153.30876953 32.26746267 -40.14414643     6    198    0    0    0
H 1151.84366522 29.53976106 -41.51006775     6    198    0    0    0
H 1132.62367215 26.29322044 -33.97454661     6     203    0    0    0 
C 1134.58199810 26.76580479 -34.17818773     1     202    204    205    206
H 1134.66597487 27.12199073 -36.23490107     6     203    0    0    0
H 1135.10322894 28.37837817 -33.03359389     6     203    0    0    0
C 1135.90492880 24.39740282 -33.19310437     2     203    207    208    209
H 1138.02744648 24.76307848 -33.20465843     6     206    0    0    0
H 1135.33290953 24.07556241 -31.21204362     6     206    0    0    0
C 1135.13178377 21.79128967 -34.38997216     2     206    210   211   212
H 1136.09917420 20.22076146 -33.38359575     6     209    0    0    0
H 1133.09992436 21.68334157 -34.12739477     6     209    0    0    0
C 1135.76119105 21.68511155 -37.28170077     2     209   213   214   215
H 1135.36212989 23.34003448 -38.37254581     6    212    0    0    0
H 1137.80247588 21.71662379 -37.15683043     6    212    0    0    0
C 1135.16612046 19.12305198 -38.48840973     2    212   216   217   218
H 1136.34298976 17.75286659 -37.53132121     6    215    0    0    0
H 1133.25071530 18.51672774 -38.25136969     6    215    0    0    0
C 1135.97816873 18.91364465 -41.35260184     2    215   219   220   221
H 1135.01266112 20.43858678 -42.27241859     6    218    0    0    0
H 1137.97759139 19.03362879 -41.39762215     6    218    0    0    0
C 1135.12863007 16.18735674 -42.36261969     2    218   222   223   224
H 1135.99503239 14.61833049 -41.17005329     6    221    0    0    0
H 1133.06810540 16.14420098 -42.31591058     6    221    0    0    0
C 1136.08020909 15.76828298 -45.13563262     2    221   225   226   227
H 1135.61175573 17.30298082 -46.41275021     6    224    0    0    0
H 1138.05231179 15.47924920 -44.69408571     6    224    0    0    0
C 1135.10081269 13.23028620 -46.20921847     2    224   228   229   230
H 1135.30707344 11.64546641 -44.90576478     6    227    0    0    0
H 1133.05033473 13.32520325 -46.32404981     6    227    0    0    0
C 1136.52886742 12.46765894 -48.70949659     2    227   231   232   233
H 1136.77907438 14.22313225 -49.81301231     6    230    0    0    0
H 1138.38381111 11.53497510 -48.19340987     6    230    0    0    0
C 1135.12399825 10.59816748 -50.42591173     2    230   234   235   236
H 1134.79976124 8.82166929 -49.35773892     6    233    0    0    0
H 1133.25809659 11.42723571 -50.89249289     6    233    0    0    0
C 1136.62139994 10.16904512 -52.80016838     1    233   237   238   239
H 1138.63529836 9.51103074 -52.40443999     6    236    0    0    0
H 1136.88129372 11.88712145 -53.86138852     6    236    0    0    0
H 1135.58649598 8.84119861 -53.99491474     6    236    0    0    0
H 1110.56692809 29.04563541 -36.06790671     6     241    0    0    0 
C 1108.89746651 29.78911347 -36.99515790     1     240    242    243    244
H 1109.28014274 31.48235956 -38.09649966     6     241    0    0    0
H 1107.81432512 28.38733134 -38.02038437     6     241    0    0    0
C 1107.37413514 30.72930852 -34.72373026     2     241    245    246    247
H 1108.83146050 31.41977877 -33.43744347     6     244    0    0    0
H 1106.30796924 32.41805214 -35.10552449     6     244    0    0    0
C 1105.49690739 28.66306058 -33.77766913     2     244    248   249   250
H 1104.18008868 28.20600389 -35.35549457     6     247    0    0    0
H 1106.33716896 26.73573849 -33.38590510     6     247    0    0    0
C 1104.12773329 29.36045433 -31.36940991     2     247   251   252   253
H 1105.50922021 29.78485667 -29.96558053     6    250    0    0    0
H 1103.13158085 31.25821530 -31.60379961     6    250    0    0    0
C 1102.31115648 27.43410213 -30.06341243     2    250   254   255   256
H 1103.19136105 25.82933455 -29.12283138     6    253    0    0    0
H 1101.45191749 28.57357181 -28.45889157     6    253    0    0    0
C 1100.07450242 26.47917165 -31.78803983     2    253   257   258   259
H 1098.46524289 25.88035871 -30.60953045     6    256    0    0    0
H 1099.34591359 27.85052308 -33.02416667     6    256    0    0    0
C 1100.85390605 24.36989272 -33.58134156     2    256   260   261   262
H 1102.52447581 24.75855611 -34.76078960     6    259    0    0    0
H 1101.58703691 22.83506917 -32.46035568     6    259    0    0    0
C 1098.69787154 23.24225295 -35.01959423     2    259   263   264   265
H 1097.06530469 23.19240438 -33.77900157     6    262    0    0    0
H 1097.87383384 24.45794392 -36.40689099     6    262    0    0    0
C 1099.26997939 20.62010497 -36.11027397     2    262   266   267   268
H 1100.85480313 20.78460344 -37.44794955     6    265    0    0    0
H 1099.83377072 19.31371045 -34.61330898     6    265    0    0    0
C 1096.97127091 19.46504304 -37.31555490     2    265   269   270   271
H 1095.48933924 19.33080971 -35.83784611     6    268    0    0    0
H 1096.25400437 20.58997984 -38.98810960     6    268    0    0    0
C 1097.76176394 16.74283016 -38.29076928     2    268   272   273   274
H 1099.20449104 17.05098889 -39.80574903     6    271    0    0    0
H 1098.91408124 15.93823938 -36.75631315     6    271    0    0    0
C 1095.49187618 15.16180949 -39.05271815     1    271   275   276   277
H 1094.28642878 14.82188195 -37.41956162     6    274    0    0    0
H 1096.08317222 13.40282989 -39.88630503     6    274    0    0    0
H 1094.31263449 16.22379443 -40.33925792     6    274    0    0    0
H 1128.55864053 45.59333679 -28.93156138     6     279    0    0    0 
C 1128.63060012 43.62525277 -28.25789370     1     278    280    281    282
H 1130.59005219 42.92422685 -28.22608081     6     279    0    0    0
H 1127.68365995 43.60374503 -26.41477881     6     279    0    0    0
C 1127.21654459 41.79349767 -29.97333272     2     279    283    284    285
H 1125.18833490 42.39100311 -30.33330226     6     282    0    0    0
H 1128.12122274 41.77299074 -31.87898978     6     282    0    0    0
C 1126.90579351 39.00107652 -28.90393532     2     282    286   287   288
H 1128.65692968 38.23538936 -28.08174317     6     285    0    0    0
H 1125.61388220 39.15661292 -27.31934667     6     285    0    0    0
C 1125.59724601 37.27710924 -30.87941578     2     285   289   290   291
H 1124.08002386 38.21450511 -31.90247351     6    288    0    0    0
H 1126.90036803 36.72204173 -32.29418299     6    288    0    0    0
C 1124.37539044 34.86509549 -29.64744306     2    288   292   293   294
H 1125.61818186 34.15511483 -28.21031261     6    291    0    0    0
H 1122.49392740 35.29021295 -28.88839708     6    291    0    0    0
C 1123.78846146 32.88347663 -31.68777868     2    291   295   296   297
H 1122.51211049 33.81018433 -33.02001118     6    294    0    0    0
H 1125.45739529 32.51117256 -32.68123648     6    294    0    0    0
C 1122.86479985 30.37419511 -30.62839162     2    294   298   299   300
H 1124.11237150 29.73508297 -29.00571007     6    297    0    0    0
H 1120.97472194 30.52399505 -29.76039991     6    297    0    0    0
C 1123.30769447 28.36995728 -32.43856564     2    297   301   302   303
H 1122.33675991 28.94185709 -34.15442898     6    300    0    0    0
H 1125.32112975 28.23995519 -32.84306142     6    300    0    0    0
C 1122.35386723 25.77041261 -31.56698250     2    300   304   305   306
H 1123.45990024 25.02813823 -29.96635328     6    303    0    0    0
H 1120.53169661 25.87320296 -30.70835764     6    303    0    0    0
C 1122.27504315 23.81601267 -33.74102927     2    303   307   308   309
H 1120.92682618 24.29350770 -35.33592754     6    306    0    0    0
H 1124.20631044 23.73716267 -34.54194258     6    306    0    0    0
C 1121.17994331 21.16833320 -33.08149786     2    306   310   311   312
H 1122.28021217 20.40003899 -31.44762288     6    309    0    0    0
H 1119.31952192 21.33269057 -32.28886507     6    309    0    0    0
C 1121.14939642 19.34867587 -35.36318116     1    309   313   314   315
H 1120.21284740 20.30601284 -36.81932747     6    312    0    0    0
H 1120.41877138 17.48118739 -34.80859809     6    312    0    0    0
H 1123.09018008 19.04211014 -36.21758596     6    312    0    0    0
H 1124.32868039 46.90003741 -44.80618619     6     317    0    0    0 
C 1122.66532651 48.02322563 -44.85164325     1     316    318    319    320
H 1121.15799937 46.88793144 -45.58103404     6     317    0    0    0
H 1122.34504496 48.36902018 -42.79157251     6     317    0    0    0
C 1122.95602995 50.57589961 -46.24678258     2     317    321    322    323
H 1121.37113490 51.71890055 -46.12271486     6     320    0    0    0
H 1124.37121501 51.57205868 -44.94450235     6     320    0    0    0
C 1124.16164994 50.40070961 -48.92371793     2     320    324   325   326
H 1125.89772583 49.23438409 -48.71486670     6     323    0    0    0
H 1122.94213803 49.24452285 -50.13646052     6     323    0    0    0
C 1124.66397138 52.83489247 -50.13847220     2     323   327   328   329
H 1123.07718974 54.10291607 -49.77092116     6    326    0    0    0
H 1126.26077657 53.71372145 -49.07428728     6    326    0    0    0
C 1125.34779607 52.82108993 -52.97307264     2    326   330   331   332
H 1126.18942685 54.70412991 -53.56652652     6    329    0    0    0
H 1126.67925302 51.26323852 -53.45345014     6    329    0    0    0
C 1123.05223042 52.68353638 -54.67917976     2    329   333   334   335
H 1121.84441249 51.07574561 -54.34452351     6    332    0    0    0
H 1121.56808225 54.25590172 -54.33840627     6    332    0    0    0
C 1123.95214980 53.07920580 -57.59803642     2    332   336   337   338
H 1125.06379949 54.76919502 -57.71409696     6    335    0    0    0
H 1125.19763728 51.45556122 -58.21907071     6    335    0    0    0
C 1121.70748989 53.10973171 -59.42300729     2    335   339   340   341
H 1120.34166185 51.59823892 -59.10973715     6    338    0    0    0
H 1120.67493360 54.88381525 -59.02152331     6    338    0    0    0
C 1122.46488444 53.12244838 -62.19353439     2    338   342   343   344
H 1123.77019643 54.74530047 -62.76339476     6    341    0    0    0
H 1123.34758684 51.36260176 -62.28205460     6    341    0    0    0
C 1120.24530350 53.24350903 -63.94579889     2    341   345   346   347
H 1120.78074795 52.48860847 -65.85901933     6    344    0    0    0
H 1118.84621503 52.14897374 -63.13886994     6    344    0    0    0
C 1119.11009342 55.98330737 -64.08670553     2    344   348   349   350
H 1118.55199001 56.81726291 -62.31854074     6    347    0    0    0
H 1120.38422185 57.23216602 -65.02207816     6    347    0    0    0
C 1116.92636364 56.12049518 -66.07023554     1    347   351   352   353
H 1115.94349372 57.95492845 -66.12419669     6    350    0    0    0
H 1115.69820469 54.50746848 -65.78868870     6    350    0    0    0
H 1117.56345058 55.89698590 -68.03469794     6    350    0    0    0
H 1114.66428477 32.10731651 -38.33145472     6     355    0    0    0 
C 1114.90640375 34.06960262 -38.71714514     1     354    356    357    358
H 1114.54261402 34.63418541 -40.60382797     6     355    0    0    0
H 1113.54068504 34.86134268 -37.60400466     6     355    0    0    0
C 1117.62596310 34.59789443 -37.86054035     2     355    359    360    361
H 1117.78727618 34.89914629 -35.81658624     6     358    0    0    0
H 1118.77354327 32.89648576 -38.23858125     6     358    0    0    0
C 1118.81967096 36.76660992 -39.25521929     2     358    362   363   364
H 1118.42579022 36.46085472 -41.23558079     6     361    0    0    0
H 1117.97804078 38.58565003 -38.40706797     6     361    0    0    0
C 1121.63743518 37.25260292 -38.49947198     2     361   365   366   367
H 1122.00839007 38.09625967 -36.48586939     6    364    0    0    0
H 1122.69550285 35.48230891 -38.69960402     6    364    0    0    0
C 1122.60957084 39.35126906 -40.33608076     2    364   368   369   370
H 1122.14488116 38.60893767 -42.19812868     6    367    0    0    0
H 1121.38228510 41.01090220 -40.39377310     6    367    0    0    0
C 1125.44539463 40.22560470 -40.23629610     2    367   371   372   373
H 1126.01229929 40.81848472 -38.37940949     6    370    0    0    0
H 1126.66154531 38.65307447 -40.75317731     6    370    0    0    0
C 1125.97176109 42.41896831 -41.87511381     2    370   374   375   376
H 1124.97321010 42.23313239 -43.78257046     6    373    0    0    0
H 1125.36303003 44.12449404 -40.99069852     6    373    0    0    0
C 1128.84219172 42.61126723 -42.57111609     2    373   377   378   379
H 1129.99350827 42.47602066 -40.76886917     6    376    0    0    0
H 1129.63987017 41.08115632 -43.85925544     6    376    0    0    0
C 1129.35792210 45.16509541 -43.81406701     2    376   380   381   382
H 1128.08812630 45.29504962 -45.47667234     6    379    0    0    0
H 1128.93727411 46.70322376 -42.57017561     6    379    0    0    0
C 1132.11885691 45.19485367 -44.50778558     2    379   383   384   385
H 1133.28363731 44.69314925 -42.95212633     6    382    0    0    0
H 1132.52050879 43.64548370 -45.97211265     6    382    0    0    0
C 1133.03668902 47.80122592 -45.56544431     2    382   386   387   388
H 1134.76591350 47.50846290 -46.57093690     6    385    0    0    0
H 1131.83052637 48.62799814 -47.03410120     6    385    0    0    0
C 1133.62814450 49.75411278 -43.42679820     1    385   389   390   391
H 1135.01391210 49.27831857 -41.98385191     6    388    0    0    0
H 1131.94871320 50.19969508 -42.37479143     6    388    0    0    0
H 1134.21716343 51.45841038 -44.53300718     6    388    0    0    0
H 1117.31204635 43.35438142 -86.60679672     6     393    0    0    0 
C 1116.30689050 41.76534396 -85.60535350     1     392    394    395    396
H 1115.54398415 40.46965243 -87.08542997     6     393    0    0    0
H 1117.85023994 40.57712494 -84.89824186     6     393    0    0    0
C 1114.39805152 42.48844651 -83.69811568     2     393    397    398    399
H 1115.30142761 43.37037473 -82.01251401     6     396    0    0    0
H 1113.24154643 43.80246115 -84.67992798     6     396    0    0    0
C 1112.79881353 40.21678556 -82.80451333     2     396    400   401   402
H 1111.55921531 39.49391128 -84.23617271     6     399    0    0    0
H 1114.05161378 38.58537350 -82.14527403     6     399    0    0    0
C 1111.22145704 40.99531779 -80.48243656     2     399   403   404   405
H 1112.39454258 42.06041435 -79.21717237     6    402    0    0    0
H 1109.95946066 42.37680456 -81.39252995     6    402    0    0    0
C 1109.79339296 38.98408282 -79.15875241     2    402   406   407   408
H 1108.60576029 37.85221416 -80.53551461     6    405    0    0    0
H 1110.84891959 37.52342484 -78.18241624     6    405    0    0    0
C 1107.77559947 39.97393866 -77.40922924     2    405   409   410   411
H 1108.91883264 41.19055070 -76.21829294     6    408    0    0    0
H 1106.40025749 40.97348894 -78.48967159     6    408    0    0    0
C 1106.50906061 37.69018392 -75.87837515     2    408   412   413   414
H 1105.41909844 36.49732233 -77.05665793     6    411    0    0    0
H 1108.14050866 36.70239841 -75.10999399     6    411    0    0    0
C 1104.80567998 38.54727400 -73.58059822     2    411   415   416   417
H 1105.97227686 39.95688611 -72.71757535     6    414    0    0    0
H 1103.16636940 39.48852761 -74.30236328     6    414    0    0    0
C 1103.94835393 36.22474695 -72.10869194     2    414   418   419   420
H 1103.05716564 34.76192118 -73.26467265     6    417    0    0    0
H 1105.64499858 35.45595931 -71.24813707     6    417    0    0    0
C 1102.18934666 36.76022970 -69.83537189     2    417   421   422   423
H 1102.67880469 38.37725691 -68.74707333     6    420    0    0    0
H 1100.45681740 37.68144388 -70.49154147     6    420    0    0    0
C 1101.73319150 34.31860021 -68.37687382     2    420   424   425   426
H 1100.59928652 34.82085640 -66.74092775     6    423    0    0    0
H 1100.42403471 33.31582505 -69.54466741     6    423    0    0    0
C 1104.03572086 32.68463457 -67.54522968     1    423   427   428   429
H 1103.25852601 31.24909249 -66.36353583     6    426    0    0    0
H 1105.26472587 33.69411391 -66.34138372     6    426    0    0    0
H 1104.93802715 31.63853024 -69.11363568     6    426    0    0    0
H 1094.24265734 48.34553314 -54.74916394     6     431    0    0    0 
C 1093.99854087 50.27151782 -55.23380904     1     430    432    433    434
H 1091.95096269 50.88974298 -55.38733926     6     431    0    0    0
H 1094.67004325 51.23575122 -53.52503186     6     431    0    0    0
C 1095.48776857 51.11635110 -57.48229765     2     431    435    436    437
H 1097.52930298 50.85619593 -57.01210488     6     434    0    0    0
H 1095.21322421 49.70900260 -58.85366336     6     434    0    0    0
C 1095.11158062 53.77559221 -58.57925360     2     434    438   439   440
H 1093.11862556 54.24090143 -58.88825251     6     437    0    0    0
H 1095.68256668 55.19159030 -57.20065762     6     437    0    0    0
C 1096.57657953 54.22955064 -60.96748736     2     437   441   442   443
H 1096.93696170 56.24483343 -61.37051887     6    440    0    0    0
H 1098.53416602 53.51899109 -60.63169730     6    440    0    0    0
C 1095.56598338 52.84150975 -63.44986325     2    440   444   445   446
H 1095.05629792 50.93021942 -63.09247318     6    443    0    0    0
H 1093.86933605 53.68718062 -63.99659572     6    443    0    0    0
C 1097.61842053 53.00288291 -65.40927017     2    443   447   448   449
H 1098.17021412 54.99761337 -65.43057468     6    446    0    0    0
H 1099.21880271 51.92858036 -64.97782099     6    446    0    0    0
C 1096.50627948 52.35632064 -68.07549054     2    446   450   451   452
H 1095.90581651 50.40532900 -68.05282177     6    449    0    0    0
H 1094.83704854 53.47816972 -68.26909415     6    449    0    0    0
C 1098.30885878 53.23096430 -70.09562285     2    449   453   454   455
H 1098.89435696 55.05066877 -69.57207359     6    452    0    0    0
H 1100.10460773 52.30746812 -69.82366853     6    452    0    0    0
C 1097.23280846 53.17791714 -72.77654066     2    452   456   457   458
H 1096.45435056 51.37723552 -73.24531214     6    455    0    0    0
H 1095.45992346 54.19493233 -72.73565765     6    455    0    0    0
C 1098.97859851 54.14893236 -74.90170092     2    455   459   460   461
H 1097.93404309 53.87699770 -76.66500991     6    458    0    0    0
H 1099.36542779 56.06361187 -74.42161797     6    458    0    0    0
C 1101.35039753 52.43592512 -75.18870044     2    458   462   463   464
H 1102.51381822 53.03972279 -73.51905058     6    461    0    0    0
H 1100.71971690 50.49303341 -75.04979951     6    461    0    0    0
C 1102.89968246 52.93241057 -77.42669332     1    461   465   466   467
H 1103.22556792 54.88211985 -77.69619290     6    464    0    0    0
H 1101.89857942 52.23598396 -79.06210099     6    464    0    0    0
H 1104.75296550 51.96114391 -77.43931949     6    464    0    0    0
H 1123.15082149 51.09201241 -38.98426809     6     469    0    0    0 
C 1124.62837001 49.78367680 -38.50243039     1     468    470    471    472
H 1125.05616896 48.48044183 -40.14331082     6     469    0    0    0
H 1126.34213488 50.82780565 -38.16924901     6     469    0    0    0
C 1124.04227235 48.29909530 -36.09587747     2     469    473    474    475
H 1125.62194570 47.23357275 -35.56487384     6     472    0    0    0
H 1123.53291844 49.56560241 -34.50681309     6     472    0    0    0
C 1121.72066649 46.62694076 -36.24894752     2     472    476   477   478
H 1120.28249271 47.21989979 -37.65359862     6     475    0    0    0
H 1122.56760383 44.98832567 -37.34043949     6     475    0    0    0
C 1120.59278307 45.68603117 -33.74752207     2     475   479   480   481
H 1122.17511582 45.42406523 -32.51234589     6    478    0    0    0
H 1119.25571772 47.00934138 -32.84410551     6    478    0    0    0
C 1119.43193883 43.00480099 -34.00604026     2    478   482   483   484
H 1118.21715912 43.03025128 -35.67269656     6    481    0    0    0
H 1120.79385926 41.62682501 -34.50157262     6    481    0    0    0
C 1117.80931703 42.03997228 -31.73489355     2    481   485   486   487
H 1118.77357791 42.25935124 -29.94779571     6    484    0    0    0
H 1116.20524854 43.38418608 -31.64464912     6    484    0    0    0
C 1117.22294515 39.26371253 -32.13430970     2    484   488   489   490
H 1116.54131332 38.74458290 -33.95464263     6    487    0    0    0
H 1119.01829059 38.22039374 -32.00527905     6    487    0    0    0
C 1115.32617170 38.17943042 -30.10602457     2    487   491   492   493
H 1115.92191039 38.54753111 -28.08772235     6    490    0    0    0
H 1113.55718888 39.24716986 -30.22088316     6    490    0    0    0
C 1114.98511929 35.37375247 -30.60366033     2    490   494   495   496
H 1114.11770721 35.13052257 -32.41830782     6    493    0    0    0
H 1116.83342898 34.54600743 -30.68612599     6    493    0    0    0
C 1113.55702442 34.02470729 -28.36877962     2    493   497   498   499
H 1114.69109005 34.25028707 -26.67970932     6    496    0    0    0
H 1111.84505140 34.90660143 -28.09635382     6    496    0    0    0
C 1113.19026905 31.10192331 -29.04065072     2    496   500   501   502
H 1112.88715567 31.02486792 -30.94095565     6    499    0    0    0
H 1114.84680642 29.92141503 -28.79201497     6    499    0    0    0
C 1110.78046408 30.20648489 -27.74811960     1    499   503   504   505
H 1109.80497128 28.52406401 -28.53394680     6    502    0    0    0
H 1109.43979893 31.68609942 -28.17935352     6    502    0    0    0
H 1111.03774734 30.11510920 -25.66690460     6    502    0    0    0
H 1087.62312360 42.72124245 -51.56199493     6     507    0    0    0 
C 1088.47327253 41.09827079 -50.81854598     1     506    508    509    510
H 1089.93447020 41.36322459 -49.48088896     6     507    0    0    0
H 1086.79083851 40.35096381 -49.78025598     6     507    0    0    0
C 1089.43934710 38.96538646 -52.53650718     2     507    511    512    513
H 1090.17253672 37.51357597 -51.34489689     6     510    0    0    0
H 1087.86482530 38.22977844 -53.64264310     6     510    0    0    0
C 1091.33086504 40.04911968 -54.36825088     2     510    514   515   516
H 1090.33563272 41.58427891 -55.42549499     6     513    0    0    0
H 1092.48488535 41.12377474 -53.13628379     6     513    0    0    0
C 1092.91253268 38.47164451 -56.28891805     2     513   517   518   519
H 1094.18100445 37.14895758 -55.32490374     6    516    0    0    0
H 1091.66719824 37.30634482 -57.30938146     6    516    0    0    0
C 1094.70422092 40.29036078 -58.03933984     2    516   520   521   522
H 1093.66487556 42.06639668 -57.97463985     6    519    0    0    0
H 1096.52919295 40.47332140 -57.21240504     6    519    0    0    0
C 1094.80405515 39.47242852 -60.87705452     2    519   523   524   525
H 1095.67864395 37.44086141 -60.92112098     6    522    0    0    0
H 1092.76807517 39.31698181 -61.57503642     6    522    0    0    0
C 1096.30843188 41.27005998 -62.65389326     2    522   526   527   528
H 1095.68036895 43.26704145 -62.55551736     6    525    0    0    0
H 1098.32323380 41.23319661 -62.06795589     6    525    0    0    0
C 1096.16344561 40.41864930 -65.49915011     2    525   529   530   531
H 1097.23383985 38.73210816 -65.84143934     6    528    0    0    0
H 1094.19572636 39.97356116 -65.76778079     6    528    0    0    0
C 1097.15901462 42.24346124 -67.45384293     2    528   532   533   534
H 1096.42354281 44.18793438 -67.09832025     6    531    0    0    0
H 1099.19950178 42.22175042 -67.03061737     6    531    0    0    0
C 1096.48235654 41.73903979 -70.16786430     2    531   535   536   537
H 1097.10085661 39.83636721 -70.78445510     6    534    0    0    0
H 1094.45491027 41.87718872 -70.22778101     6    534    0    0    0
C 1097.71428460 43.68367932 -72.10990936     2    534   538   539   540
H 1096.37592709 45.33152075 -71.99693713     6    537    0    0    0
H 1099.61079576 44.37969422 -71.51452969     6    537    0    0    0
C 1097.59618211 42.56027463 -74.82038343     1    537   541   542   543
H 1098.37014996 43.66175460 -76.51808814     6    540    0    0    0
H 1095.52910300 42.55153580 -75.21782829     6    540    0    0    0
H 1098.35182964 40.57896092 -75.14491811     6    540    0    0    0
H 1112.39139414 47.79493853 -67.29935839     6     545    0    0    0 
C 1113.99444250 46.69484798 -68.01492036     1     544    546    547    548
H 1114.15879685 44.90361517 -66.96410563     6     545    0    0    0
H 1113.57516530 46.46156067 -69.93371254     6     545    0    0    0
C 1116.50339035 48.10782487 -67.78083984     2     545    549    550    551
H 1116.57460281 49.79683181 -68.97523775     6     548    0    0    0
H 1116.68003972 48.72230771 -65.93086737     6     548    0    0    0
C 1118.57967814 46.13772371 -68.45581959     2     548    552   553   554
H 1118.60098878 44.69565752 -67.07513159     6     551    0    0    0
H 1118.38738141 45.29172556 -70.32905440     6     551    0    0    0
C 1121.17642179 47.38062504 -68.45801632     2     551   555   556   557
H 1121.29970392 49.34168310 -69.18337807     6    554    0    0    0
H 1121.58014962 47.72663983 -66.49463668     6    554    0    0    0
C 1123.33029001 45.65556549 -69.48458698     2    554   558   559   560
H 1123.35626062 44.18100565 -68.13282889     6    557    0    0    0
H 1122.71294448 44.67491512 -71.11692644     6    557    0    0    0
C 1125.87950755 46.82686275 -70.04815373     2    557   561   562   563
H 1125.46020407 48.12343797 -71.58631411     6    560    0    0    0
H 1126.39996144 48.09329587 -68.44814228     6    560    0    0    0
C 1127.81986024 44.80692135 -70.53668193     2    560   564   565   566
H 1127.81113037 43.60136831 -68.94011166     6    563    0    0    0
H 1127.31006665 43.63926391 -72.20883121     6    563    0    0    0
C 1130.52678093 45.81124234 -70.77322105     2    563   567   568   569
H 1130.43229311 47.72166630 -71.69928260     6    566    0    0    0
H 1131.46772482 46.46787601 -69.08310581     6    566    0    0    0
C 1132.06763429 44.26287026 -72.74976739     2    566   570   571   572
H 1131.59846872 42.21130116 -72.39774002     6    569    0    0    0
H 1131.38460468 44.66233795 -74.56942656     6    569    0    0    0
C 1134.91166339 44.88912107 -72.66985277     2    569   573   574   575
H 1135.19455042 46.88251387 -73.33325316     6    572    0    0    0
H 1135.80152479 44.91351598 -70.71972653     6    572    0    0    0
C 1136.49332691 43.49648346 -74.55868397     2    572   576   577   578
H 1135.40896029 42.97666492 -76.19165363     6    575    0    0    0
H 1138.24803353 44.55675468 -74.91703779     6    575    0    0    0
C 1137.45274721 40.95513905 -73.57360434     1    575   579   580   581
H 1135.88178196 39.92820809 -72.53496546     6    578    0    0    0
H 1138.97392914 41.06871973 -72.40448203     6    578    0    0    0
H 1137.87994367 39.50684520 -75.12101041     6    578    0    0    0
H 1130.97622246 38.13406382 -34.59414194     6     583    0    0    0 
C 1132.44584244 36.68911681 -34.68820134     1     582    584    585    586
H 1133.30396217 36.47125617 -32.82534563     6     583    0    0    0
H 1131.43834632 35.01409293 -35.12234493     6     583    0    0    0
C 1134.19748921 37.43429196 -36.71207193     2     583    587    588    589
H 1133.24255302 38.02420054 -38.40631123     6     586    0    0    0
H 1135.17099733 39.07877806 -35.72529822     6     586    0    0    0
C 1136.35669137 35.77452844 -37.22323014     2     586    590   591   592
H 1137.55703010 35.82238270 -35.39911321     6     589    0    0    0
H 1135.70130601 33.73493054 -37.32147354     6     589    0    0    0
C 1137.96685909 36.41797467 -39.55338384     2     589   593   594   595
H 1136.75493952 36.20405296 -41.17488260     6    592    0    0    0
H 1138.26249328 38.47209176 -39.53313175     6    592    0    0    0
C 1140.50412285 34.97395578 -39.80726330     2    592   596   597   598
H 1141.08003405 34.58633751 -37.95866478     6    595    0    0    0
H 1140.01895219 33.12870232 -40.89586038     6    595    0    0    0
C 1142.66833700 36.32349007 -41.22486258     2    595   599   600   601
H 1143.14053308 38.14650064 -40.27919040     6    598    0    0    0
H 1144.38246408 35.11319489 -41.43194056     6    598    0    0    0
C 1141.69844593 37.15344285 -43.88888701     2    598   602   603   604
H 1141.16885815 35.61199013 -45.17055687     6    601    0    0    0
H 1140.06100448 38.41926603 -43.73296742     6    601    0    0    0
C 1144.10512033 38.34161865 -45.17972459     2    601   605   606   607
H 1145.31990385 39.35592565 -43.81377088     6    604    0    0    0
H 1145.44616222 36.93447166 -45.87421379     6    604    0    0    0
C 1143.45243301 40.23445805 -47.24353161     2    604   608   609   610
H 1142.18259286 39.29136627 -48.43365575     6    607    0    0    0
H 1142.49062131 41.76054266 -46.38576467     6    607    0    0    0
C 1145.78419379 41.33281525 -48.40768610     2    607   611   612   613
H 1146.83998424 42.28683959 -46.97410587     6    610    0    0    0
H 1146.96086017 39.90023333 -49.16153979     6    610    0    0    0
C 1145.14861030 43.02760615 -50.77980182     2    610   614   615   616
H 1143.89994281 41.75270756 -51.95099155     6    613    0    0    0
H 1143.95948304 44.61795481 -50.29605306     6    613    0    0    0
C 1147.42799799 43.69811928 -52.49929845     1    613   617   618   619
H 1147.05205059 44.22030574 -54.31003056     6    616    0    0    0
H 1148.80646672 42.12646382 -52.55328674     6    616    0    0    0
H 1148.51719282 45.26533473 -51.74019715     6    616    0    0    0
H 1116.15289178 24.73616639 -63.61356819     6     621    0    0    0 
C 1116.92291904 23.32214057 -65.05126337     1     620    622    623    624
H 1115.26546200 22.62977049 -66.09206357     6     621    0    0    0
H 1118.18813653 24.45131476 -66.16878297     6     621    0    0    0
C 1118.26855798 21.20628151 -63.64566538     2     621    625    626    627
H 1117.76512425 21.28446653 -61.72150080     6     624    0    0    0
H 1117.23875758 19.47541798 -64.22746947     6     624    0    0    0
C 1121.14524765 21.12969802 -63.85166142     2     624    628   629   630
H 1121.82673022 21.07332822 -65.75846886     6     627    0    0    0
H 1121.94114316 22.80485784 -63.22952914     6     627    0    0    0
C 1122.18610871 18.84706243 -62.41451952     2     627   631   632   633
H 1124.08617978 19.22311959 -61.64680676     6    630    0    0    0
H 1120.84942622 18.37265509 -60.83322827     6    630    0    0    0
C 1122.82172079 16.39391149 -64.06318265     2    630   634   635   636
H 1121.16092599 16.03497326 -65.27210527     6    633    0    0    0
H 1124.28461577 16.61534228 -65.42451875     6    633    0    0    0
C 1123.59736569 14.21889909 -62.27725986     2    633   637   638   639
H 1124.67313216 14.90624753 -60.58651169     6    636    0    0    0
H 1121.94658810 13.44930841 -61.34591129     6    636    0    0    0
C 1124.99403391 12.25054845 -63.74930110     2    636   640   641   642
H 1123.92026062 11.84984286 -65.43341212     6    639    0    0    0
H 1126.81315226 12.97679156 -64.27680699     6    639    0    0    0
C 1125.06730696 9.80231756 -62.18878748     2    639   643   644   645
H 1126.18509946 9.91322110 -60.34981402     6    642    0    0    0
H 1123.16242685 9.56830244 -61.35730058     6    642    0    0    0
C 1125.74881447 7.49994550 -63.89234480     2    642   646   647   648
H 1124.09664424 6.83052947 -64.99248127     6    645    0    0    0
H 1127.07907298 7.88218281 -65.45583058     6    645    0    0    0
C 1126.64621244 5.24924539 -62.30045443     2    645   649   650   651
H 1128.07414113 5.82896513 -61.02364774     6    648    0    0    0
H 1124.90801872 4.61298211 -61.32883385     6    648    0    0    0
C 1127.66116488 2.77170565 -63.69459196     2    648   652   653   654
H 1126.46378447 2.47227298 -65.48936435     6    651    0    0    0
H 1129.60302548 3.22692353 -64.06595688     6    651    0    0    0
C 1127.52559253 0.56555088 -61.84323650     1    651   655   656   657
H 1125.63719681 -0.04811519 -61.43466520     6    654    0    0    0
H 1128.33987508 1.01748924 -59.80841930     6    654    0    0    0
H 1128.76099457 -0.93319148 -62.45026056     6    654    0    0    0
H 1133.62293085 33.37637950 -41.82957874     6     659    0    0    0 
C 1131.88916360 32.14801563 -41.78107982     1     658    660    661    662
H 1132.13838247 31.03791574 -39.96820090     6     659    0    0    0
H 1130.29662867 33.35733118 -41.79684127     6     659    0    0    0
C 1132.02165798 30.27447390 -44.03606061     2     659    663    664    665
H 1133.69091015 28.94514412 -43.63693138     6     662    0    0    0
H 1130.31645993 29.19054744 -44.05639341     6     662    0    0    0
C 1132.50777167 31.49132774 -46.64952785     2     662    666   667   668
H 1132.21341654 30.15494033 -48.09225321     6     665    0    0    0
H 1130.90172811 32.78874593 -47.01817976     6     665    0    0    0
C 1134.82939288 32.90623607 -46.87097516     2     665   669   670   671
H 1135.43027291 33.53923795 -45.02893520     6    668    0    0    0
H 1136.49514023 31.72441589 -47.50650186     6    668    0    0    0
C 1134.67220043 35.01271795 -48.74014904     2    668   672   673   674
H 1134.14787253 34.22403351 -50.54811369     6    671    0    0    0
H 1133.08280363 36.26006793 -48.39156342     6    671    0    0    0
C 1137.13684242 36.43576807 -48.97130104     2    671   675   676   677
H 1137.39810549 37.80104297 -47.44527994     6    674    0    0    0
H 1138.65371310 35.01407515 -48.66290232     6    674    0    0    0
C 1137.34156848 37.66972135 -51.56300821     2    674   678   679   680
H 1139.28261082 37.89368618 -51.81620146     6    677    0    0    0
H 1136.97609685 36.23652356 -53.07215245     6    677    0    0    0
C 1135.94763885 40.09700372 -51.62354129     2    677   681   682   683
H 1134.12660098 39.73042614 -50.88013523     6    680    0    0    0
H 1136.81125967 41.54752288 -50.54061820     6    680    0    0    0
C 1135.48337901 41.42204011 -54.07819632     2    680   684   685   686
H 1134.55128013 40.21054363 -55.40117093     6    683    0    0    0
H 1134.14405362 43.01443982 -53.73158862     6    683    0    0    0
C 1137.81027998 42.72895442 -55.33259114     2    683   687   688   689
H 1138.55017398 43.95785893 -53.94388011     6    686    0    0    0
H 1139.41488207 41.48640805 -55.65757269     6    686    0    0    0
C 1137.12487851 44.10207550 -57.90318941     2    686   690   691   692
H 1136.22427720 42.79723386 -59.29861835     6    689    0    0    0
H 1135.82568760 45.53998164 -57.42358397     6    689    0    0    0
C 1139.34742403 45.64125216 -59.02349876     1    689   693   694   695
H 1138.58790815 46.69559243 -60.63062877     6    692    0    0    0
H 1141.02064740 44.46450413 -59.54484101     6    692    0    0    0
H 1139.83021798 46.74175602 -57.42384787     6    692    0    0    0
H 1127.27261897 42.89804154 -79.67581565     6     697    0    0    0 
C 1128.66729190 43.49314386 -81.16943456     1     696    698    699    700
H 1129.99425089 44.73889633 -80.23496156     6     697    0    0    0
H 1129.66257292 41.78562931 -81.73349419     6     697    0    0    0
C 1127.50671333 44.57257267 -83.66483755     2     697    701    702    703
H 1129.16744382 45.11767196 -84.75490990     6     700    0    0    0
H 1126.65602416 43.06288377 -84.85711292     6     700    0    0    0
C 1125.74303413 46.78877560 -83.25851506     2     700    704   705   706
H 1126.61016017 48.09296392 -82.02104617     6     703    0    0    0
H 1125.88597528 47.76863359 -85.00030379     6     703    0    0    0
C 1123.01994576 46.15273978 -82.49514842     2     703   707   708   709
H 1122.36450543 44.86717654 -83.85597585     6    706    0    0    0
H 1122.95629879 45.15242374 -80.62055643     6    706    0    0    0
C 1121.31602050 48.53771281 -82.57913869     2    706   710   711   712
H 1121.82359064 50.17522147 -81.47192320     6    709    0    0    0
H 1121.40640667 49.51030450 -84.43711722     6    709    0    0    0
C 1118.48117338 48.22644177 -81.80134329     2    709   713   714   715
H 1117.98540434 46.44879004 -82.50635252     6    712    0    0    0
H 1118.09358842 48.32230972 -79.73230984     6    712    0    0    0
C 1116.70437681 50.31633900 -82.91836159     2    712   716   717   718
H 1117.32296238 52.18370129 -82.85052338     6    715    0    0    0
H 1116.61631619 50.07171489 -84.98400983     6    715    0    0    0
C 1114.05816485 49.91553306 -82.05931808     2    715   719   720   721
H 1113.80234099 47.85650453 -81.89919687     6    718    0    0    0
H 1113.77439719 50.54060343 -80.13436455     6    718    0    0    0
C 1111.82964835 51.08400451 -83.59952572     2    718   722   723   724
H 1112.35269311 53.03016583 -83.98903399     6    721    0    0    0
H 1111.98709396 50.32231095 -85.54038058     6    721    0    0    0
C 1109.17133764 50.81104092 -82.40282821     2    721   725   726   727
H 1108.56012373 48.97686753 -82.75341310     6    724    0    0    0
H 1109.15082509 51.39018730 -80.37805485     6    724    0    0    0
C 1107.40313222 52.50249942 -83.73648821     2    724   728   729   730
H 1107.33190539 51.98934041 -85.66272486     6    727    0    0    0
H 1105.42806537 52.00294230 -83.31283066     6    727    0    0    0
C 1107.85513624 55.31241870 -83.41333766     1    727   731   732   733
H 1106.16585314 56.48968590 -84.02678919     6    730    0    0    0
H 1109.44589251 55.94584912 -84.57527498     6    730    0    0    0
H 1108.46076901 55.81942613 -81.43671984     6    730    0    0    0
H 1117.66564697 61.98230944 -35.29500365     6     735    0    0    0 
C 1118.03159586 61.89282270 -37.28356538     1     734    736    737    738
H 1117.43783561 63.67649214 -38.00561467     6     735    0    0    0
H 1120.11510448 61.72328977 -37.39732670     6     735    0    0    0
C 1116.45251822 59.77330747 -38.53481529     2     735    739    740    741
H 1114.55343545 60.53215970 -38.24873843     6     738    0    0    0
H 1116.95192055 59.56598299 -40.55339694     6     738    0    0    0
C 1116.47882377 57.14874933 -37.41070250     2     738    742   743   744
H 1118.34801490 56.31495975 -37.67026908     6     741    0    0    0
H 1116.12523900 57.09239493 -35.40578157     6     741    0    0    0
C 1114.60006159 55.40923529 -38.63222703     2     741   745   746   747
H 1112.78709398 55.46537434 -37.66826448     6    744    0    0    0
H 1114.11394781 55.86730293 -40.65390550     6    744    0    0    0
C 1115.27442545 52.63481002 -38.37457105     2    744   748   749   750
H 1116.53737978 51.98688023 -39.88924676     6    747    0    0    0
H 1116.13874731 52.40064570 -36.49434603     6    747    0    0    0
C 1112.93050131 51.00203853 -38.43165151     2    747   751   752   753
H 1111.43738963 51.76144336 -37.30325126     6    750    0    0    0
H 1112.10443318 50.99750030 -40.37016144     6    750    0    0    0
C 1113.30592833 48.27486159 -37.63767993     2    750   754   755   756
H 1114.97536279 47.64248060 -38.64918401     6    753    0    0    0
H 1113.81979081 48.11777854 -35.59630449     6    753    0    0    0
C 1111.01404626 46.63278484 -38.04595673     2    753   757   758   759
H 1109.41380113 47.62866317 -37.12765521     6    756    0    0    0
H 1110.48457101 46.70979071 -40.17425835     6    756    0    0    0
C 1111.53887507 43.95716881 -36.91642064     2    756   760   761   762
H 1113.48603992 43.54355546 -37.23361993     6    759    0    0    0
H 1111.07633154 44.26749971 -34.96870031     6    759    0    0    0
C 1109.71556698 42.07039650 -37.74976263     2    759   763   764   765
H 1107.77789333 42.78545763 -37.47648990     6    762    0    0    0
H 1109.88065837 41.51368604 -39.69218572     6    762    0    0    0
C 1110.08405161 39.58958565 -36.18836154     2    762   766   767   768
H 1112.07698863 38.86457115 -36.13964463     6    765    0    0    0
H 1109.58379882 40.01624298 -34.22306455     6    765    0    0    0
C 1108.43612948 37.43803829 -37.00121900     1    765   769   770   771
H 1106.44580374 37.92364350 -36.68335291     6    768    0    0    0
H 1108.75859218 35.84473575 -35.70315012     6    768    0    0    0
H 1108.94351138 36.75255654 -38.87286352     6    768    0    0    0
H 1119.27383069 11.19838855 -63.22798656     6     773    0    0    0 
C 1117.40340359 11.16149823 -62.35433950     1     772    774    775    776
H 1116.61106556 9.49250757 -63.31931170     6     773    0    0    0
H 1117.49625224 10.79299416 -60.36463971     6     773    0    0    0
C 1116.05295723 13.61633588 -62.93997438     2     773    777    778    779
H 1114.13366856 13.32058296 -62.23986189     6     776    0    0    0
H 1116.87471394 15.10169497 -61.86111298     6     776    0    0    0
C 1115.78283565 14.39125342 -65.65327576     2     776    780   781   782
H 1117.51598555 15.51841826 -66.18874338     6     779    0    0    0
H 1115.74927595 12.67746006 -66.75982344     6     779    0    0    0
C 1113.52352342 16.21416057 -66.18733897     2     779   783   784   785
H 1111.82670204 15.36086277 -65.48108266     6    782    0    0    0
H 1113.69456852 17.97490880 -65.14876043     6    782    0    0    0
C 1112.93086614 16.75406573 -68.96292387     2    782   786   787   788
H 1114.42191498 17.60306420 -69.91972899     6    785    0    0    0
H 1112.78424765 14.94815204 -70.06230872     6    785    0    0    0
C 1110.42438733 18.40979135 -68.96901442     2    785   789   790   791
H 1108.96318657 17.01008878 -69.17644323     6    788    0    0    0
H 1110.26786186 19.52646306 -67.15234582     6    788    0    0    0
C 1110.20022086 19.98422339 -71.38520864     2    788   792   793   794
H 1112.08059556 20.82174995 -71.86850815     6    791    0    0    0
H 1109.56277613 18.77598180 -72.93566178     6    791    0    0    0
C 1108.32924866 22.22413374 -71.16979437     2    791   795   796   797
H 1106.54463068 21.34821677 -71.27334655     6    794    0    0    0
H 1108.63262384 23.25580981 -69.28224967     6    794    0    0    0
C 1108.45252936 24.08906739 -73.36844511     2    794   798   799   800
H 1110.11378897 25.41056768 -73.27363508     6    797    0    0    0
H 1108.60109564 22.81406415 -75.04994061     6    797    0    0    0
C 1106.18393835 25.78981664 -73.30566632     2    797   801   802   803
H 1104.43413285 24.64113894 -73.54053313     6    800    0    0    0
H 1105.79188143 26.66059142 -71.46067515     6    800    0    0    0
C 1106.34205376 27.73004766 -75.45636055     2    800   804   805   806
H 1108.10053377 28.82340226 -75.60265934     6    803    0    0    0
H 1106.10965835 26.74482712 -77.17529568     6    803    0    0    0
C 1104.32999698 29.79292939 -75.52438291     1    803   807   808   809
H 1104.67619425 31.04809297 -77.11147091     6    806    0    0    0
H 1104.38895871 31.08871436 -73.89020552     6    806    0    0    0
H 1102.44364829 29.04644217 -75.77442772     6    806    0    0    0
H 1124.44804183 34.06024267 -43.01355082     6     811    0    0    0 
C 1125.36512642 32.23639756 -43.19114193     1     810    812    813    814
H 1126.45984304 32.38627704 -44.86514969     6     811    0    0    0
H 1126.64797987 31.80717607 -41.63480442     6     811    0    0    0
C 1123.42897906 30.05997470 -43.57087337     2     811    815    816    817
H 1122.42191543 30.23669397 -45.51072918     6     814    0    0    0
H 1124.39069771 28.26006224 -43.62416343     6     814    0    0    0
C 1121.28593535 29.98684236 -41.50836516     2     814    818   819   820
H 1122.24508953 29.69756854 -39.75082824     6     817    0    0    0
H 1120.26431919 31.68000741 -41.39999268     6     817    0    0    0
C 1119.50587831 27.75613167 -41.90930450     2     817   821   822   823
H 1118.90524922 27.71615391 -43.88880103     6    820    0    0    0
H 1120.43480606 26.09082059 -41.28109856     6    820    0    0    0
C 1116.99508523 27.72625057 -40.46287020     2    820   824   825   826
H 1117.37139417 28.03790662 -38.45019842     6    823    0    0    0
H 1115.76853296 29.22034584 -41.11591918     6    823    0    0    0
C 1115.71118502 25.13813752 -41.01840986     2    823   827   828   829
H 1115.39407759 24.86999072 -43.06420783     6    826    0    0    0
H 1117.08406362 23.66877856 -40.50559510     6    826    0    0    0
C 1113.21285348 25.00723100 -39.54630092     2    826   830   831   832
H 1113.44446281 25.76252026 -37.64250621     6    829    0    0    0
H 1111.59484551 25.81547787 -40.42577877     6    829    0    0    0
C 1112.57937134 22.24489781 -38.69163994     2    829   833   834   835
H 1112.93169006 21.17101935 -40.46539773     6    832    0    0    0
H 1114.01193302 21.52306417 -37.44428014     6    832    0    0    0
C 1110.09734697 22.05568297 -37.38870271     2    832   836   837   838
H 1110.24075089 23.02681090 -35.53441689     6    835    0    0    0
H 1108.55947473 22.96111460 -38.44976893     6    835    0    0    0
C 1109.21986563 19.39319958 -36.75078583     2    835   839   840   841
H 1109.29975313 18.33058101 -38.50342126     6    838    0    0    0
H 1110.47905685 18.42938706 -35.61489058     6    838    0    0    0
C 1106.39005469 19.21170540 -35.85927479     2    838   842   843   844
H 1105.98738533 20.55608763 -34.34271322     6    841    0    0    0
H 1105.06003378 19.95205883 -37.20118276     6    841    0    0    0
C 1105.66730582 16.65162099 -34.93696663     1    841   845   846   847
H 1103.75042009 16.85379564 -34.33687377     6    844    0    0    0
H 1106.72731632 16.03068673 -33.41001102     6    844    0    0    0
H 1105.85617118 15.34258637 -36.43201934     6    844    0    0    0
H 1152.04214336 46.51188321 -68.89471278     6     849    0    0    0 
C 1150.19385329 46.71880983 -69.77637497     1     848    850    851    852
H 1150.01327068 48.61197623 -70.59675108     6     849    0    0    0
H 1150.15158267 45.55714232 -71.31324381     6     849    0    0    0
C 1147.93926447 46.08966142 -68.21707005     2     849    853    854    855
H 1147.75325487 47.37436946 -66.60416517     6     852    0    0    0
H 1146.26022270 46.00260843 -69.40998319     6     852    0    0    0
C 1148.31669770 43.78350560 -66.64861419     2     852    856   857   858
H 1148.16364265 42.25554734 -68.02832510     6     855    0    0    0
H 1149.95969731 43.97187292 -65.56728899     6     855    0    0    0
C 1146.05942588 43.29476560 -64.63941166     2     855   859   860   861
H 1146.13922965 44.69489062 -63.18796032     6    858    0    0    0
H 1144.25139513 43.75654447 -65.43075847     6    858    0    0    0
C 1146.19233630 40.72033513 -63.32677507     2    858   862   863   864
H 1146.33629200 39.34011446 -64.75795905     6    861    0    0    0
H 1148.08106980 40.67539420 -62.41716222     6    861    0    0    0
C 1143.83739126 40.12849998 -61.73041438     2    861   865   866   867
H 1143.34676479 41.68748899 -60.49428026     6    864    0    0    0
H 1142.12037510 39.88685093 -62.79009232     6    864    0    0    0
C 1144.19479366 37.70247319 -60.16137985     2    864   868   869   870
H 1144.00303849 36.24762351 -61.61846078     6    867    0    0    0
H 1146.03326649 37.50066270 -59.24183842     6    867    0    0    0
C 1142.00256224 37.34414911 -58.18182174     2    867   871   872   873
H 1142.54152470 38.31762232 -56.52939461     6    870    0    0    0
H 1140.34758230 38.36099742 -58.94811586     6    870    0    0    0
C 1141.34379708 34.53456842 -57.35038483     2    870   874   875   876
H 1139.79968252 34.66262102 -55.97399706     6    873    0    0    0
H 1141.02886900 33.27550315 -58.88763115     6    873    0    0    0
C 1143.64775745 33.29253517 -56.13231327     2    873   877   878   879
H 1145.29147369 33.30476684 -57.28060892     6    876    0    0    0
H 1144.27388786 34.59363949 -54.68760288     6    876    0    0    0
C 1143.04183496 30.86570064 -54.50951438     2    876   880   881   882
H 1141.54858356 31.56106948 -53.08662392     6    879    0    0    0
H 1141.86205368 29.73136312 -55.69329806     6    879    0    0    0
C 1145.21480224 29.32669848 -53.46746441     1    879   883   884   885
H 1146.90451265 30.22241876 -52.85985494     6    882    0    0    0
H 1145.86780830 28.09067332 -54.94102060     6    882    0    0    0
H 1144.55576747 27.78408780 -52.06184341     6    882    0    0    0
H 1109.96175198 25.76832353 -45.34332769     6     887    0    0    0 
C 1110.13463684 25.72138463 -47.46730721     1     886    888    889    890
H 1111.51708930 24.36478384 -47.96708652     6     887    0    0    0
H 1108.30555904 25.07662275 -48.16097597     6     887    0    0    0
C 1110.73825637 28.25908045 -48.70858246     2     887    891    892    893
H 1111.44014114 27.90913014 -50.66056073     6     890    0    0    0
H 1109.15928863 29.52170833 -48.64960182     6     890    0    0    0
C 1112.92725106 29.47834983 -47.26334193     2     890    894   895   896
H 1112.46865392 29.95504887 -45.36944631     6     893    0    0    0
H 1114.59444452 28.15513026 -47.14334593     6     893    0    0    0
C 1113.57773804 32.09183424 -48.68346715     2     893   897   898   899
H 1113.28456936 31.87321727 -50.70571655     6    896    0    0    0
H 1112.11703660 33.64185567 -48.22958149     6    896    0    0    0
C 1116.23181356 32.96119629 -47.99977754     2    896   900   901   902
H 1115.91751793 33.39051192 -45.99542484     6    899    0    0    0
H 1117.57715232 31.45196876 -48.02855343     6    899    0    0    0
C 1117.20512346 35.26389916 -49.34539210     2    899   903   904   905
H 1117.20075883 34.97932117 -51.41822045     6    902    0    0    0
H 1116.09532085 36.92689590 -48.85495751     6    902    0    0    0
C 1120.02817286 35.81550882 -48.70448371     2    902   906   907   908
H 1120.13468961 36.30736364 -46.64727529     6    905    0    0    0
H 1121.31912597 34.22412119 -48.92994007     6    905    0    0    0
C 1121.27085143 38.06385651 -50.13280293     2    905   909   910   911
H 1120.92668625 37.84159548 -52.21012846     6    908    0    0    0
H 1120.23989473 39.80140916 -49.66898410     6    908    0    0    0
C 1123.99182327 38.45022783 -49.48962356     2    908   912   913   914
H 1124.22215919 38.31942035 -47.43259220     6    911    0    0    0
H 1125.13469529 37.03956492 -50.33564257     6    911    0    0    0
C 1125.09057630 41.00776314 -50.44380883     2    911   915   916   917
H 1124.89488294 41.00944442 -52.50977168     6    914    0    0    0
H 1123.84689439 42.53755867 -49.93343095     6    914    0    0    0
C 1127.93401251 41.36037571 -49.53950719     2    914   918   919   920
H 1127.86928599 41.67016701 -47.41322273     6    917    0    0    0
H 1129.56198983 40.03333848 -49.92276886     6    917    0    0    0
C 1128.98782317 43.83180086 -50.52088702     1    917   921   922   923
H 1127.64820368 45.25201666 -49.97741754     6    920    0    0    0
H 1129.09363017 43.79840773 -52.64143323     6    920    0    0    0
H 1130.90863795 44.03406072 -49.72263732     6    920    0    0    0
H 1148.08441753 21.74419276 -61.61498874     6     925    0    0    0 
C 1148.42947147 20.05712971 -60.63845298     1     924    926    927    928
H 1148.90832843 18.71965405 -62.02383939     6     925    0    0    0
H 1150.11728540 20.36234594 -59.51891441     6     925    0    0    0
C 1146.12213316 18.91634105 -59.18229163     2     925    929    930    931
H 1144.58152754 19.17260965 -60.45507815     6     928    0    0    0
H 1146.45880854 16.84446546 -59.02034359     6     928    0    0    0
C 1145.63696213 20.32825662 -56.78307014     2     928    932   933   934
H 1147.35619260 19.91238287 -55.56039096     6     931    0    0    0
H 1145.69040184 22.31897917 -57.21907208     6     931    0    0    0
C 1143.23929265 19.52595571 -55.38815410     2     931   935   936   937
H 1141.59636950 19.12768155 -56.59788861     6    934    0    0    0
H 1143.73424053 17.67049953 -54.47475788     6    934    0    0    0
C 1142.50044786 21.29713912 -53.16500813     2    934   938   939   940
H 1144.23559619 21.58437424 -52.07947207     6    937    0    0    0
H 1141.89509049 23.04601555 -54.09460717     6    937    0    0    0
C 1140.64410334 20.05168214 -51.25721325     2    937   941   942   943
H 1139.17382622 19.30079161 -52.69232665     6    940    0    0    0
H 1141.60534488 18.60046842 -50.06141333     6    940    0    0    0
C 1139.20511338 21.69642975 -49.29562116     2    940   944   945   946
H 1137.87742180 23.22287398 -50.19391537     6    943    0    0    0
H 1137.75807392 20.55874578 -48.45817218     6    943    0    0    0
C 1140.98244855 22.81432293 -47.36601337     2    943   947   948   949
H 1141.71777424 21.21205468 -46.37515984     6    946    0    0    0
H 1142.51031973 23.96767589 -48.23454567     6    946    0    0    0
C 1139.46679218 24.19443537 -45.40158084     2    946   950   951   952
H 1139.03360662 26.06906144 -46.28404891     6    949    0    0    0
H 1137.80610839 23.17270002 -44.76951460     6    949    0    0    0
C 1141.03456909 24.76194138 -43.04399486     2    949   953   954   955
H 1141.47298706 22.86204255 -42.21535463     6    952    0    0    0
H 1142.86101998 25.50976991 -43.67588065     6    952    0    0    0
C 1139.69248883 26.54120970 -41.13272633     2    952   956   957   958
H 1138.74783702 27.96501307 -42.27288167     6    955    0    0    0
H 1138.41473308 25.41576527 -40.07603621     6    955    0    0    0
C 1141.49893333 27.94245999 -39.28744097     1    955   959   960   961
H 1140.51782597 28.86080875 -37.69212199     6    958    0    0    0
H 1142.19057365 29.61571640 -40.19166331     6    958    0    0    0
H 1142.88242392 26.48556195 -38.67624761     6    958    0    0    0
H 1104.56725260 48.20464916 -49.04512320     6     963    0    0    0 
C 1105.54690509 46.43272189 -49.57358826     1     962    964    965    966
H 1107.62284701 46.66613775 -49.84130520     6     963    0    0    0
H 1105.26244822 45.32989241 -47.81943614     6     963    0    0    0
C 1104.35733378 44.90488984 -51.78338463     2     963    967    968    969
H 1105.43974282 43.20863670 -52.34024931     6     966    0    0    0
H 1102.61517838 44.11328088 -51.11086532     6     966    0    0    0
C 1103.90104512 46.36656265 -54.26454860     2     966    970   971   972
H 1102.50207528 47.92136543 -53.84201833     6     969    0    0    0
H 1105.70274935 47.35129355 -54.67439688     6     969    0    0    0
C 1103.01660190 44.88940330 -56.60069885     2     969   973   974   975
H 1104.15697619 43.15816959 -56.99551755     6    972    0    0    0
H 1101.09347967 44.18009702 -56.29191096     6    972    0    0    0
C 1102.98749475 46.67276878 -58.93992132     2    972   976   977   978
H 1101.75190159 48.30719808 -58.46427787     6    975    0    0    0
H 1104.86927370 47.46418848 -58.89585954     6    975    0    0    0
C 1102.70625913 45.36160674 -61.48259529     2    975   979   980   981
H 1103.66628935 43.53575599 -61.43127094     6    978    0    0    0
H 1100.88592517 44.87187541 -61.93570731     6    978    0    0    0
C 1104.08669912 46.93712193 -63.49607202     2    978   982   983   984
H 1102.88406553 48.56910999 -63.85422873     6    981    0    0    0
H 1105.86664995 47.84706346 -62.90580766     6    981    0    0    0
C 1104.43731404 45.69180116 -65.94347152     2    981   985   986   987
H 1105.80519874 44.05481470 -65.60799584     6    984    0    0    0
H 1102.93332232 44.55266861 -66.40586691     6    984    0    0    0
C 1105.19294926 47.56732391 -67.99459297     2    984   988   989   990
H 1103.89845983 49.13835693 -68.19844515     6    987    0    0    0
H 1106.99926992 48.31580960 -67.35299531     6    987    0    0    0
C 1105.63102207 46.13248650 -70.44236534     2    987   991   992   993
H 1106.71917155 44.41724418 -70.08948764     6    990    0    0    0
H 1103.76604836 45.42635309 -71.09875254     6    990    0    0    0
C 1106.67861410 47.77249229 -72.56719972     2    990   994   995   996
H 1105.31853056 48.95353868 -73.40705707     6    993    0    0    0
H 1108.25264466 48.93941501 -71.75716250     6    993    0    0    0
C 1107.72288207 46.18394606 -74.71971915     1    993   997   998   999
H 1109.40998736 45.17642339 -74.14706874     6    996    0    0    0
H 1108.14477316 47.27653444 -76.33324001     6    996    0    0    0
H 1106.43242623 44.84945524 -75.37702292     6    996    0    0    0
H 1095.69860785 39.02495460 -42.96006175     6     1001    0    0    0 
C 1094.96097122 40.61534355 -44.01946262     1     1000    1002    1003    1004
H 1093.18419664 40.01713364 -44.98078672     6     1001    0    0    0
H 1094.80174820 41.88947821 -42.52613080     6     1001    0    0    0
C 1096.73396378 41.83722537 -45.93007552     2     1001    1005    1006    1007
H 1098.50547367 42.28473705 -44.95900776     6     1004    0    0    0
H 1097.17941026 40.54616028 -47.51696254     6     1004    0    0    0
C 1095.75184414 44.29324217 -47.06243230     2     1004    1008   1009   1010
H 1094.08356991 43.97210564 -48.07488730     6     1007    0    0    0
H 1095.12447738 45.36770804 -45.50532671     6     1007    0    0    0
C 1097.86886889 45.87438397 -48.45904626     2     1007   1011   1012   1013
H 1099.65992086 45.69442431 -47.42144201     6    1010    0    0    0
H 1098.37455713 45.18476275 -50.35039153     6    1010    0    0    0
C 1097.08819523 48.64114637 -48.53379227     2    1010   1014   1015   1016
H 1095.12419054 48.77108381 -49.09531480     6    1013    0    0    0
H 1097.03621861 49.35579079 -46.52562685     6    1013    0    0    0
C 1098.86476867 50.10254846 -50.27027224     2    1013   1017   1018   1019
H 1100.84766798 49.83626060 -49.89797188     6    1016    0    0    0
H 1098.70811028 49.52651161 -52.18635499     6    1016    0    0    0
C 1098.49993127 52.95849740 -50.03452995     2    1016   1020   1021   1022
H 1096.58541760 53.33630593 -50.17769940     6    1019    0    0    0
H 1099.51428632 53.61549515 -48.30320898     6    1019    0    0    0
C 1099.79657120 54.32074163 -52.22832518     2    1019   1023   1024   1025
H 1098.98457313 53.76645651 -54.06930044     6    1022    0    0    0
H 1099.18256670 56.23263704 -52.34229101     6    1022    0    0    0
C 1102.79077992 54.37012770 -52.22970217     2    1022   1026   1027   1028
H 1103.51979269 54.99110804 -50.35136142     6    1025    0    0    0
H 1103.55281979 52.42303417 -52.56114725     6    1025    0    0    0
C 1103.69869506 56.23509786 -54.28156989     2    1025   1029   1030   1031
H 1103.10195816 55.81659642 -56.18691957     6    1028    0    0    0
H 1103.03726273 57.98393199 -53.73393960     6    1028    0    0    0
C 1106.61860529 56.38008445 -54.13216382     2    1028   1032   1033   1034
H 1107.12307003 56.54959479 -52.11510765     6    1031    0    0    0
H 1107.46963886 54.71334677 -54.91899255     6    1031    0    0    0
C 1107.55330694 58.74778180 -55.33007587     1    1031   1035   1036   1037
H 1109.58636596 59.05620859 -55.28618059     6    1034    0    0    0
H 1106.82165365 60.29266713 -54.19460182     6    1034    0    0    0
H 1107.07818488 59.13938512 -57.19638904     6    1034    0    0    0
H 1108.81250066 20.93529278 -62.06221791     6     1039    0    0    0 
C 1108.60776032 21.57583046 -60.13802156     1     1038    1040    1041    1042
H 1108.16641054 23.61295446 -60.28408418     6     1039    0    0    0
H 1107.09708722 20.40943464 -59.49942928     6     1039    0    0    0
C 1110.94407450 21.07187755 -58.58528929     2     1039    1043    1044    1045
H 1112.32475331 21.74246438 -59.76387263     6     1042    0    0    0
H 1111.09257291 21.87653839 -56.66636905     6     1042    0    0    0
C 1111.55005101 18.20277206 -58.64604759     2     1042    1046   1047   1048
H 1110.03593048 17.13115991 -57.88391945     6     1045    0    0    0
H 1111.87222465 17.38260468 -60.60791772     6     1045    0    0    0
C 1113.92433553 17.70164304 -57.03904106     2     1045   1049   1050   1051
H 1115.75845100 18.31106600 -57.75783716     6    1048    0    0    0
H 1114.10184093 18.60285041 -55.13524306     6    1048    0    0    0
C 1114.17417596 14.84890995 -56.26460369     2    1048   1052   1053   1054
H 1112.45232568 14.24442262 -55.13910312     6    1051    0    0    0
H 1114.33465925 13.78562532 -58.01175479     6    1051    0    0    0
C 1116.34797378 14.49068527 -54.45631449     2    1051   1055   1056   1057
H 1118.17793517 14.89032139 -55.33610878     6    1054    0    0    0
H 1116.17057777 15.76170996 -52.85969928     6    1054    0    0    0
[...]
 1803      H    1129.1558146600    19.5062100600   -69.8264334600
 1804      H    1127.0848420000    18.4660817000   -67.6013044000
 1805      C    1130.9589234800    17.1134600100   -67.2421823100
 1806      H    1130.5855133300    15.2760018600   -66.3168823900
 1807      H    1132.5730571700    17.0252196400   -68.4678606100
 1808      C    1131.4106800700    19.2533486000   -65.2830888200
 1809      H    1133.0980072600    19.1293810100   -64.2350241100
 1810      H    1131.5944020200    21.1048192000   -66.2667731200
 1811      C    1129.4366615200    19.5128812800   -63.0805839900
 1812      H    1127.4839152600    19.3565513000   -63.7886763700
 1813      H    1129.6147355200    17.8280564400   -62.0048947200
 1814      C    1130.1488543700    21.7981323900   -61.4686000400
 1815      H    1131.8759647800    21.4653796300   -60.4381148400
 1816      H    1130.5378401900    23.2489456400   -62.8420016000
 1817      C    1128.0486020500    22.6218564000   -59.6383618700
 1818      H    1126.2189917100    22.8556049500   -60.6393792500
 1819      H    1127.8559052000    21.0776313900   -58.2984900500
 1820      C    1128.7612368400    24.9259575000   -58.1097960100
 1821      H    1130.5659437300    24.7413020400   -57.1778684100
 1822      H    1129.0737564300    26.4851491200   -59.4196181500
 1823      C    1126.7808520200    25.6612217400   -56.1262746900
 1824      H    1124.8691353800    25.8263397000   -57.0484853200
 1825      H    1126.4553480500    24.1773509300   -54.7836255500
 1826      C    1127.5014672200    28.1210214700   -54.5932640800
 1827      H    1129.4119108000    27.7832787700   -53.9776496400
 1828      H    1127.5073631800    29.8251379100   -55.7442996300
 1829      C    1125.5391072800    28.6478302400   -52.5016163600
 1830      H    1123.7218211700    28.3764260500   -53.2480166400
 1831      H    1125.7984597300    27.2984427200   -50.9964077100
 1832      C    1125.8546298100    31.1647593800   -51.1532657300
 1833      H    1127.7957729300    31.5247127600   -50.4820595800
 1834      H    1124.7297083600    31.2706107000   -49.4418116400
 1835      H    1125.1659635400    32.7645223800   -52.2799180400
 1836      H    1128.1625283500    35.7862343900   -54.3872032700
 1837      C    1128.6641077100    37.2357493100   -55.7362019300
 1838      H    1127.1721495900    37.7108522100   -56.9800834900
 1839      H    1129.1100719800    38.9030429400   -54.6536529600
 1840      C    1131.0319804800    36.4392017200   -57.2309229700
 1841      H    1131.7725444000    38.0009921100   -58.2611102400
 1842      H    1132.4204901600    36.0046646900   -55.7241531500
 1843      C    1130.5132675400    34.1017213700   -58.9091119800
 1844      H    1130.0234888500    32.4405305900   -57.9116898400
 1845      H    1128.9570721600    34.4426652800   -60.3230744900
 1846      C    1132.8205912500    33.5563289000   -60.3820228200
 1847      H    1133.5344141700    35.2010346400   -61.4940885000
 1848      H    1134.3626730800    33.3227347800   -59.0321697900
 1849      C    1132.7123929500    31.4588093000   -62.2317462500
 1850      H    1132.4514943800    29.7587632200   -61.0769821200
 1851      H    1131.1335806900    31.6683879000   -63.5765696300
 1852      C    1135.4362613400    31.1364781900   -63.3712987500
 1853      H    1136.6955787100    30.6264441800   -61.7633898500
 1854      H    1135.2934619800    29.3087470700   -64.4061735700
 1855      C    1136.5158991400    33.3520852800   -65.0418731900
 1856      H    1135.2593891500    33.9008204000   -66.5308805500
 1857      H    1136.6438919300    34.8980730100   -63.7895946400
 1858      C    1139.2485634900    33.0333743700   -66.1702631200
 1859      H    1140.6076894200    32.8823363000   -64.6768268900
 1860      H    1139.3136548100    31.1591661700   -67.1547719900
 1861      C    1140.0390295500    35.3555230400   -67.8686596800
 1862      H    1138.5835129300    35.5841175700   -69.3189549200
 1863      H    1139.8267803400    37.0828667600   -66.6968660800
 1864      C    1142.8614214100    35.4332155700   -68.8137976300
 1865      H    1144.0871858600    35.5605253800   -67.2141160000
 1866      H    1143.3380288600    33.6735199600   -69.7891096700
 1867      C    1143.3654083600    37.9097930500   -70.5673167400
 1868      H    1142.1615390700    38.0399381600   -72.1846164100
 1869      H    1143.1914467900    39.6685383100   -69.5695047600
 1870      C    1146.1248379200    37.8697569500   -71.5711482200
 1871      H    1146.6044649500    39.5078939700   -72.6590170100
 1872      H    1146.1799667300    36.1865588900   -72.9172716900
 1873      H    1147.3649841700    37.6873724000   -69.9099517800
 1874      H    1121.8075655500    37.8608431600   -81.1569580500
 1875      C    1120.2143548000    36.9354063100   -80.2190331200
 1876      H    1118.8234342500    36.1633407500   -81.5010369000
 1877      H    1120.8792783500    35.2770985900   -79.1475160800
 1878      C    1119.0405425600    38.9793876500   -78.4921639500
 1879      H    1120.3225844800    39.6606253200   -77.0926906900
 1880      H    1118.3107697700    40.6587102100   -79.7181198000
 1881      C    1116.9956525800    37.9412083100   -76.7363694100
 1882      H    1115.5194333200    37.2862809700   -78.0204534400
 1883      H    1117.7166426200    36.2018770000   -75.8585380500
 1884      C    1116.1724392700    39.8508995900   -74.6614614300
 1885      H    1117.8481465800    40.0935474200   -73.4394437500
 1886      H    1115.4546146700    41.6969544600   -75.4015318700
 1887      C    1114.0963676200    38.6575208700   -73.0367036000
 1888      H    1112.3134827500    38.5855975800   -73.9902394600
 1889      H    1114.3954422800    36.6471467700   -72.7331855000
 1890      C    1113.5494385700    39.9248962400   -70.5222313700
 1891      H    1115.2308877500    39.8454573400   -69.4220185600
 1892      H    1113.1907626200    41.9309003000   -70.4727982500
 1893      C    1111.2933150600    38.4414947100   -69.2507920000
 1894      H    1109.7466787400    38.1624818300   -70.6387659600
 1895      H    1112.0205485400    36.5751969500   -68.6855123000
 1896      C    1110.3645302500    39.8016790100   -66.7912291200
 1897      H    1112.1206894800    40.1523255700   -65.6828833900
 1898      H    1109.4640552900    41.5866571600   -67.4714057800
 1899      C    1108.3883135600    38.0452376400   -65.6436703300
 1900      H    1106.6840640900    37.9635190800   -66.8905941300
 1901      H    1109.1879350400    36.1858376000   -65.3152364600
 1902      C    1107.3965047600    38.9106126600   -63.0847508400
 1903      H    1108.9466836400    39.0842401600   -61.6882149100
 1904      H    1106.5799579500    40.8488405400   -63.3967244000
 1905      C    1105.0772708200    37.1892465300   -62.1947941200
 1906      H    1103.3956038400    37.6193802200   -63.3109523500
 1907      H    1105.5621898000    35.3295133600   -62.6503353200
 1908      C    1104.6853172900    37.1387170400   -59.2785766300
 1909      H    1103.2163405100    35.9073924900   -58.7502749900
 1910      H    1104.4597003300    38.9030783300   -58.3872530400
 1911      H    1106.4600534100    36.4099041500   -58.5227546800
 ----------------------------------------------------------------
 Nuclear Repulsion Energy =           0.00000000 hartrees
 There are     2498 alpha and     2498 beta electrons

 Total QAlloc Memory Limit   2000 MB
 Mega-Array Size       204 MB
 MEM_STATIC part       192 MB
   **** Step 1: MM calculation on the entire system **** 
 OPLSAA force field loaded.
Reading user-defined FF parameters...
 Reading user defined atom types.
 Found 3 user defined AtomTypes
finished.
Determining angles, torsions, etc. from user defined input
Determining VDW/Coulomb pairs... (useList = 0)

 Time req'd to get MM system information: 0.1 s (CPU) 0.3 s (wall)

 ------ MM Energies ------
   Ebond:           568.918787349018
   Eangle:          868.870347144479
   EUreyBrad:         0.000000000000
   Eimptors:          0.000000000000
   Etorsion:        215.763099595328
   Evdw:        1173893.103643067414
   Ecoulomb:        186.549272357459
   Etot:        1175733.205149513669 Kcal/mol (   1873.650135153918 hartree)
 -------------------------
 Time req'd to calc MM energy: 0.1 s (CPU) 0.1 s (wall)
 OPLSAA force field loaded.
Reading user-defined FF parameters...
 Reading user defined atom types.
 Found 3 user defined AtomTypes
finished.
 Time req'd to get MM system information: 0.0 s (CPU) 0.0 s (wall)
 Time req'd to calc MM gradient: 0.2 s (CPU) 0.2 s (wall)
   **** Step 2: MM calculation on the model system **** 
 Reading user defined atom types.
 Found 3 user defined AtomTypes
 ----------------------------------------------------------------
             Standard Nuclear Orientation (Bohr)
    I     Atom           X                Y                Z
 ----------------------------------------------------------------
    1      Fe   1118.0461997700    41.4406049100   -61.4613066500
    2      C    1114.5894856200    42.0703134500   -61.9943579500
    3      C    1120.9898441600    41.4099318600   -63.3356483500
    4      C    1118.7016350800    44.8200463700   -61.6935244000
    5      C    1118.5315772100    40.8451914000   -58.1802748300
    6      C    1117.5664030000    38.2292903300   -62.4672465000
    7      O    1112.4362660300    42.4759155800   -61.8723095300
    8      O    1122.8470072400    41.5297337700   -64.5240831400
    9      O    1119.3313393100    46.9687268900   -62.0820460500
   10      O    1119.2613127300    40.3123245500   -56.1606154000
   11      O    1117.3093151300    36.4162037300   -63.5173454600
 ----------------------------------------------------------------
 Nuclear Repulsion Energy =         795.99888954 hartrees
 There are       48 alpha and       48 beta electrons
 OPLSAA force field loaded.
Reading user-defined FF parameters...
 Reading user defined atom types.
 Found 3 user defined AtomTypes
finished.
Determining VDW/Coulomb pairs... (useList = 0)

 No MM bonds in system. Return all possible pairs.
 Time req'd to get MM system information: 0.0 s (CPU) 0.0 s (wall)

 ------ MM Energies ------
   Ebond:             0.000000000000
   Eangle:            0.000000000000
   EUreyBrad:         0.000000000000
   Eimptors:          0.000000000000
   Etorsion:          0.000000000000
   Evdw:        1174319.703624507645
   Ecoulomb:         -6.536240762641
   Etot:        1174313.167383745080 Kcal/mol (   1871.387160917839 hartree)
 -------------------------
 Eold: 1873.6501352 mm_energy: 1871.3871609 Enew:    2.2629742
 Time req'd to calc MM energy: 0.0 s (CPU) 0.0 s (wall)
 OPLSAA force field loaded.
Reading user-defined FF parameters...
 Reading user defined atom types.
 Found 3 user defined AtomTypes
finished.
Determining VDW/Coulomb pairs... (useList = 0)

 No MM bonds in system. Return all possible pairs.
 Time req'd to get MM system information: 0.0 s (CPU) 0.0 s (wall)
 Number of fixed atoms: 0
 Time req'd to calc MM gradient: 0.0 s (CPU) 0.0 s (wall)
   **** Step 3: QM calculation on the model system **** 
 Requested basis set is def2-mSVP
 There are 80 shells and 174 basis functions

                       Distance Matrix (Bohrs)
             Fe(  1)   C (  2)   C (  3)   C (  4)   C (  5)   C (  6)
   C (  2)  3.553808
   C (  3)  3.489862  6.572652
   C (  4)  3.450238  4.955936  4.422822
   C (  5)  3.369759  5.620342  5.739328  5.307666
   C (  6)  3.399215  4.882532  4.752952  6.732419  5.113964
   O (  7)  5.719453  2.194485  8.743076  6.691918  7.310486  6.686261
   O (  8)  5.695287  8.653231  2.208118  6.001861  7.702950  6.558070
   O (  9)  5.709381  6.818161  5.934843  2.272511  7.304870  8.924188
   O ( 10)  5.553994  7.677828  7.461478  7.158623  2.212574  6.854586
   O ( 11)  5.478586  6.456463  6.206177  8.711455  7.042313  2.110944
             O (  7)   O (  8)   O (  9)   O ( 10)
   O (  8) 10.784744
   O (  9)  8.232337  6.921424
   O ( 10)  9.158921  9.180789  8.909317
   O ( 11)  7.948136  7.604456 10.839945  8.550528

 A cutoff of  1.0D-11 yielded   2482 shell pairs
 There are     12834 function pairs (     14696 Cartesian)
 Smallest overlap matrix eigenvalue = 2.58E-03
 Guess MOs from SCF MO coefficient file
 Reading MOs from coefficient file
 Reading MOs from coefficient file
 A restricted Kohn-Sham SCF calculation will be
 performed using Pulay DIIS extrapolation
 Exchange:  B88      Correlation:  P86
 Using SG-1 standard quadrature grid
 SCF converges when DIIS error is below 1.0E-08
 Using Q-Chem read-in guess as SCF_GUESS READ specified.

 using 2 threads for integral computing
 -------------------------------------------------------
 OpenMP Integral computing Module                
 Release: version 1.0, May 2013, Q-Chem Inc. Pittsburgh 
 -------------------------------------------------------
 ---------------------------------------
  Cycle       Energy         DIIS Error
 ---------------------------------------
    1   -1830.5110296851      8.83E-10
    2   -1830.5110296858      7.06E-09 Convergence criterion met
 ---------------------------------------
 SCF time:  CPU 2.80 s  wall 1.53 s
 E(QM + QM/MM):    -1830.5110296858 E(MM):    2.2629742 E(Tot): -1828.248055449706 
 SCF   energy in the final basis set = -1828.24805545
 Total energy in the final basis set = -1828.24805545

 --------------------------------------------------------------

                    Orbital Energies (a.u.)
 --------------------------------------------------------------

 Alpha MOs
 -- Occupied --
******** -29.6333 -25.5932 -25.5825 -25.5748 -18.8902 -18.8854 -18.8814
-18.8810 -18.8653 -10.0574 -10.0503 -10.0500 -10.0489 -10.0308  -3.3170
 -2.1525  -2.1313  -2.1168  -1.0897  -1.0579  -1.0512  -1.0344  -1.0332
 -0.5725  -0.5284  -0.5225  -0.5136  -0.5095  -0.4581  -0.4553  -0.4477
 -0.4394  -0.4314  -0.4258  -0.4202  -0.4167  -0.4102  -0.4084  -0.4058
 -0.4008  -0.3954  -0.3885  -0.3818  -0.2761  -0.2626  -0.2335  -0.2177
 -- Virtual --
 -0.1062  -0.1018  -0.0886  -0.0803  -0.0748  -0.0616  -0.0595  -0.0564
 -0.0492  -0.0437  -0.0165   0.0155   0.1917   0.2080   0.2188   0.2561
  0.2869   0.3345   0.3600   0.3773   0.4085   0.4198   0.4290   0.4359
  0.4413   0.4698   0.4923   0.5107   0.5236   0.5407   0.5696   0.6047
  0.6142   0.6172   0.6216   0.6685   0.7351   0.7537   0.7575   0.7788
  0.7815   0.8268   0.8385   0.8714   0.8799   0.9106   0.9411   0.9589
  0.9678   0.9730   0.9880   1.0027   1.0237   1.0306   1.0414   1.0853
  1.1498   1.1853   1.2301   1.3327   1.3964   1.3994   1.4069   1.4149
  1.4212   1.4240   1.4277   1.4357   1.4446   1.4545   1.4624   1.4801
  1.5235   1.5361   1.5545   1.5643   1.5801   1.6347   1.6572   1.6760
  1.7019   1.8193   1.8252   1.8289   1.8352   1.8461   1.8479   1.8540
  1.8668   1.8695   1.8752   1.8989   1.9033   1.9111   1.9306   1.9537
  2.3678   2.4083   2.4145   2.4357   2.4536   2.4736   2.4893   2.5035
  2.5105   2.5223   2.6336   2.6392   2.6521   2.6631   2.6721   2.8105
  2.8257   2.8769   2.8807   2.9608  13.2412  13.2980  13.3011  13.3280
 13.4102  24.9078  24.9372  24.9647  24.9729  25.0229
 --------------------------------------------------------------

          Ground-State Mulliken Net Atomic Charges

     Atom                 Charge (a.u.)
  ----------------------------------------
      1 Fe                   -0.482844
      2 C                     0.212384
      3 C                     0.199667
      4 C                     0.207441
      5 C                     0.235670
      6 C                     0.183414
      7 O                    -0.102782
      8 O                    -0.112786
      9 O                    -0.143352
     10 O                    -0.129661
     11 O                    -0.067151
  ----------------------------------------
  Sum of atomic charges =     0.000000

 -----------------------------------------------------------------
                    Cartesian Multipole Moments
 -----------------------------------------------------------------
    Charge (ESU x 10^10)
                -0.0000
    Dipole Moment (Debye)
         X      -0.4977431541      Y      -0.5218745700      Z      -0.4223990028
       Tot       0.8357764245
    Quadrupole Moments (Debye-Ang)
        XX    -658.6973     XY    -319.9150     YY     -91.4987
        XZ    -233.5477     YZ       8.3954     ZZ     -42.8337
    Octopole Moments (Debye-Ang^2)
       XXX -646455.6107    XXY -197407.4045    XYY  -54389.6421
       YYY   -5280.2333    XXZ -126221.9572    XYZ    5335.3543
       YYZ    2809.9155    XZZ  -25889.2700    YZZ   -1534.4542
       ZZZ    5519.7422
    Hexadecapole Moments (Debye-Ang^3)
      XXXX ************   XXXY ************   XXYY ************
      XYYY ************   YYYY -221978.0433   XXXZ ************
      XXYZ 3424565.8197   XYYZ 1670932.7232   YYYZ  168729.2439
      XXZZ ************   XYZZ -920217.3857   YYZZ -119959.8814
      XZZZ 3284316.6151   YZZZ  141038.5696   ZZZZ -388704.9690
 -----------------------------------------------------------------
 Calculating MO derivatives via CPSCF
 Full subspace dimension requested for CIS/TDDFT
 MAX_CIS_SUBSPACE fits in available memory
    1     0    36    0.0421201  
    2     0    36    0.0068019  
    3     0    36    0.0006842  
    4     1    35    0.0000451  
    5    33     3    0.0000015  
    6    36     0    0.0000001  Converged
 Time for AOints: 6.5 s (CPU) 3.3 s (wall)
 ------------------------------------------------------------------------------
                     AOints        : Timing summary (seconds)
 ------------------------------------------------------------------------------
     job step          cpu (% of tot)      sys (% of tot)     wall (% of tot)
 ------------------------------------------------------------------------------
  AOints            0.6485E+01 ( 3.6)   0.1200E-04 (11.0)   0.3310E+01 ( 3.7)
 ------------------------------------------------------------------------------
   Grand Totals     0.1793E+03          0.1090E-03          0.9044E+02
 ------------------------------------------------------------------------------
 Polarizability Matrix (a.u.)
            1           2           3
    1 -98.5498414  -3.4358471   5.1762371
    2  -3.4358472 -97.5214503   0.3796090
    3   5.1762371   0.3796090 -82.1158748
 Derivative of Dipole Moment Matrix (a.u.)
            1           2           3
    1  -1.8346502   0.0345666   0.0383615
    2  -0.0059228  -1.8299119  -0.0418912
    3  -0.0297518   0.0306255  -1.7291009
    4   2.2938511  -0.3131715   0.2445839
    5  -0.3675643   0.3946472  -0.0548337
    6  -0.0690039  -0.0185646   0.4226596
    7   1.7829886  -0.1032365  -0.8574508
    8   0.0428537   0.2831687  -0.0447276
    9  -0.8625564   0.0228136   0.8932738
   10   0.4476049   0.4518356  -0.0187128
   11   0.3280207   2.0424172  -0.1076589
   12   0.0168142  -0.2708530   0.4268467
   13   0.5409709  -0.1106284   0.5406377
   14  -0.0660859   0.5706489  -0.4278169
   15   0.3145022  -0.3365865   2.2081120
   16   0.4456565   0.1952269   0.0717658
   17   0.2358903   2.0066468   0.5550207
   18   0.1690490   0.7522955   0.7027782
   19  -1.7274937   0.2554878  -0.1595663
   20   0.3040693  -0.1802037   0.0348842
   21   0.1104744  -0.0077681  -0.1549119
   22  -1.2699251   0.0450576   0.6987894
   23  -0.0723435  -0.1202027   0.0542800
   24   0.6992595  -0.0142919  -0.6009819
   25  -0.2311629  -0.3996322   0.0222662
   26  -0.2683975  -1.4820893   0.1008587
   27   0.0337550   0.2659107  -0.1895382
   28  -0.2904356   0.1116390  -0.5152328
   29   0.0667820  -0.2767181   0.3762729
   30  -0.2528574   0.2956315  -1.5794351
   31  -0.1574046  -0.1671449  -0.0654418
   32  -0.1973020  -1.4084031  -0.4443882
   33  -0.1296847  -0.7192126  -0.3997022
 -----------------------------------------
 Net:   0.00000  -0.00000  -0.00000
 -----------------------------------------

 Calculating analytic Hessian of the SCF energy
