                  Welcome to Q-Chem
     A Quantum Leap Into The Future Of Chemistry


 Q-Chem 5.4 (devel), Q-Chem, Inc., Pleasanton, CA (2021)

 E. Epifanovsky,  A. T. B. Gilbert,  Xintian Feng,  Joonho Lee,  Yuezhi Mao,  
 N. Mardirossian,  P. Pokhilko,  A. White,  M. Wormit,  M. P. Coons,  
 A. L. Dempwolff,  Zhengting Gan,  D. Hait,  P. R. Horn,  L. D. Jacobson,  
 I. Kaliman,  J. Kussmann,  A. W. Lange,  Ka Un Lao,  D. S. Levine,  Jie Liu,  
 S. C. McKenzie,  A. F. Morrison,  K. Nanda,  F. Plasser,  D. R. Rehn,  
 M. L. Vidal,  Zhi-Qiang You,  Ying Zhu,  B. Alam,  B. Albrecht,  
 A. Aldossary,  E. Alguire,  J. H. Andersen,  D. Barton,  K. Begam,  A. Behn,  
 Y. A. Bernard,  E. J. Berquist,  H. Burton,  A. Carreras,  K. Carter-Fenk,  
 R. Chakraborty,  A. D. Chien,  K. D. Closser,  V. Cofer-Shabica,  
 S. Dasgupta,  Jia Deng,  M. de Wergifosse,  M. Diedenhofen,  Hainam Do,  
 S. Ehlert,  Po-Tung Fang,  S. Fatehi,  Qingguo Feng,  T. Friedhoff,  
 J. Gayvert,  Qinghui Ge,  G. Gidofalvi,  M. Goldey,  J. Gomes,  
 C. Gonzalez-Espinoza,  S. Gulania,  A. Gunina,  M. W. D. Hanson-Heine,  
 P. H. P. Harbach,  A. W. Hauser,  M. F. Herbst,  M. Hernandez Vera,  
 M. Hodecker,  Z. C. Holden,  S. Houck,  Xunkun Huang,  Kerwin Hui,  
 B. C. Huynh,  M. Ivanov,  Hyunjun Ji,  Hanjie Jiang,  B. Kaduk,  S. Kaehler,  
 K. Khistyaev,  Jaehoon Kim,  P. Klunzinger,  Z. Koczor-Benda,  
 Joong Hoon Koh,  D. Kosenkov,  L. Koulias,  T. Kowalczyk,  C. M. Krauter,  
 K. Kue,  A. Kunitsa,  T. Kus,  A. Landau,  K. V. Lawler,  D. Lefrancois,  
 S. Lehtola,  Rain Li,  Yi-Pei Li,  Jiashu Liang,  M. Liebenthal,  
 Hung-Hsuan Lin,  You-Sheng Lin,  Fenglai Liu,  Kuan-Yu Liu,  
 M. Loipersberger,  A. Luenser,  A. Manjanath,  P. Manohar,  E. Mansoor,  
 S. F. Manzer,  Shan-Ping Mao,  A. V. Marenich,  T. Markovich,  S. Mason,  
 S. A. Maurer,  P. F. McLaughlin,  M. F. S. J. Menger,  J.-M. Mewes,  
 S. A. Mewes,  P. Morgante,  J. W. Mullinax,  K. J. Oosterbaan,  G. Paran,  
 Alexander C. Paul,  Suranjan K. Paul,  F. Pavosevic,  Zheng Pei,  S. Prager,  
 E. I. Proynov,  E. Ramos,  B. Rana,  A. E. Rask,  A. Rettig,  R. M. Richard,  
 F. Rob,  E. Rossomme,  T. Scheele,  M. Scheurer,  M. Schneider,  
 N. Sergueev,  S. M. Sharada,  W. Skomorowski,  D. W. Small,  C. J. Stein,  
 Yu-Chuan Su,  E. J. Sundstrom,  Zhen Tao,  J. Thirman,  T. Tsuchimochi,  
 N. M. Tubman,  S. P. Veccham,  O. Vydrov,  J. Wenzel,  J. Witte,  A. Yamada,  
 Kun Yao,  S. Yeganeh,  S. R. Yost,  A. Zech,  Igor Ying Zhang,  Xing Zhang,  
 Yu Zhang,  D. Zuev,  A. Aspuru-Guzik,  A. T. Bell,  N. A. Besley,  
 K. B. Bravaya,  B. R. Brooks,  D. Casanova,  Jeng-Da Chai,  S. Coriani,  
 C. J. Cramer,  A. E. DePrince, III,  R. A. DiStasio Jr.,  A. Dreuw,  
 B. D. Dunietz,  T. R. Furlani,  W. A. Goddard III,  S. Grimme,  
 S. Hammes-Schiffer,  T. Head-Gordon,  W. J. Hehre,  Chao-Ping Hsu,  
 T.-C. Jagau,  Yousung Jung,  A. Klamt,  Jing Kong,  D. S. Lambrecht,  
 WanZhen Liang,  N. J. Mayhall,  C. W. McCurdy,  J. B. Neaton,  
 C. Ochsenfeld,  J. A. Parkhill,  R. Peverati,  V. A. Rassolov,  Yihan Shao,  
 L. V. Slipchenko,  T. Stauch,  R. P. Steele,  J. E. Subotnik,  
 A. J. W. Thom,  A. Tkatchenko,  D. G. Truhlar,  T. Van Voorhis,  
 T. A. Wesolowski,  K. B. Whaley,  H. L. Woodcock III,  P. M. Zimmerman,  
 S. Faraji,  P. M. W. Gill,  M. Head-Gordon,  J. M. Herbert,  A. I. Krylov

 Additional authors for Version 5.4.1: 
 S. Kotaru,  Shaozhi Li,  Xiangyuan Li,  F. Matz,  A. Molle,  Haisheng Ren,  
 Yingli Su,  Hung-Yi Tsai,  C. Utku,  Fang Wang

 Contributors to earlier versions of Q-Chem not listed above: 
 R. D. Adamson,  B. Austin,  R. Baer,  J. Baker,  G. J. O. Beran,  
 K. Brandhorst,  S. T. Brown,  E. F. C. Byrd,  A. K. Chakraborty,  
 G. K. L. Chan,  Chun-Min Chang,  Yunqing Chen,  C.-L. Cheng,  
 Siu Hung Chien,  D. M. Chipman,  D. L. Crittenden,  H. Dachsel,  
 R. J. Doerksen,  A. D. Dutoi,  R. G. Edgar,  J. Fosso-Tande,  
 L. Fusti-Molnar,  D. Ghosh,  A. Ghysels,  A. Golubeva-Zadorozhnaya,  
 J. Gonthier,  M. S. Gordon,  S. R. Gwaltney,  G. Hawkins,  J. E. Herr,  
 A. Heyden,  S. Hirata,  E. G. Hohenstein,  G. Kedziora,  F. J. Keil,  
 C. Kelley,  Jihan Kim,  R. A. King,  R. Z. Khaliullin,  P. P. Korambath,  
 W. Kurlancheek,  A. Laurent,  A. M. Lee,  M. S. Lee,  S. V. Levchenko,  
 Ching Yeh Lin,  D. Liotard,  E. Livshits,  R. C. Lochan,  I. Lotan,  
 L. A. Martinez-Martinez,  P. E. Maslen,  N. Nair,  D. P. O'Neill,  
 D. Neuhauser,  E. Neuscamman,  C. M. Oana,  R. Olivares-Amaya,  R. Olson,  
 T. M. Perrine,  B. Peters,  P. A. Pieniazek,  A. Prociuk,  Y. M. Rhee,  
 J. Ritchie,  M. A. Rohrdanz,  E. Rosta,  N. J. Russ,  H. F. Schaefer III,  
 M. W. Schmidt,  N. E. Schultz,  S. Sharma,  N. Shenvi,  C. D. Sherrill,  
 A. C. Simmonett,  A. Sodt,  T. Stein,  D. Stuck,  K. S. Thanthiriwatte,  
 V. Vanovschi,  L. Vogt,  Tao Wang,  A. Warshel,  M. A. Watson,  
 C. F. Williams,  Q. Wu,  X. Xu,  Jun Yang,  W. Zhang,  Yan Zhao

 Please cite Q-Chem as follows:
 Y. Shao et al., Mol. Phys. 113, 184-215 (2015)
 DOI: 10.1080/00268976.2014.952696

 Q-Chem 5.4.1 for Intel X86 EM64T Linux

 Parts of Q-Chem use Armadillo 9.900.5 (Nocturnal Misbehaviour).
 http://arma.sourceforge.net/

 Q-Chem begins on Wed Jun 22 08:05:25 2022  

 Host: p09r16n04.grace.hpc.yale.internal
0

     Scratch files written to /home/tl686/scratch60/qchem_dev/scratch/qchem69277//
 Processing $rem in /home/tl686/qchem_dev/qchem/config/preferences:
 Processing $rem in /home/tl686/.qchemrc:
Applying user defined connections for MM calculations

 Checking the input file for inconsistencies... 	...done.

--------------------------------------------------------------
User input:
--------------------------------------------------------------
$molecule
0   1
 Fe 381.34629435 38.87572955 59.79432615    -1  0   0   0   0
C 379.73546201 35.88734528 59.12920796    -2  0   0   0   0 
C 381.97490682 42.26619288 60.48536262    -2  0   0   0   0
C 384.57746219 37.52832384 59.58893525    -2  0   0   0   0
C 380.48503674 39.84221307 56.58831683    -2  0   0   0   0
C 379.73564065 38.87402476 62.63613844    -2  0   0   0   0
O 378.24435323 34.26368649 59.00162455    -3  0   0   0   0
O 382.48718096 44.26528321 60.94398858    -3  0   0   0   0 
O 386.66400943 36.61596571 59.74192708    -3  0   0   0   0
O 380.21184863 40.22582316 54.36568094    -3  0   0   0   0 
O 378.71381025 39.02791383 64.56072491    -3  0   0   0   0
H 393.04217163 11.91795050 51.75147564      6     13    0    0    0 
C 391.58825424 13.41650838 51.64151284     1     12    14    15    16
H 389.88723848 12.32510406 51.86782822     6     13    0    0    0
H 391.66950006 14.88225521 53.23504028     6     13    0    0    0
C 391.57804250 14.96018050 49.16639510     2     13    17    18    19
H 393.51064004 15.78204614 48.79373970     6     16    0    0    0
H 391.39071741 13.54878723 47.72860554     6     16    0    0    0
C 389.47843441 16.95707495 48.82575302     2     16    20   21   22
H 387.62583055 15.99735224 48.79021506     6     19    0    0    0
H 389.66830980 18.20549366 50.33092561     6     19    0    0    0
C 389.92083621 18.25162832 46.18295516     2     19   23   24   25
H 391.68367171 19.20600006 45.91860677     6    22    0    0    0
H 389.98585879 16.93110317 44.71397239     6    22    0    0    0
C 388.01483723 20.39641704 45.69840374     2    22   26   27   28
H 386.12768525 19.57521325 46.02996307     6    25    0    0    0
H 387.95404632 21.63607354 47.38599334     6    25    0    0    0
C 387.90839589 22.00242973 43.37905861     2    25   29   30   31
H 389.50609685 23.27416927 43.30191662     6    28    0    0    0
H 387.89076529 20.87166578 41.62775929     6    28    0    0    0
C 385.57744967 23.76345545 43.51033833     2    28   32   33   34
H 383.93343217 22.80113961 44.42043385     6    31    0    0    0
H 386.19793956 25.23206878 44.86411978     6    31    0    0    0
C 384.79354245 24.69906929 40.99097106     2    31   35   36   37
H 386.43826130 25.39068302 39.90985480     6    34    0    0    0
H 384.18187264 23.09679612 39.85777208     6    34    0    0    0
C 382.50532294 26.74537139 41.47999532     2    34   38   39   40
H 381.08851507 25.91888511 42.41262175     6    37    0    0    0
H 383.23957860 28.16956846 42.72314992     6    37    0    0    0
C 381.20906873 28.11643277 39.21809796     2    37   41   42   43
H 382.35577926 28.72753037 37.69084786     6    40    0    0    0
H 380.02295328 26.69170249 38.21281283     6    40    0    0    0
C 379.59670694 30.40942360 40.20315610     2    40   44   45   46
H 377.96312224 29.83124143 41.26267439     6    43    0    0    0
H 380.96335334 31.82445900 41.00968287     6    43    0    0    0
C 378.18857040 31.86321164 38.03650949     1    43   47   48   49
H 379.53810536 32.51190131 36.60026945     6    46    0    0    0
H 377.50874759 33.53058197 39.07505474     6    46    0    0    0
H 376.56981128 30.82723246 37.42492737     6    46    0    0    0
H 376.36933491 31.41730493 54.09440709     6     51    0    0    0 
C 375.20216716 32.78981674 53.01175344     1     50    52    53    54
H 374.60651050 31.65779097 51.41960303     6     51    0    0    0
H 373.77035940 33.38101699 54.40945820     6     51    0    0    0
C 376.64605489 35.05979348 52.12946490     2     51    55    56    57
H 377.74308858 35.77648534 53.63523169     6     54    0    0    0
H 378.07993629 34.56964571 50.84029284     6     54    0    0    0
C 375.18947619 37.15056080 50.80451799     2     54    58   59   60
H 373.60115784 37.67540947 52.02998965     6     57    0    0    0
H 376.58773212 38.54712107 50.51527928     6     57    0    0    0
C 374.06454565 36.37790977 48.24439069     2     57   61   62   63
H 373.17400142 34.51048589 48.37025138     6    60    0    0    0
H 372.56433435 37.66446402 47.87711673     6    60    0    0    0
C 376.01074623 36.51809125 45.96798288     2    60   64   65   66
H 376.90265195 38.29930627 46.13002475     6    63    0    0    0
H 377.46156904 35.07062755 46.31606663     6    63    0    0    0
C 374.86973374 36.08798269 43.34120246     2    63   67   68   69
H 376.27367205 37.00529424 42.11123477     6    66    0    0    0
H 374.84223875 34.16386110 42.58132979     6    66    0    0    0
C 372.36949054 37.21770963 42.92402617     2    66   70   71   72
H 370.95147228 36.45188277 44.24903546     6    69    0    0    0
H 372.41533787 39.22450621 43.38860508     6    69    0    0    0
C 371.46093489 36.95316320 40.18977235     2    69   73   74   75
H 372.76337269 37.89466681 38.87474645     6    72    0    0    0
H 371.39790503 35.05067806 39.50978765     6    72    0    0    0
C 368.95309193 38.33007034 39.76353075     2    72   76   77   78
H 367.27801193 37.45734670 40.67260269     6    75    0    0    0
H 369.01832546 40.12696217 40.61850080     6    75    0    0    0
C 368.34615626 38.70156996 36.98946635     2    75   79   80   81
H 369.72679054 39.86504975 36.18885892     6    78    0    0    0
H 368.08718982 36.91036278 36.01624584     6    78    0    0    0
C 366.11188560 40.48185919 36.98085717     2    78   82   83   84
H 364.73052401 39.53793142 38.09253050     6    81    0    0    0
H 366.63195948 42.38715804 37.64131909     6    81    0    0    0
C 365.12498065 40.52878793 34.14066036     1    81   85   86   87
H 363.53116394 42.07844463 34.08337967     6    84    0    0    0
H 364.49393427 38.77693756 33.17272766     6    84    0    0    0
H 366.61756097 41.17588200 32.86544072     6    84    0    0    0
H 410.75049666 43.12039294 36.90741875     6     89    0    0    0 
C 409.15955007 43.09687847 35.62319817     1     88    90    91    92
H 407.68861530 43.89864052 36.77128313     6     89    0    0    0
H 409.50801313 44.15276012 33.93356750     6     89    0    0    0
C 408.74025139 40.15077561 35.18470119     2     89    93    94    95
H 410.16045176 39.41017477 33.93681263     6     92    0    0    0
H 408.70896815 39.02408828 36.84059627     6     92    0    0    0
C 406.06576899 39.78389239 33.88050515     2     92    96   97   98
H 404.47540236 40.19537146 35.17508874     6     95    0    0    0
H 406.04823137 40.82491194 32.21236672     6     95    0    0    0
C 405.51799246 37.05041691 32.90405546     2     95   99   100   101
H 406.87798979 36.66237605 31.33767051     6    98    0    0    0
H 405.95129691 35.68114797 34.29753940     6    98    0    0    0
C 402.72429224 36.62224220 32.27460213     2    98   102   103   104
H 401.57281443 36.95637673 33.92710082     6    101    0    0    0
H 402.18903685 38.04450773 30.78001910     6    101    0    0    0
C 402.08827891 34.03667556 31.33280022     2    101   105   106   107
H 402.96577574 33.80948634 29.46011372     6    104    0    0    0
H 403.03121934 32.69952396 32.48842904     6    104    0    0    0
C 399.19507333 33.62125074 31.29243919     2    104   108   109   110
H 398.57901111 34.18917673 33.08504822     6    107    0    0    0
H 398.26386467 34.73325339 29.79049770     6    107    0    0    0
C 398.62470522 30.66520123 30.90821016     2    107   111   112   113
H 399.40738038 30.20424750 29.03180965     6    110    0    0    0
H 399.72787347 29.45831296 32.06294627     6    110    0    0    0
C 395.81088553 29.92566252 30.78046595     2    110   114   115   116
H 394.90032359 30.30805828 32.51012306     6    113    0    0    0
H 394.67222656 31.20517357 29.40933179     6    113    0    0    0
C 395.29149109 27.23274000 30.17430280     2    113   117   118   119
H 396.57924130 26.64519642 28.66051730     6    116    0    0    0
H 395.40692162 26.02447269 31.88186723     6    116    0    0    0
C 392.65637222 26.59456407 29.25773422     2    116   120   121   122
H 391.30404105 27.14291217 30.70525670     6    119    0    0    0
H 392.21784092 27.63335899 27.56009231     6    119    0    0    0
C 392.44163582 23.70140028 28.88494483     1    119   123   124   125
H 390.63021243 23.13664648 28.13299916     6    122    0    0    0
H 392.68794936 22.80777216 30.71796679     6    122    0    0    0
H 393.87514476 23.14825042 27.52223522     6    122    0    0    0
H 409.92528182 31.95457258 47.87098346     6     127    0    0    0 
C 409.57466805 32.76165812 49.80110578     1     126    128    129    130
H 410.19855398 31.57607806 51.34010664     6     127    0    0    0
H 410.70435279 34.44814899 49.81047149     6     127    0    0    0
C 406.79542274 33.41686641 50.17311485     2     127    131    132    133
H 406.02231604 34.57427771 48.58636607     6     130    0    0    0
H 405.85482104 31.60376267 50.24807891     6     130    0    0    0
C 406.31234518 34.85984889 52.67331805     2     130    134   135   136
H 407.51480445 34.13157392 54.15242911     6     133    0    0    0
H 406.71741504 36.79522898 52.41364202     6     133    0    0    0
C 403.64427679 35.12541786 53.57849049     2     133   137   138   139
H 402.66579234 35.87023795 52.02701127     6    136    0    0    0
H 402.84889603 33.32636023 54.00943896     6    136    0    0    0
C 403.48343490 36.80539589 55.87843999     2    136   140   141   142
H 404.78087254 36.01564726 57.36153344     6    139    0    0    0
H 404.27537481 38.57497891 55.43325991     6    139    0    0    0
C 400.88517710 36.73049247 56.96467696     2    139   143   144   145
H 399.56991110 37.71661512 55.58451529     6    142    0    0    0
H 400.16766998 34.83774408 57.17071227     6    142    0    0    0
C 400.97212334 37.97168462 59.76151728     2    142   146   147   148
H 401.98594223 36.70283903 61.02350381     6    145    0    0    0
H 401.93198067 39.79650123 59.44241218     6    145    0    0    0
C 398.57683619 38.43390364 61.10068093     2    145   149   150   151
H 397.23837772 39.35656330 59.73352127     6    148    0    0    0
H 398.00558539 36.52859218 61.42820691     6    148    0    0    0
C 398.78292008 39.82002950 63.82014932     2    148   152   153   154
H 400.69759355 39.48877342 64.43697649     6    151    0    0    0
H 398.58511879 41.81475336 63.64450987     6    151    0    0    0
C 396.72947197 38.78423367 65.48024324     2    151   155   156   157
H 396.16412382 40.38436934 66.69106318     6    154    0    0    0
H 395.17183158 38.57761275 64.17995893     6    154    0    0    0
C 397.36505232 36.33940185 66.93612984     2    154   158   159   160
H 397.93547467 34.70059991 65.76381233     6    157    0    0    0
H 398.89342885 36.70672290 68.28018997     6    157    0    0    0
C 395.23402535 35.56115268 68.77034684     1    157   161   162   163
H 394.46191482 37.00914423 70.07004669     6    160    0    0    0
H 396.01524417 33.87793929 69.69543117     6    160    0    0    0
H 393.70236923 34.70765897 67.67192164     6    160    0    0    0
H 404.82993065 63.72614740 29.98110542     6     165    0    0    0 
C 404.48255257 64.80319538 31.71460567     1     164    166    167    168
H 405.74583778 66.48257100 32.08911543     6     165    0    0    0
H 402.53368580 65.41183434 31.44424697     6     165    0    0    0
C 404.46282524 62.80743860 33.92919585     2     165    169    170    171
H 402.97768146 61.49744584 33.63345685     6     168    0    0    0
H 405.96479609 61.50718095 33.83357120     6     168    0    0    0
C 404.09983593 64.11816134 36.45198361     2     168    172   173   174
H 405.65860671 65.34511541 36.77165427     6     171    0    0    0
H 402.38930311 65.36391301 36.59466031     6     171    0    0    0
C 404.19281950 62.07881843 38.65473353     2     171   175   176   177
H 402.88671960 60.64830420 38.26417118     6    174    0    0    0
H 405.97545730 61.01940357 38.21567872     6    174    0    0    0
C 404.10382978 63.20985164 41.40591627     2    174   178   179   180
H 405.39544447 64.89207821 41.44737398     6    177    0    0    0
H 402.19645619 63.83796641 41.87901353     6    177    0    0    0
C 404.91370953 61.32005747 43.39238937     2    177   181   182   183
H 403.50151437 59.78384443 43.46720094     6    180    0    0    0
H 406.48605319 60.18889224 42.62285200     6    180    0    0    0
C 405.22259169 62.62666706 46.08117581     2    180   184   185   186
H 405.29420557 64.69255897 45.98211597     6    183    0    0    0
H 403.51452712 62.17375079 47.22381216     6    183    0    0    0
C 407.60218194 61.65602662 47.40582639     2    183   187   188   189
H 407.56761925 59.56953264 47.04958932     6    186    0    0    0
H 409.16002101 62.48109619 46.37728940     6    186    0    0    0
C 407.30628240 61.84943117 50.33696971     2    186   190   191   192
H 406.73094775 63.76020076 50.81206124     6    189    0    0    0
H 405.80856157 60.48827810 51.03109790     6    189    0    0    0
C 409.94188883 61.41770844 51.61102005     2    189   193   194   195
H 410.66644418 59.47279971 51.17558293     6    192    0    0    0
H 411.41903330 62.51792025 50.67316591     6    192    0    0    0
C 409.87196804 61.94619951 54.44954628     2    192   196   197   198
H 409.17622659 63.77465801 54.96028549     6    195    0    0    0
H 408.45337768 60.67523528 55.30517886     6    195    0    0    0
C 412.60179256 61.63051674 55.42874397     1    195   199   200   201
H 412.62807636 62.09547019 57.39517790     6    198    0    0    0
H 414.08536697 62.78589903 54.66430368     6    198    0    0    0
H 413.31253723 59.68178092 55.52658626     6    198    0    0    0
H 392.18249173 72.37247308 42.33206341     6     203    0    0    0 
C 391.36838049 71.18619467 40.78648398     1     202    204    205    206
H 392.60560140 71.67209300 39.22183195     6     203    0    0    0
H 391.81461523 69.18789825 41.28374601     6     203    0    0    0
C 388.57006101 71.55131343 39.96813927     2     203    207    208    209
H 387.99601838 73.55603994 40.04946637     6     206    0    0    0
H 388.25148114 71.04079297 37.96746539     6     206    0    0    0
C 386.82929003 69.87398316 41.51504950     2     206    210   211   212
H 386.74000076 67.85264344 40.94395614     6     209    0    0    0
H 387.49868822 69.98797807 43.45932759     6     209    0    0    0
C 383.96324019 70.54045860 41.59540078     2     209   213   214   215
H 383.92108172 72.55383810 41.91109256     6    212    0    0    0
H 383.12181065 70.18955006 39.65099147     6    212    0    0    0
C 382.54282314 69.19058069 43.84885264     2    212   216   217   218
H 383.20839425 67.15906586 43.79560797     6    215    0    0    0
H 383.26750371 70.07395944 45.64375119     6    215    0    0    0
C 379.67555593 69.37984093 43.97095376     2    215   219   220   221
H 379.13254867 71.36004150 43.69998531     6    218    0    0    0
H 379.11764861 68.61237604 42.10906462     6    218    0    0    0
C 378.54425975 68.30926855 46.34832357     2    218   222   223   224
H 379.77324205 66.69130361 46.95049686     6    221    0    0    0
H 378.55567054 69.77723666 47.75990888     6    221    0    0    0
C 375.84729945 67.46689350 45.85346682     2    221   225   226   227
H 374.73871296 69.09039072 45.24579845     6    224    0    0    0
H 375.83527237 66.39418005 44.06889710     6    224    0    0    0
C 374.72593669 66.16081960 48.09402110     2    224   228   229   230
H 375.10904151 64.22515225 47.82649339     6    227    0    0    0
H 375.63712227 66.55153983 49.89479332     6    227    0    0    0
C 371.78905685 66.63003027 48.31307238     2    227   231   232   233
H 371.78947883 68.61914476 48.78019472     6    230    0    0    0
H 371.10630918 66.54890209 46.38608258     6    230    0    0    0
C 369.98204344 65.16457858 49.81267911     2    230   234   235   236
H 369.85278006 63.23900696 49.26862479     6    233    0    0    0
H 370.86607683 65.14717303 51.62352657     6    233    0    0    0
C 367.34678488 66.36518093 50.08714506     1    233   237   238   239
H 366.40049349 65.79199240 51.70684305     6    236    0    0    0
H 366.35512581 65.72403844 48.39600246     6    236    0    0    0
H 367.39028013 68.38848990 50.13101284     6    236    0    0    0
H 377.65964121 32.85508454 26.67941904     6     241    0    0    0 
C 377.37193575 32.86752465 28.65501974     1     240    242    243    244
H 378.54403083 31.29288576 29.41073652     6     241    0    0    0
H 377.93788111 34.69945184 29.57018943     6     241    0    0    0
C 374.46851315 32.65303754 28.96697646     2     241    245    246    247
H 373.52833904 34.14325377 28.09259556     6     244    0    0    0
H 373.92872011 30.96426022 28.10813179     6     244    0    0    0
C 373.73488279 32.86356277 31.75106192     2     244    248   249   250
H 373.86959869 30.87171315 32.59689013     6     247    0    0    0
H 375.00718748 33.98885473 32.78166393     6     247    0    0    0
C 371.11466919 34.06170039 32.19370571     2     247   251   252   253
H 370.89853085 34.18558789 34.29377212     6    250    0    0    0
H 370.85444088 35.82576491 31.23091256     6    250    0    0    0
C 369.01199410 32.29922453 30.96873851     2    250   254   255   256
H 369.25199731 32.17553536 28.87090830     6    253    0    0    0
H 369.08149403 30.52627336 31.87050679     6    253    0    0    0
C 366.41831913 33.29279674 31.67422359     2    253   257   258   259
H 366.52292386 33.41755696 33.70007637     6    256    0    0    0
H 365.89542818 35.10620502 30.75016345     6    256    0    0    0
C 364.35440989 31.46009562 30.89640830     2    256   260   261   262
H 364.21497711 31.10490129 28.81114672     6    259    0    0    0
H 364.66301551 29.51559132 31.62536836     6    259    0    0    0
C 361.68557005 32.36298198 31.67081349     2    259   263   264   265
H 361.87661785 33.20804797 33.53756020     6    262    0    0    0
H 361.38817779 33.84038389 30.34368240     6    262    0    0    0
C 359.53611098 30.29214066 31.44378719     2    262   266   267   268
H 359.54060024 29.48789683 29.54899903     6    265    0    0    0
H 359.84319756 28.66069947 32.63795643     6    265    0    0    0
C 356.83558715 31.32469125 31.87365899     2    265   269   270   271
H 356.96691566 32.08627800 33.76966124     6    268    0    0    0
H 356.53040359 32.75469652 30.45769004     6    268    0    0    0
C 354.66231280 29.35679051 32.24371749     2    268   272   273   274
H 354.19410079 28.39510599 30.38281583     6    271    0    0    0
H 355.30065806 27.99185592 33.69572075     6    271    0    0    0
C 352.15735103 30.58242388 33.20242960     1    271   275   276   277
H 352.08292335 30.62533963 35.28848191     6    274    0    0    0
H 350.44994603 29.53726634 32.63923762     6    274    0    0    0
H 351.83211543 32.52832756 32.32844219     6    274    0    0    0
H 401.66807180 57.71168458 33.61021617     6     279    0    0    0 
C 399.99376148 57.00634363 32.84301828     1     278    280    281    282
H 399.41237088 58.19654123 31.33625029     6     279    0    0    0
H 400.51627430 55.05625884 32.21889202     6     279    0    0    0
C 397.82107654 56.65470493 34.83309877     2     279    283    284    285
H 398.04068021 55.22956724 36.27460880     6     282    0    0    0
H 397.56157868 58.47185105 35.83098129     6     282    0    0    0
C 395.24504309 55.54573078 33.70957189     2     282    286   287   288
H 394.66251611 56.42294214 31.85363681     6     285    0    0    0
H 395.57805357 53.59226791 33.41627067     6     285    0    0    0
C 393.01620048 55.69535897 35.59458424     2     285   289   290   291
H 393.62149412 54.97070754 37.42213209     6    288    0    0    0
H 392.46974884 57.61220190 36.02657097     6    288    0    0    0
C 390.44665685 54.35506330 34.99545088     2    288   292   293   294
H 389.83230519 55.28899892 33.22026936     6    291    0    0    0
H 390.65992688 52.26844481 34.66962662     6    291    0    0    0
C 388.46475929 54.86521529 37.14852038     2    291   295   296   297
H 388.87962757 53.82051512 38.87233501     6    294    0    0    0
H 388.44807740 56.82864395 37.54732991     6    294    0    0    0
C 385.75769650 53.88546821 36.21620822     2    294   298   299   300
H 385.34387045 54.81470908 34.41294711     6    297    0    0    0
H 385.84765026 51.82104005 35.78464775     6    297    0    0    0
C 383.72253473 54.43711334 38.24146234     2    297   301   302   303
H 384.42867578 53.64889143 40.01311658     6    300    0    0    0
H 383.44550010 56.46509629 38.60772801     6    300    0    0    0
C 381.22427413 53.28933595 37.35102449     2    300   304   305   306
H 380.58441693 53.90810702 35.46984710     6    303    0    0    0
H 381.71717669 51.21030582 37.11234019     6    303    0    0    0
C 379.15572727 53.77738566 39.23910529     2    303   307   308   309
H 379.57806879 52.92958968 41.14690378     6    306    0    0    0
H 379.21054869 55.83473821 39.41295507     6    306    0    0    0
C 376.53930461 52.97606063 38.11797163     2    306   310   311   312
H 376.23434578 54.19878510 36.40158684     6    309    0    0    0
H 376.46157874 50.98675263 37.48773657     6    309    0    0    0
C 374.36985758 53.65142739 39.90047280     1    309   313   314   315
H 372.52711963 53.13567866 39.12070842     6    312    0    0    0
H 374.28828825 55.70049424 40.40511903     6    312    0    0    0
H 374.56441047 52.78876524 41.66871369     6    312    0    0    0
H 398.35749347 37.71254376 40.48164565     6     317    0    0    0 
C 398.42778131 39.67744365 41.46839876     1     316    318    319    320
H 400.38220791 40.16908070 41.92225957     6     317    0    0    0
H 397.43119786 41.18353244 40.39735842     6     317    0    0    0
C 396.82951877 39.72270213 43.96171439     2     317    321    322    323
H 396.68905813 41.58649597 44.80079060     6     320    0    0    0
H 394.86721054 39.19654983 43.41896450     6     320    0    0    0
C 397.97663955 38.05168559 45.78766834     2     320    324   325   326
H 398.52623685 36.20299022 45.11856258     6     323    0    0    0
H 399.77519090 38.91879143 46.25677535     6     323    0    0    0
C 396.16979041 37.43622119 48.01990235     2     323   327   328   329
H 395.61223195 39.21073894 49.05835455     6    326    0    0    0
H 394.52294932 36.71957651 47.12204652     6    326    0    0    0
C 397.12235643 35.28736381 49.82705679     2    326   330   331   332
H 398.15363334 33.95201828 48.58575184     6    329    0    0    0
H 398.44166648 36.10012443 51.05902158     6    329    0    0    0
C 395.11458965 33.85176159 51.47570043     2    329   333   334   335
H 393.97528032 32.79352272 50.15857673     6    332    0    0    0
H 396.31242836 32.55057594 52.60479525     6    332    0    0    0
C 393.60594568 35.49865900 53.26145934     2    332   336   337   338
H 394.98480237 36.89077558 53.99002723     6    335    0    0    0
H 392.48650018 36.72892123 52.04224265     6    335    0    0    0
C 392.12955461 34.27604374 55.47273442     2    335   339   340   341
H 390.77603331 35.67416972 56.06537248     6    338    0    0    0
H 390.89237947 32.82391679 54.73593593     6    338    0    0    0
C 393.92785321 33.28712568 57.66130066     2    338   342   343   344
H 395.23273217 32.07108818 56.88721781     6    341    0    0    0
H 394.99312179 34.89298097 58.30264963     6    341    0    0    0
C 392.44501477 32.39146687 60.00101589     2    341   345   346   347
H 393.68466708 32.07567341 61.70221145     6    344    0    0    0
H 391.02760581 33.69061179 60.63216388     6    344    0    0    0
C 390.93866521 30.05280143 59.78755263     2    344   348   349   350
H 389.83718344 30.10017404 58.03848274     6    347    0    0    0
H 392.05213762 28.43181531 59.62007124     6    347    0    0    0
C 389.29806958 29.59060137 62.19063638     1    347   351   352   353
H 387.77448889 30.99635787 62.64802699     6    350    0    0    0
H 390.41681075 29.46249815 63.89132856     6    350    0    0    0
H 388.42063830 27.67452260 62.17334147     6    350    0    0    0
H 380.90499612 37.66617875 33.54437758     6     355    0    0    0 
C 381.74641077 37.94398345 35.40744880     1     354    356    357    358
H 380.21427765 38.48935343 36.69900227     6     355    0    0    0
H 382.29062402 35.96025523 36.00307679     6     355    0    0    0
C 383.92705207 39.87015685 35.04992712     2     355    359    360    361
H 385.18453761 39.17236387 33.61124407     6     358    0    0    0
H 383.11120726 41.52989630 34.00740957     6     358    0    0    0
C 385.18355273 40.61392047 37.60618327     2     358    362   363   364
H 383.63158767 40.96326326 39.01942784     6     361    0    0    0
H 386.08131340 38.92753033 38.30545590     6     361    0    0    0
C 387.04106049 42.97387110 37.41789096     2     361   365   366   367
H 388.03857829 42.76302074 35.61780114     6    364    0    0    0
H 386.07473722 44.67762408 37.23143877     6    364    0    0    0
C 389.20149327 43.10540028 39.48950660     2    364   368   369   370
H 388.64380215 43.58626855 41.40264538     6    367    0    0    0
H 390.29372525 41.50024620 39.34625511     6    367    0    0    0
C 391.20104440 45.06758048 38.47937875     2    367   371   372   373
H 391.98189934 44.14853174 36.73780508     6    370    0    0    0
H 390.18588540 46.83922498 38.06054659     6    370    0    0    0
C 393.38953916 45.69935505 40.33883494     2    370   374   375   376
H 392.53343621 46.11645652 42.25974024     6    373    0    0    0
H 394.64873797 44.08819676 40.73437910     6    373    0    0    0
C 394.86190923 48.01483784 39.29400478     2    373   377   378   379
H 395.38029175 47.52602597 37.36170458     6    376    0    0    0
H 393.56621134 49.63964982 39.18784774     6    376    0    0    0
C 397.31112716 48.81429733 40.76203336     2    376   380   381   382
H 396.85746663 49.08267196 42.67386944     6    379    0    0    0
H 398.35893012 47.12624560 40.68443982     6    379    0    0    0
C 398.46457948 51.23234232 39.49679052     2    379   383   384   385
H 398.87224573 51.08152572 37.45098216     6    382    0    0    0
H 397.14141746 52.82962636 39.58909325     6    382    0    0    0
C 401.05287016 51.99399753 40.70521173     2    382   386   387   388
H 401.69999857 53.79867414 40.13902268     6    385    0    0    0
H 400.58754073 52.15085427 42.71837481     6    385    0    0    0
C 403.09880428 49.93950730 40.19599482     1    385   389   390   391
H 403.83700165 50.04981511 38.33221374     6    388    0    0    0
H 402.60407021 47.94689668 40.64143171     6    388    0    0    0
H 404.77589399 50.21582914 41.31416112     6    388    0    0    0
H 374.01862112 30.47206315 83.48160137     6     393    0    0    0 
C 372.68300116 31.28710055 82.19978614     1     392    394    395    396
H 370.86051078 30.70752097 82.76470274     6     393    0    0    0
H 372.63376003 33.21884419 82.20893927     6     393    0    0    0
C 373.41067100 30.49936086 79.43208206     2     393    397    398    399
H 375.33446254 31.11370861 78.96331315     6     396    0    0    0
H 373.89774919 28.61021343 78.87527170     6     396    0    0    0
C 371.33515417 31.35075008 77.53682377     2     396    400   401   402
H 369.51344324 30.70622712 78.33078776     6     399    0    0    0
H 371.05898586 33.32091368 77.47331850     6     399    0    0    0
C 371.72018847 30.17575687 74.93158163     2     399   403   404   405
H 373.61152336 30.73782286 74.46468410     6    402    0    0    0
H 371.96113252 28.21241961 75.12604125     6    402    0    0    0
C 369.62406952 30.82096772 73.09202442     2    402   406   407   408
H 367.76008291 31.30255401 74.08351196     6    405    0    0    0
H 370.03838144 32.61698742 72.10477499     6    405    0    0    0
C 369.29795292 28.49048528 71.46438596     2    405   409   410   411
H 371.07695722 27.66861356 70.64605322     6    408    0    0    0
H 368.41805860 27.07277416 72.78649607     6    408    0    0    0
C 367.19265664 29.14690568 69.46026014     2    408   412   413   414
H 365.36749986 29.18970232 70.29799180     6    411    0    0    0
H 367.55645181 30.91007612 68.46839485     6    411    0    0    0
C 367.32941780 27.16053959 67.29856315     2    411   415   416   417
H 369.12735212 27.16877664 66.40492022     6    414    0    0    0
H 367.20845985 25.19014985 68.08772295     6    414    0    0    0
C 365.40123841 27.36166146 65.13118277     2    414   418   419   420
H 363.56328239 27.07587590 65.90450484     6    417    0    0    0
H 365.46555327 29.26725196 64.49054161     6    417    0    0    0
C 365.98321818 25.64849398 62.92355791     2    417   421   422   423
H 367.94206611 25.84398456 62.28424692     6    420    0    0    0
H 365.97891695 23.78376475 63.84056606     6    420    0    0    0
C 364.21520700 25.57411960 60.66031794     2    420   424   425   426
H 365.03996934 24.58276148 59.09754324     6    423    0    0    0
H 362.65293904 24.34744474 61.27669861     6    423    0    0    0
C 363.15143437 28.17028680 59.61540296     1    423   427   428   429
H 361.58983300 28.76719079 60.69950529     6    426    0    0    0
H 362.31460699 27.73456261 57.73428070     6    426    0    0    0
H 364.57514524 29.57762625 59.24111369     6    426    0    0    0
H 369.98639550 5.31262392 53.25088501     6     431    0    0    0 
C 371.79476988 6.25472068 53.17527926     1     430    432    433    434
H 373.42848866 5.02597648 53.65700449     6     431    0    0    0
H 372.07271016 6.70975261 51.28861309     6     431    0    0    0
C 371.49922350 8.77154002 54.55639559     2     431    435    436    437
H 370.36313399 10.04687561 53.36544292     6     434    0    0    0
H 370.43288378 8.46811205 56.38080150     6     434    0    0    0
C 374.25781962 10.09860804 54.84691193     2     434    438   439   440
H 375.56702813 8.66821171 55.68069233     6     437    0    0    0
H 374.88857222 10.83272432 53.03773935     6     437    0    0    0
C 374.11394701 12.32242644 56.58518380     2     437   441   442   443
H 375.75049295 13.48522427 56.40100062     6    440    0    0    0
H 372.61770600 13.60121647 56.01917594     6    440    0    0    0
C 373.94066817 11.53857560 59.56710629     2    440   444   445   446
H 372.15619656 10.62736288 59.68041343     6    443    0    0    0
H 375.40642652 10.07318757 59.90343183     6    443    0    0    0
C 374.27399816 13.62312299 61.50727003     2    443   447   448   449
H 375.88855484 14.89097028 60.99126579     6    446    0    0    0
H 372.78569375 14.95527134 61.34670564     6    446    0    0    0
C 374.15469625 12.96271831 64.35448821     2    446   450   451   452
H 372.55148109 11.64868694 64.66244330     6    449    0    0    0
H 375.92079890 12.02575959 64.99725802     6    449    0    0    0
C 373.54944739 15.25939839 66.01899857     2    449   453   454   455
H 375.04941514 16.89261147 65.64882939     6    452    0    0    0
H 371.69818440 16.13467842 65.65303249     6    452    0    0    0
C 373.41846105 14.67953931 68.83995468     2    452   456   457   458
H 371.91816070 13.52308743 69.48527350     6    455    0    0    0
H 375.20093120 13.70028586 69.44402156     6    455    0    0    0
C 373.00684106 16.94545203 70.47042597     2    455   459   460   461
H 373.83055041 16.73109556 72.32666082     6    458    0    0    0
H 374.01228695 18.40481063 69.52911117     6    458    0    0    0
C 370.12887030 17.54841861 70.57433527     2    458   462   463   464
H 369.43519041 17.49060474 68.72887941     6    461    0    0    0
H 369.06013376 16.13097583 71.62699549     6    461    0    0    0
C 369.79238504 20.20488740 71.83936591     1    461   465   466   467
H 370.75620195 21.51832698 70.45666635     6    464    0    0    0
H 370.45596560 20.12150224 73.82933101     6    464    0    0    0
H 367.83377397 20.67738483 72.03707485     6    464    0    0    0
H 399.62908574 46.39262767 35.64898306     6     469    0    0    0 
C 400.13778118 45.90010878 33.74809977     1     468    470    471    472
H 398.54805832 46.86011579 32.79772477     6     469    0    0    0
H 402.05025017 46.49720723 33.29595896     6     469    0    0    0
C 399.79679452 43.06242754 33.45343150     2     469    473    474    475
H 400.73298714 42.68048766 31.63161110     6     472    0    0    0
H 400.86954600 41.99586984 34.86348789     6     472    0    0    0
C 397.00338397 42.33202784 33.47007407     2     472    476   477   478
H 396.20689655 43.50613453 35.02907752     6     475    0    0    0
H 396.23164113 43.00673581 31.79822034     6     475    0    0    0
C 396.36225791 39.43384165 33.98738788     2     475   479   480   481
H 396.97785565 38.34917170 32.32906548     6    478    0    0    0
H 397.59281100 38.72509309 35.58468259     6    478    0    0    0
C 393.42191754 38.98312043 34.48000058     2    478   482   483   484
H 392.88424685 40.07861825 36.09219760     6    481    0    0    0
H 392.16181225 39.71092738 33.03288704     6    481    0    0    0
C 392.68513636 36.15734422 34.89359679     2    481   485   486   487
H 393.48638697 34.99773492 33.38741830     6    484    0    0    0
H 393.48820216 35.46071852 36.63579502     6    484    0    0    0
C 389.88835263 35.60265581 34.66146273     2    484   488   489   490
H 389.19775764 35.85510128 36.55336356     6    487    0    0    0
H 389.12353353 37.05741092 33.29246246     6    487    0    0    0
C 389.11406268 32.84644310 34.05627012     2    487   491   492   493
H 390.12195378 32.22179433 32.33097176     6    490    0    0    0
H 389.58876308 31.57362484 35.61324379     6    490    0    0    0
C 386.25216866 32.42521805 33.25334010     2    490   494   495   496
H 384.99320589 32.77479856 34.82645718     6    493    0    0    0
H 385.91256795 33.85524133 31.71875248     6    493    0    0    0
C 385.74003976 29.80320587 32.36623287     2    493   497   498   499
H 387.00287563 29.20216290 30.79392818     6    496    0    0    0
H 386.12160755 28.34772516 33.93666080     6    496    0    0    0
C 383.14657771 29.41413705 31.61023215     2    496   500   501   502
H 382.09209608 29.07340091 33.35838700     6    499    0    0    0
H 382.30810576 31.26006767 30.80334974     6    499    0    0    0
C 382.86044873 27.06961597 30.02332916     1    499   503   504   505
H 380.82861563 26.69306374 29.80371594     6    502    0    0    0
H 383.74894580 25.54864627 30.97777359     6    502    0    0    0
H 383.64897127 27.22813740 28.17568749     6    502    0    0    0
H 355.10680107 30.16939935 39.50393530     6     507    0    0    0 
C 356.47808601 28.82387560 40.14881929     1     506    508    509    510
H 356.68431744 27.35436379 38.73327222     6     507    0    0    0
H 358.21077656 30.11267078 40.15189057     6     507    0    0    0
C 355.84898987 27.55532559 42.69638108     2     507    511    512    513
H 355.02307642 28.80408137 44.04186494     6     510    0    0    0
H 354.45031301 26.05078239 42.45118579     6     510    0    0    0
C 358.10584670 26.57736593 43.95093075     2     510    514   515   516
H 359.00855410 24.93577168 42.97905836     6     513    0    0    0
H 359.56080343 28.10080568 43.84272235     6     513    0    0    0
C 357.52281894 25.81890665 46.75447721     2     513   517   518   519
H 357.48445401 27.54631308 47.82562309     6    516    0    0    0
H 355.75988447 24.65835375 47.03372420     6    516    0    0    0
C 359.72926530 24.33576664 47.82829863     2    516   520   521   522
H 359.83096953 22.47086280 46.90373174     6    519    0    0    0
H 361.42062913 25.49667429 47.48919165     6    519    0    0    0
C 359.82960001 23.62884635 50.68283599     2    519   523   524   525
H 360.31900785 25.33690307 51.80720949     6    522    0    0    0
H 358.07521332 22.87130855 51.40745707     6    522    0    0    0
C 362.12376429 22.05893845 51.43282045     2    522   526   527   528
H 362.16400097 20.43465343 50.38354007     6    525    0    0    0
H 363.65834685 22.96284254 50.61264474     6    525    0    0    0
C 362.44038231 21.41378364 54.35220799     2    525   529   530   531
H 363.05418086 23.24765127 55.28509641     6    528    0    0    0
H 360.60565864 20.60145197 54.90353600     6    528    0    0    0
C 364.62525155 19.59428245 55.06860468     2    528   532   533   534
H 364.76957013 17.88526900 53.89428214     6    531    0    0    0
H 366.46234744 20.45055446 54.83630002     6    531    0    0    0
C 364.59084548 18.79243080 57.84468269     2    531   535   536   537
H 364.42064693 20.43741054 59.16638814     6    534    0    0    0
H 362.94982752 17.45872123 57.99986057     6    534    0    0    0
C 366.79127859 17.40124233 58.73035727     2    534   538   539   540
H 366.81858179 15.83180120 57.47958209     6    537    0    0    0
H 368.42678401 18.50930615 58.18042527     6    537    0    0    0
C 366.85637159 16.49937089 61.49117585     1    537   541   542   543
H 368.56050378 15.39861655 61.80608127     6    540    0    0    0
H 365.44310473 15.17356439 61.88780937     6    540    0    0    0
H 366.84673328 18.09936712 62.69613889     6    540    0    0    0
H 379.58228673 30.39051849 65.72175353     6     545    0    0    0 
C 380.94495459 31.57915635 64.60741575     1     544    546    547    548
H 381.56450014 30.58566245 62.87494341     6     545    0    0    0
H 380.08286868 33.34331293 63.98099267     6     545    0    0    0
C 383.36622316 32.10464190 65.95720493     2     545    549    550    551
H 384.05780558 30.42507570 67.03393467     6     548    0    0    0
H 384.72171228 32.58990527 64.52196315     6     548    0    0    0
C 383.04039757 34.30808099 67.79703274     2     548    552   553   554
H 382.16583076 36.00571162 67.02097390     6     551    0    0    0
H 381.83774647 33.63170370 69.38698297     6     551    0    0    0
C 385.73438070 34.98326853 68.81388096     2     551   555   556   557
H 386.69970535 33.47532634 69.76896148     6    554    0    0    0
H 387.04296212 35.57619392 67.27631536     6    554    0    0    0
C 385.84317494 37.35529026 70.40500827     2    554   558   559   560
H 384.92964043 38.86936190 69.23345146     6    557    0    0    0
H 384.83028187 37.26452458 72.18902554     6    557    0    0    0
C 388.60396400 38.14875671 70.84065022     2    557   561   562   563
H 389.36740780 36.72495380 72.17491616     6    560    0    0    0
H 389.74071374 37.98562041 69.10346758     6    560    0    0    0
C 389.17139944 40.82991201 71.99188453     2    560   564   565   566
H 388.08853108 42.10400744 70.96919124     6    563    0    0    0
H 388.49497440 40.81809971 74.02140196     6    563    0    0    0
C 391.84920044 41.68565432 71.73523573     2    563   567   568   569
H 393.07787807 40.24438953 72.63245081     6    566    0    0    0
H 392.11967703 41.39672671 69.86553434     6    566    0    0    0
C 392.20379054 44.48450404 72.66691943     2    566   570   571   572
H 390.66840134 45.63389821 72.05856257     6    569    0    0    0
H 392.38629684 44.41857859 74.64189200     6    569    0    0    0
C 394.73197417 45.57767555 71.88735258     2    569   573   574   575
H 396.29686464 44.61992033 73.02833972     6    572    0    0    0
H 394.94923215 45.13592881 69.92869500     6    572    0    0    0
C 395.12512503 48.54671173 72.27749124     2    572   576   577   578
H 393.73450777 49.29685549 73.74565194     6    575    0    0    0
H 396.98824867 49.04019907 72.82651852     6    575    0    0    0
C 394.89830334 49.89972530 69.60060289     1    575   579   580   581
H 396.05911249 48.90239173 68.24033125     6    578    0    0    0
H 395.41611064 51.94660271 69.65395208     6    578    0    0    0
H 392.85916334 49.84353593 69.08100818     6    578    0    0    0
H 393.29953994 60.03619081 40.73433222     6     583    0    0    0 
C 394.47231571 60.08150602 42.42786772     1     582    584    585    586
H 395.73332397 61.68269253 42.42169747     6     583    0    0    0
H 393.22759159 60.15666886 44.15325279     6     583    0    0    0
C 396.32781594 57.77697290 42.84076363     2     583    587    588    589
H 395.30921031 56.14597789 42.89130859     6     586    0    0    0
H 397.76126423 57.60340891 41.58152586     6     586    0    0    0
C 397.47094386 58.11865892 45.45668905     2     586    590   591   592
H 398.57588471 59.99117896 45.63649899     6     589    0    0    0
H 395.89525169 58.18337029 46.80081249     6     589    0    0    0
C 399.43108919 56.02119612 46.26534891     2     589   593   594   595
H 398.31852958 54.16873223 46.48386601     6    592    0    0    0
H 400.84489904 55.81704413 44.92835502     6    592    0    0    0
C 400.62186907 56.43280727 48.95111453     2    592   596   597   598
H 401.36452648 58.40946593 49.36502583     6    595    0    0    0
H 399.06770396 56.05133448 50.21693407     6    595    0    0    0
C 402.99647849 54.89512671 49.47538815     2    595   599   600   601
H 402.77067855 52.87814453 48.99059331     6    598    0    0    0
H 404.66160478 55.61448989 48.47762565     6    598    0    0    0
C 403.51979048 55.09044829 52.39966716     2    598   602   603   604
H 403.73682217 57.03927990 52.92624371     6    601    0    0    0
H 401.98997799 54.12825323 53.37007866     6    601    0    0    0
C 406.03258777 53.86715173 53.02923420     2    601   605   606   607
H 405.98610859 51.95235491 52.26300740     6    604    0    0    0
H 407.48354750 54.96684259 52.12903811     6    604    0    0    0
C 406.61936297 53.88801294 55.93721982     2    604   608   609   610
H 406.83904845 55.82363251 56.55910599     6    607    0    0    0
H 405.14656937 52.99125968 56.90853786     6    607    0    0    0
C 409.16626546 52.85503099 56.69511546     2    607   611   612   613
H 409.20830113 50.72337026 56.14826726     6    610    0    0    0
H 410.62324042 53.94721724 55.74499793     6    610    0    0    0
C 409.53740640 53.11941470 59.60407197     2    610   614   615   616
H 407.86317739 52.39500339 60.61325923     6    613    0    0    0
H 411.14433409 52.02701480 60.34107379     6    613    0    0    0
C 409.76713711 55.98982345 60.40802044     1    613   617   618   619
H 410.82118430 56.01984280 62.18518309     6    616    0    0    0
H 408.05634144 57.08081076 60.74315029     6    616    0    0    0
H 410.97587029 57.07104405 59.15523315     6    616    0    0    0
H 370.48817423 48.16743552 67.06351760     6     621    0    0    0 
C 369.41184622 48.97567395 65.46492247     1     620    622    623    624
H 369.73762430 47.85461231 63.76288285     6     621    0    0    0
H 367.49048360 48.86069591 65.94871898     6     621    0    0    0
C 370.05918343 51.70676557 64.91756922     2     621    625    626    627
H 369.19660043 52.45909129 63.02157689     6     624    0    0    0
H 369.26375580 52.91121589 66.44505963     6     624    0    0    0
C 372.93808754 52.21747152 64.78447684     2     624    628   629   630
H 373.86870774 51.99207468 66.52984511     6     627    0    0    0
H 373.44169446 50.90381689 63.32202046     6     627    0    0    0
C 373.56362483 54.81299647 63.77850955     2     627   631   632   633
H 375.48492276 54.75150048 63.17371231     6    630    0    0    0
H 372.30203833 54.98414611 62.00966723     6    630    0    0    0
C 373.40495896 57.05297861 65.58493463     2    630   634   635   636
H 371.78267798 56.70348791 66.97385890     6    633    0    0    0
H 375.18612933 56.99868300 66.47864407     6    633    0    0    0
C 373.21256350 59.67570255 64.32342930     2    633   637   638   639
H 374.90342840 60.55928685 63.61164178     6    636    0    0    0
H 371.77449183 59.32125659 62.77698037     6    636    0    0    0
C 372.05739035 61.57313414 66.19170975     2    636   640   641   642
H 370.19379576 61.02428871 66.76318431     6    639    0    0    0
H 373.26427770 61.80608033 67.86228467     6    639    0    0    0
C 371.82825391 64.14254308 64.69797245     2    639   643   644   645
H 373.84460225 64.81412957 64.41576318     6    642    0    0    0
H 371.11601990 63.81454975 62.80803417     6    642    0    0    0
C 370.00173472 65.94158435 66.06676598     2    642   646   647   648
H 368.09061646 65.12951028 66.39960577     6    645    0    0    0
H 370.87157810 66.21163634 67.89165265     6    645    0    0    0
C 370.06072794 68.50228340 64.59093234     2    645   649   650   651
H 371.99136518 69.10483466 64.18617800     6    648    0    0    0
H 368.75847769 68.28517598 63.02302524     6    648    0    0    0
C 368.81576707 70.39144144 66.35571954     2    648   652   653   654
H 367.28456981 69.48034643 67.28380027     6    651    0    0    0
H 370.09822365 70.79587071 67.91480167     6    651    0    0    0
C 368.38057373 72.97066159 65.19412023     1    651   655   656   657
H 367.47601185 72.70344640 63.38886508     6    654    0    0    0
H 370.11825087 74.03636230 64.77971997     6    654    0    0    0
H 366.97936644 74.08899030 66.25908199     6    654    0    0    0
H 390.11268448 50.75425369 43.68958094     6     659    0    0    0 
C 391.50957855 52.32158606 44.08477648     1     658    660    661    662
H 393.39500366 51.41462194 44.45217053     6     659    0    0    0
H 391.42610424 53.53016849 42.39130780     6     659    0    0    0
C 390.81793589 53.85190442 46.46718204     2     659    663    664    665
H 391.71460841 55.69501183 46.36522544     6     662    0    0    0
H 388.84498452 54.22284216 46.24703620     6     662    0    0    0
C 391.20579427 52.63281444 49.18438287     2     662    666   667   668
H 389.85799488 53.34794129 50.49186140     6     665    0    0    0
H 390.76552461 50.54634300 49.23800988     6     665    0    0    0
C 394.01827878 52.93468914 50.14186592     2     665   669   670   671
H 395.13561083 51.85664978 48.80774806     6    668    0    0    0
H 394.70505497 54.92916972 49.99011878     6    668    0    0    0
C 394.57373056 51.72107877 52.68696273     2    668   672   673   674
H 393.14409075 52.30375516 53.89933317     6    671    0    0    0
H 394.36936108 49.63633763 52.70156369     6    671    0    0    0
C 397.22673345 52.40535834 53.80388326     2    671   675   676   677
H 398.66673445 51.50827411 52.59124186     6    674    0    0    0
H 397.35806551 54.37372700 53.82774371     6    674    0    0    0
C 397.93599006 51.33960601 56.44520891     2    674   678   679   680
H 399.82196287 51.73543264 56.88245600     6    677    0    0    0
H 397.07041029 52.44740089 57.90049452     6    677    0    0    0
C 397.56586561 48.53564094 56.80245098     2    677   681   682   683
H 395.53713263 48.40466723 57.04226499     6    680    0    0    0
H 397.90642573 47.54813366 55.00855308     6    680    0    0    0
C 399.21300106 47.48676126 58.86038395     2    680   684   685   686
H 399.02376302 48.72694686 60.55577823     6    683    0    0    0
H 398.31666027 45.71598099 59.26342080     6    683    0    0    0
C 401.98996583 46.96950533 57.96663598     2    683   687   688   689
H 401.74888342 45.61540839 56.37164257     6    686    0    0    0
H 403.13488686 48.55243871 57.25589177     6    686    0    0    0
C 403.35721928 45.57852626 60.15736955     2    686   690   691   692
H 403.77871286 46.96386524 61.53935825     6    689    0    0    0
H 402.13034731 44.04889821 60.80166630     6    689    0    0    0
C 405.71486045 44.27559113 59.33174911     1    689   693   694   695
H 406.96486674 45.53012588 58.37026580     6    692    0    0    0
H 405.56022773 42.57090874 58.02186901     6    692    0    0    0
H 406.83360123 43.69511049 61.06054864     6    692    0    0    0
H 382.89022923 34.72117583 86.71193415     6     697    0    0    0 
C 383.20799977 36.75006690 86.35589165     1     696    698    699    700
H 381.35079136 37.57317592 86.69366239     6     697    0    0    0
H 384.39158028 37.46990168 87.74089458     6     697    0    0    0
C 384.38960369 37.40686367 83.78058391     2     697    701    702    703
H 384.10986939 39.32221942 83.10863738     6     700    0    0    0
H 386.42077261 36.95411103 83.48378211     6     700    0    0    0
C 382.75263000 36.16096691 81.67198484     2     700    704   705   706
H 380.85167137 36.72352368 81.17177517     6     703    0    0    0
H 383.60884621 36.64942234 79.88530594     6     703    0    0    0
C 382.62543605 33.28993737 81.97906044     2     703   707   708   709
H 384.35363864 32.72719013 82.81310447     6    706    0    0    0
H 381.10314792 32.77274461 83.35186622     6    706    0    0    0
C 382.55306383 31.81647315 79.39872340     2    706   710   711   712
H 380.66196251 31.85140603 78.58102140     6    709    0    0    0
H 383.76737465 32.80179332 77.95331438     6    709    0    0    0
C 382.83466940 29.05468943 79.63531129     2    709   713   714   715
H 384.57215874 28.59181074 80.64078013     6    712    0    0    0
H 381.25411278 28.55497655 80.76875762     6    712    0    0    0
C 382.57740981 27.73802020 76.95817110     2    712   716   717   718
H 380.75132812 28.28099040 76.32406920     6    715    0    0    0
H 384.04671340 28.53887080 75.67387429     6    715    0    0    0
C 382.34112072 24.86179711 77.19893142     2    715   719   720   721
H 384.23757442 24.24654821 77.71556626     6    718    0    0    0
H 380.95946622 24.41548305 78.56100901     6    718    0    0    0
C 381.96339252 23.29440530 74.64551591     2    718   722   723   724
H 380.05338757 23.37382559 74.08974301     6    721    0    0    0
H 382.98489884 24.16594625 73.11495822     6    721    0    0    0
C 382.83137044 20.58316559 75.10214512     2    721   725   726   727
H 384.84312260 20.57981668 75.53004080     6    724    0    0    0
H 381.81543376 19.91745007 76.76197208     6    724    0    0    0
C 382.71926985 18.66469661 72.79638082     2    724   728   729   730
H 383.71670814 19.67976283 71.30628941     6    727    0    0    0
H 383.87025112 17.10288981 73.17164873     6    727    0    0    0
C 379.93017095 17.99993929 72.17846007     1    727   731   732   733
H 379.47387572 16.55437120 70.73592288     6    730    0    0    0
H 378.63030615 19.69741248 72.08944320     6    730    0    0    0
H 379.12438483 16.75832584 73.71486851     6    730    0    0    0
H 407.59887528 33.98907075 40.27463289     6     735    0    0    0 
C 406.82762704 32.36892369 39.25073968     1     734    736    737    738
H 407.90519605 32.36271020 37.43764451     6     735    0    0    0
H 407.12989332 30.46582126 40.09138363     6     735    0    0    0
C 403.86214005 32.53432944 38.78920785     2     735    739    740    741
H 403.31287666 34.57303648 38.98779339     6     738    0    0    0
H 403.53095946 31.78123892 36.91012069     6     738    0    0    0
C 402.16984536 31.13384513 40.63320779     2     738    742   743   744
H 402.37894988 29.09650659 40.20076593     6     741    0    0    0
H 402.69660156 31.43318532 42.67301734     6     741    0    0    0
C 399.46344361 31.69150035 40.26423758     2     741   745   746   747
H 399.12214810 33.77611879 40.35365101     6    744    0    0    0
H 398.88894565 31.08329015 38.26363903     6    744    0    0    0
C 397.72453272 30.75375757 42.33327040     2    744   748   749   750
H 398.91759866 30.70066638 44.10372858     6    747    0    0    0
H 396.27716545 32.08066097 42.81068363     6    747    0    0    0
C 396.57564977 28.08333112 41.75129492     2    747   751   752   753
H 398.10060453 26.83674409 41.05763880     6    750    0    0    0
H 396.00954202 27.25341465 43.50418190     6    750    0    0    0
C 394.61216110 28.03796990 39.69559105     2    750   754   755   756
H 392.81923595 28.73924625 40.46052433     6    753    0    0    0
H 395.22993285 29.54159856 38.30677155     6    753    0    0    0
C 394.37727628 25.58419845 38.42460984     2    753   757   758   759
H 396.14139706 25.25848193 37.34328374     6    756    0    0    0
H 394.01535532 24.17715047 39.90670358     6    756    0    0    0
C 392.07941620 25.39393507 36.65464731     2    756   760   761   762
H 390.47249599 26.05131094 37.72281392     6    759    0    0    0
H 392.24067604 26.45958789 34.86790409     6    759    0    0    0
C 391.41477236 22.58623776 36.02916349     2    759   763   764   765
H 393.04901366 21.44022642 35.34356263     6    762    0    0    0
H 390.99239769 21.64101137 37.81355285     6    762    0    0    0
C 388.72498531 22.42617311 34.68525338     2    762   766   767   768
H 387.39310872 23.71543058 35.41796148     6    765    0    0    0
H 388.90329444 22.96259707 32.67420949     6    765    0    0    0
C 387.75018797 19.80162380 35.04076338     1    765   769   770   771
H 388.96541503 18.45776027 34.20756362     6    768    0    0    0
H 385.79301912 19.79315760 34.09356783     6    768    0    0    0
H 387.68873585 19.35736626 37.04902117     6    768    0    0    0
H 365.41912955 56.90170060 64.32064522     6     773    0    0    0 
C 363.56998373 57.76358160 64.27129270     1     772    774    775    776
H 363.14225095 58.09705820 66.30044122     6     773    0    0    0
H 363.34099339 59.63187842 63.42385032     6     773    0    0    0
C 361.79045617 55.85843554 63.17332173     2     773    777    778    779
H 359.76084669 56.31407644 63.42572557     6     776    0    0    0
H 361.85250316 55.80395010 61.03385374     6     776    0    0    0
C 362.26558756 53.13718989 64.07937234     2     776    780   781   782
H 364.22901837 52.72598454 63.76435587     6     779    0    0    0
H 362.26879916 53.34883335 66.09704336     6     779    0    0    0
C 360.37077939 51.26633603 63.19052507     2     779   783   784   785
H 358.47569194 51.90203061 63.54950401     6    782    0    0    0
H 360.60473238 51.12339755 61.18274332     6    782    0    0    0
C 360.90578408 48.63593347 64.28706207     2    782   786   787   788
H 362.90054092 48.09452138 64.10573867     6    785    0    0    0
H 360.43700532 48.70345496 66.34542706     6    785    0    0    0
C 359.37671323 46.62173269 62.84594107     2    785   789   790   791
H 357.35094958 46.98832012 63.10839473     6    788    0    0    0
H 359.72858901 46.75636590 60.84453612     6    788    0    0    0
C 359.95352904 43.98085566 63.87686288     2    788   792   793   794
H 362.05539103 43.76603214 63.84422844     6    791    0    0    0
H 359.45053964 43.75375299 65.79940206     6    791    0    0    0
C 358.56914294 41.96684902 62.37553329     2    791   795   796   797
H 356.46295747 42.01147865 62.74281790     6    794    0    0    0
H 358.78687720 42.19184683 60.39281223     6    794    0    0    0
C 359.40879287 39.22833666 63.19119591     2    794   798   799   800
H 361.17194314 38.95658510 62.38700690     6    797    0    0    0
H 359.66316206 39.30660316 65.14687680     6    797    0    0    0
C 357.51867056 37.22826160 62.26720832     2    797   801   802   803
H 355.65935087 37.58738330 62.98124048     6    800    0    0    0
H 357.44953384 37.66491410 60.16266432     6    800    0    0    0
C 358.36471758 34.42050255 62.70984692     2    800   804   805   806
H 360.31469795 34.22569060 61.84516122     6    803    0    0    0
H 358.77433162 34.07289083 64.82179359     6    803    0    0    0
C 356.67462058 32.50520541 61.42642496     1    803   807   808   809
H 356.68010195 30.96887761 62.70661732     6    806    0    0    0
H 357.55874232 31.98595644 59.62060893     6    806    0    0    0
H 354.89922261 33.17312392 61.00139990     6    806    0    0    0
H 378.69204604 45.67248007 39.42090693     6     811    0    0    0 
C 378.03383047 45.06422591 41.21091837     1     810    812    813    814
H 379.07208545 43.41431874 41.76829908     6     811    0    0    0
H 378.31217493 46.57707693 42.62771827     6     811    0    0    0
C 375.28474158 44.47471092 41.12153239     2     811    815    816    817
H 374.85265498 42.79713581 39.90501993     6     814    0    0    0
H 374.56851146 43.81169635 43.01588678     6     814    0    0    0
C 373.60251161 46.63137037 40.02672784     2     814    818   819   820
H 373.87804205 48.34349704 41.09177759     6     817    0    0    0
H 374.28751915 46.93345454 38.08387207     6     817    0    0    0
C 370.78254522 45.94434815 40.15763705     2     817   821   822   823
H 370.46638575 44.22440818 39.06269315     6    820    0    0    0
H 370.30517113 45.20711009 42.00938730     6    820    0    0    0
C 368.82984597 47.95842779 39.39749021     2    820   824   825   826
H 367.04317922 47.22776524 40.27123546     6    823    0    0    0
H 369.01043623 49.78340104 40.29982293     6    823    0    0    0
C 368.58678720 48.10285918 36.39548810     2    823   827   828   829
H 370.39458198 48.81006365 35.87501994     6    826    0    0    0
H 368.59586180 46.30447178 35.58380212     6    826    0    0    0
C 366.67026828 49.91231408 34.99459952     2    826   830   831   832
H 364.74693425 49.28219843 35.35191004     6    829    0    0    0
H 366.87701269 51.62520734 35.89769530     6    829    0    0    0
C 367.30359060 50.03749598 32.14881945     2    829   833   834   835
H 369.44605223 50.33977776 31.93018542     6    832    0    0    0
H 366.98706817 48.18568746 31.52700943     6    832    0    0    0
C 365.52602379 51.70881013 30.62804346     2    832   836   837   838
H 364.09743356 50.67666862 29.62399309     6    835    0    0    0
H 364.53430448 53.16125801 31.70387122     6    835    0    0    0
C 366.98081878 53.33268316 28.62533329     2    835   839   840   841
H 367.96158114 54.76377968 29.68820919     6    838    0    0    0
H 368.13124581 52.08439156 27.54810829     6    838    0    0    0
C 365.30483551 54.80001921 26.80933984     2    838   842   843   844
H 363.87530114 53.67149760 25.84057320     6    841    0    0    0
H 364.19193962 56.35644299 27.65596182     6    841    0    0    0
C 367.14330074 55.89387928 24.87976843     1    841   845   846   847
H 368.73409393 56.95888062 25.80296594     6    844    0    0    0
H 366.12387363 57.15936066 23.66443275     6    844    0    0    0
H 368.09717956 54.26290190 23.85345915     6    844    0    0    0
H 404.24067815 49.26031081 69.66889540     6     849    0    0    0 
C 403.52454338 48.40820883 68.11793462     1     848    850    851    852
H 405.13016454 47.63573528 67.22407027     6     849    0    0    0
H 402.21025674 46.84635421 68.73712856     6     849    0    0    0
C 401.87334704 50.01336911 66.28457021     2     849    853    854    855
H 400.87002891 48.70313082 65.06795863     6     852    0    0    0
H 400.50786718 51.14866365 67.30233435     6     852    0    0    0
C 403.29163587 52.00860207 64.59897272     2     852    856   857   858
H 404.47909174 53.28466771 65.57006011     6     855    0    0    0
H 404.63363105 50.75118515 63.51681330     6     855    0    0    0
C 401.72635318 53.46899503 62.65318374     2     855   859   860   861
H 401.71772546 52.46746797 60.81034669     6    858    0    0    0
H 399.75811196 53.33579688 63.14561481     6    858    0    0    0
C 402.46733787 56.31988510 62.33754983     2    858   862   863   864
H 401.62992150 57.34213337 64.00630074     6    861    0    0    0
H 404.40690905 56.71247207 62.30515073     6    861    0    0    0
C 401.65924258 57.31461448 59.64056983     2    861   865   866   867
H 402.72606083 56.33393664 58.12904187     6    864    0    0    0
H 399.57286631 56.94047425 59.23604396     6    864    0    0    0
C 402.04719134 60.12495394 59.27106497     2    864   868   869   870
H 400.54944369 61.07597459 60.39572516     6    867    0    0    0
H 403.78683014 60.74496102 60.23861048     6    867    0    0    0
C 401.98969840 61.04226983 56.54397719     2    867   871   872   873
H 403.86934163 60.89312415 55.65236099     6    870    0    0    0
H 400.70440490 59.49858705 55.64081020     6    870    0    0    0
C 400.64384609 63.58474745 56.21167538     2    870   874   875   876
H 399.73002806 63.54551449 54.33539649     6    873    0    0    0
H 398.94850485 63.56900508 57.37031810     6    873    0    0    0
C 402.26107053 66.03359912 56.50723372     2    873   877   878   879
H 403.20100671 65.82240977 58.36100732     6    876    0    0    0
H 403.68480933 66.24810143 55.09456694     6    876    0    0    0
C 400.45454991 68.35999265 56.72418211     2    876   880   881   882
H 399.28071772 68.40033564 55.08111916     6    879    0    0    0
H 399.02210511 67.98674311 58.11794763     6    879    0    0    0
C 401.70956041 71.02915432 57.14551199     1    879   883   884   885
H 403.39145266 71.01890137 56.02497648     6    882    0    0    0
H 402.33355412 70.99942938 59.18195582     6    882    0    0    0
H 400.53439177 72.76366594 56.75287812     6    882    0    0    0
H 375.43568033 45.22178217 47.09145343     6     887    0    0    0 
C 376.10135029 44.63276182 48.97703277     1     886    888    889    890
H 374.96394563 45.74735595 50.23998166     6     887    0    0    0
H 375.62903365 42.68640639 49.26361485     6     887    0    0    0
C 378.87268470 44.95015982 49.39770404     2     887    891    892    893
H 379.18241729 47.00431400 49.35230840     6     890    0    0    0
H 379.47121434 44.48497951 51.30968556     6     890    0    0    0
C 380.58321189 43.41992626 47.57177635     2     890    894   895   896
H 380.10161732 41.42489034 47.73944856     6     893    0    0    0
H 380.11598752 43.96693936 45.71451606     6     893    0    0    0
C 383.42901259 43.33161265 48.09710745     2     893   897   898   899
H 383.82813397 45.26358917 48.39818086     6    896    0    0    0
H 383.84808485 42.28104141 49.88662089     6    896    0    0    0
C 385.25853306 42.38478378 45.93557169     2    896   900   901   902
H 384.44504379 40.65553512 45.20262150     6    899    0    0    0
H 385.19297250 43.81035654 44.35352592     6    899    0    0    0
C 387.91352357 41.80903056 46.80949803     2    899   903   904   905
H 387.86333108 40.45732162 48.30171383     6    902    0    0    0
H 388.96257327 40.76788069 45.33482872     6    902    0    0    0
C 389.48878103 44.22679538 47.18191613     2    902   906   907   908
H 389.31802167 45.19212779 45.40222022     6    905    0    0    0
H 388.70961490 45.65594964 48.61006584     6    905    0    0    0
C 392.20944373 43.52980213 47.97989103     2    905   909   910   911
H 392.07908548 42.87411105 49.82462949     6    908    0    0    0
H 392.82665569 42.09524711 46.74104553     6    908    0    0    0
C 394.12242219 45.78935478 47.60106274     2    908   912   913   914
H 394.47234401 46.14295860 45.55010539     6    911    0    0    0
H 393.30683817 47.48636813 48.49577459     6    911    0    0    0
C 396.77208526 45.30398230 48.78176852     2    911   915   916   917
H 396.79221774 45.73609188 50.78548667     6    914    0    0    0
H 397.43981047 43.28538054 48.75784264     6    914    0    0    0
C 398.86451715 46.96793238 47.62926084     2    914   918   919   920
H 399.26020494 46.43014725 45.71617244     6    917    0    0    0
H 398.29838974 48.90690388 47.61320206     6    917    0    0    0
C 401.42688555 46.64592803 48.89928512     1    917   921   922   923
H 402.32661827 44.76628758 48.55486176     6    920    0    0    0
H 401.26366933 46.71324500 51.00256347     6    920    0    0    0
H 402.69663251 48.29241391 48.55178749     6    920    0    0    0
H 389.55070452 58.50409333 52.86716589     6     925    0    0    0 
C 390.98007261 58.30673544 54.26536557     1     924    926    927    928
H 389.95714242 57.91726000 56.08500810     6     925    0    0    0
H 392.20442031 56.58589432 54.01111535     6     925    0    0    0
C 392.56729458 60.68362083 54.42515984     2     925    929    930    931
H 391.14181540 62.19290456 54.70717180     6     928    0    0    0
H 393.88121103 60.86653715 55.83259701     6     928    0    0    0
C 393.99977122 61.40629079 51.91129335     2     928    932   933   934
H 395.73001246 60.36169217 51.68060020     6     931    0    0    0
H 392.73476046 60.80129085 50.39771684     6     931    0    0    0
C 394.28091201 64.32547827 51.54974939     2     931   935   936   937
H 392.45341723 65.31563478 51.00199885     6    934    0    0    0
H 394.77757480 65.13542945 53.45012484     6    934    0    0    0
C 396.38580476 65.15039256 49.71707103     2    934   938   939   940
H 398.20466876 64.56229793 50.35060158     6    937    0    0    0
H 396.03237509 64.16691851 47.91295075     6    937    0    0    0
C 396.42292665 68.06911201 49.44995533     2    937   941   942   943
H 394.73512265 68.45032531 48.27090250     6    940    0    0    0
H 396.04973439 69.24229207 51.10964686     6    940    0    0    0
C 398.87385802 68.99058682 48.20485282     2    940   944   945   946
H 399.38520139 67.61228127 46.83458476     6    943    0    0    0
H 398.51666241 70.85886229 47.26800427     6    943    0    0    0
C 401.21912837 69.16736429 49.98403642     2    943   947   948   949
H 400.92898757 70.45559737 51.62225878     6    946    0    0    0
H 401.57847342 67.34034322 50.97014877     6    946    0    0    0
C 403.64631302 69.88821468 48.62095769     2    946   950   951   952
H 404.00655331 68.49886215 47.22532271     6    949    0    0    0
H 403.51900991 71.56774719 47.60286821     6    949    0    0    0
C 406.11495131 70.19595224 50.38501502     2    949   953   954   955
H 406.23583947 72.06659060 51.07492061     6    952    0    0    0
H 405.69480651 69.18532634 52.01909200     6    952    0    0    0
C 408.65278597 69.60873310 49.08667398     2    952   956   957   958
H 408.55636590 67.85956798 48.07255610     6    955    0    0    0
H 409.01202924 70.99407756 47.58996377     6    955    0    0    0
C 410.96530100 69.63643950 50.87169071     1    955   959   960   961
H 412.91371055 69.31907670 49.95830574     6    958    0    0    0
H 410.52393382 68.13332676 52.31534040     6    958    0    0    0
H 411.06813288 71.40896843 52.00680303     6    958    0    0    0
H 375.05099207 30.55552581 45.77599185     6     963    0    0    0 
C 374.56956355 28.65492584 45.29048111     1     962    964    965    966
H 373.58660998 28.66557762 43.48972276     6     963    0    0    0
H 376.33733826 27.62444876 44.81392036     6     963    0    0    0
C 372.98978091 27.68357081 47.49687170     2     963    967    968    969
H 371.77988751 29.22103611 48.17563983     6     966    0    0    0
H 371.61059272 26.23920083 46.75219288     6     966    0    0    0
C 374.45233829 26.40162371 49.60187738     2     966    970   971   972
H 374.80958748 24.62070235 48.80802527     6     969    0    0    0
H 376.35197212 27.22954776 49.64677211     6     969    0    0    0
C 372.97407580 25.78263981 52.05119357     2     969   973   974   975
H 372.73806429 27.52927824 52.95804153     6    972    0    0    0
H 371.09245131 25.03881162 51.73181529     6    972    0    0    0
C 374.57249658 24.16169675 54.01371893     2    972   976   977   978
H 374.78924228 22.26277695 53.27455867     6    975    0    0    0
H 376.57054441 24.71473453 54.20013519     6    975    0    0    0
C 373.18545699 23.99714149 56.53757241     2    975   979   980   981
H 372.82183246 26.04096427 56.97129500     6    978    0    0    0
H 371.53366411 22.84576488 56.20179635     6    978    0    0    0
C 374.59463784 22.84327504 58.87341162     2    978   982   983   984
H 374.86479753 20.87466913 58.32310798     6    981    0    0    0
H 376.37150833 23.64150985 58.94209046     6    981    0    0    0
C 372.98468042 23.01573906 61.35221999     2    981   985   986   987
H 372.19397627 24.84574614 61.52274070     6    984    0    0    0
H 371.35187772 21.73166418 61.28230617     6    984    0    0    0
C 374.20606272 22.29045573 63.89635016     2    984   988   989   990
H 372.65798538 22.00521303 65.12784581     6    987    0    0    0
H 375.40183376 20.62494777 63.56111183     6    987    0    0    0
C 375.73169718 24.53297010 64.88719230     2    987   991   992   993
H 377.24470708 25.12088902 63.70182353     6    990    0    0    0
H 374.38754561 26.18073952 64.92657718     6    990    0    0    0
C 376.79319205 23.87894961 67.49093901     2    990   994   995   996
H 375.50652300 23.23765827 68.85561215     6    993    0    0    0
H 378.14647392 22.24849091 67.36733915     6    993    0    0    0
C 378.28008806 26.12754102 68.71198423     1    993   997   998   999
H 379.74595752 26.75178011 67.33837426     6    996    0    0    0
H 379.38099633 25.53166926 70.27869246     6    996    0    0    0
H 376.97966657 27.58714231 69.14655476     6    996    0    0    0
H 372.92253143 26.82566711 31.27739926     6     1001    0    0    0 
C 374.60683122 25.57106949 31.65273004     1     1000    1002    1003    1004
H 374.87919347 24.37955276 30.03248972     6     1001    0    0    0
H 376.30958294 26.72843987 31.91891421     6     1001    0    0    0
C 374.51859951 23.64241054 33.75668067     2     1001    1005    1006    1007
H 373.93494762 24.45966515 35.52955000     6     1004    0    0    0
H 373.09926519 22.07556290 33.41879096     6     1004    0    0    0
C 377.23269590 22.64501218 34.37248276     2     1004    1008   1009   1010
H 378.35234728 22.23041527 32.75638315     6     1007    0    0    0
H 378.00676675 24.52263513 34.99089649     6     1007    0    0    0
C 377.42200710 20.51729897 36.28079277     2     1007   1011   1012   1013
H 376.29647187 20.91426188 37.95708591     6    1010    0    0    0
H 376.39567088 18.98871985 35.39524284     6    1010    0    0    0
C 380.22366478 19.73481949 36.76637360     2    1010   1014   1015   1016
H 380.88130312 18.87438963 34.91609849     6    1013    0    0    0
H 381.44044127 21.42779389 37.13773552     6    1013    0    0    0
C 380.33716415 17.86816073 38.84796185     2    1013   1017   1018   1019
H 379.23718092 18.43470260 40.50955212     6    1016    0    0    0
H 379.17159806 16.26682476 38.20690745     6    1016    0    0    0
C 382.99473174 17.17609466 39.65467529     2    1016   1020   1021   1022
H 384.11843672 16.71410850 37.88892853     6    1019    0    0    0
H 383.95915428 18.77086096 40.30455149     6    1019    0    0    0
C 383.46157308 15.20325009 41.73917749     2    1019   1023   1024   1025
H 382.86332900 13.46343687 40.93900712     6    1022    0    0    0
H 385.45873731 14.96178342 42.31998359     6    1022    0    0    0
C 382.01651918 15.19640781 44.33428755     2    1022   1026   1027   1028
H 382.46108207 16.87315710 45.50063635     6    1025    0    0    0
H 380.12052196 15.24747169 43.50771797     6    1025    0    0    0
C 382.83433343 12.85862320 46.00201421     2    1025   1029   1030   1031
H 382.29135386 11.08970573 45.03200513     6    1028    0    0    0
H 384.82965284 12.84397752 46.34485242     6    1028    0    0    0
C 381.53033925 12.88254313 48.54740862     2    1028   1032   1033   1034
H 381.98584563 14.51510152 49.78249051     6    1031    0    0    0
H 379.43773401 13.06528336 48.20371419     6    1031    0    0    0
C 381.40010992 10.39442942 49.99360951     1    1031   1035   1036   1037
H 382.12768245 10.59151257 51.86348080     6    1034    0    0    0
H 382.45493485 8.80052271 49.16325356     6    1034    0    0    0
H 379.42504394 9.60613763 50.16200819     6    1034    0    0    0
H 367.55212784 44.21783425 59.08731349     6     1039    0    0    0 
C 366.58566132 46.08194787 59.07608818     1     1038    1040    1041    1042
H 364.75907114 46.17883965 58.13055828     6     1039    0    0    0
H 366.21364354 46.45409803 61.10188936     6     1039    0    0    0
C 368.20186852 48.31548512 58.03458217     2     1039    1043    1044    1045
H 369.92616557 48.42154354 59.14453380     6     1042    0    0    0
H 369.00851048 48.05597537 56.11693755     6     1042    0    0    0
C 366.57945977 50.78678349 58.42333770     2     1042    1046   1047   1048
H 364.64676467 50.41466261 57.69978570     6     1045    0    0    0
H 366.16836692 51.14059582 60.39408638     6     1045    0    0    0
C 368.10628984 53.01189646 57.40551928     2     1045   1049   1050   1051
H 369.58076694 53.47559627 58.71565416     6    1048    0    0    0
H 368.67459909 52.31251888 55.56453719     6    1048    0    0    0
C 366.61707061 55.37229025 57.28211352     2    1048   1052   1053   1054
H 365.02199598 55.31648146 55.89472117     6    1051    0    0    0
H 365.93405025 55.86452367 59.13837924     6    1051    0    0    0
C 368.13427596 57.69837536 56.52196894     2    1051   1055   1056   1057
H 370.05801815 57.66855937 57.58322007     6    1054    0    0    0
H 368.51573984 57.69194856 54.47845025     6    1054    0    0    0
C 366.98245507 60.30383148 57.04754899     2    1054   1058   1059   1060
H 365.38915262 60.48179062 55.81495820     6    1057    0    0    0
H 366.28774873 60.50345268 58.94725763     6    1057    0    0    0
C 368.88290728 62.48226182 56.65190956     2    1057   1061   1062   1063
H 370.53311768 62.22804017 57.70399676     6    1060    0    0    0
H 369.50413719 62.73392814 54.72433094     6    1060    0    0    0
C 367.79119695 65.00269822 57.43025934     2    1060   1064   1065   1066
H 365.99175987 65.23338773 56.47074497     6    1063    0    0    0
H 367.23890617 64.94189679 59.44889419     6    1063    0    0    0
C 369.49928997 67.15404759 56.96398045     2    1063   1067   1068   1069
H 371.42804653 66.75635281 57.48313664     6    1066    0    0    0
H 369.54727531 67.42075873 54.96435663     6    1066    0    0    0
C 368.45679736 69.78514613 57.85994298     2    1066   1070   1071   1072
H 366.44096564 70.11326499 57.96496909     6    1069    0    0    0
H 369.23465854 70.01477373 59.70467547     6    1069    0    0    0
C 369.62714113 71.81771227 56.13831393     1    1069   1073   1074   1075
H 369.20291442 73.60134352 57.04682059     6    1072    0    0    0
H 368.74512168 72.00936664 54.26798307     6    1072    0    0    0
H 371.53296792 71.74411088 55.67640546     6    1072    0    0    0
H 376.17299106 76.75823863 63.53878889     6     1077    0    0    0 
C 375.84534876 75.67563879 61.84868755     1     1076    1078    1079    1080
H 374.41345189 74.12715181 61.99401892     6     1077    0    0    0
H 375.40429844 76.97787758 60.26192302     6     1077    0    0    0
C 378.53103076 74.58890274 61.22801404     2     1077    1081    1082    1083
H 380.05801903 76.06057182 61.19949913     6     1080    0    0    0
H 379.19426225 73.32256983 62.72063401     6     1080    0    0    0
C 378.60641866 73.24640142 58.60877366     2     1080    1084   1085   1086
H 377.47191597 71.60399536 58.98283219     6     1083    0    0    0
H 377.66674201 74.24994963 57.17233193     6     1083    0    0    0
C 381.36881707 72.64262848 57.72155360     2     1083   1087   1088   1089
[...]
 1619      H     355.8554820300    43.4774804400    68.1121013300
 1620      H     355.3474194300    41.9986682200    71.0008740000
 1621      C     352.1904678500    42.2919919800    68.2810901700
 1622      H     350.4959889800    42.3779112100    69.3262026300
 1623      H     351.7743332600    43.4409505300    66.6698176700
 1624      C     352.5661116100    39.7543266900    67.3402797000
 1625      H     354.1391948600    40.1705096300    65.9864006800
 1626      H     353.2779012000    38.3517086000    68.7879653300
 1627      C     350.1271822000    38.4178546900    66.2600386200
 1628      H     348.9368452500    37.7751634600    67.8199492900
 1629      H     349.3351117500    39.9486537900    64.9621515300
 1630      C     350.7196398000    36.0385119600    64.6576255200
 1631      H     351.3319061500    36.7929814100    62.8488000500
 1632      H     352.3938765100    35.0314882700    65.2549556300
 1633      C     348.5580046100    33.9976746000    64.5488883100
 1634      H     348.1037900700    33.3423327700    66.5068300100
 1635      H     346.7927370200    34.6276230100    63.7049882000
 1636      C     349.5382096500    31.5520614900    63.2775516500
 1637      H     349.7724989000    31.8759652800    61.2502846600
 1638      H     351.4342146000    30.9316538900    64.0342231500
 1639      C     347.5886881600    29.4543689900    63.7235705500
 1640      H     347.1694572000    29.3907895100    65.7867745000
 1641      H     345.7906997800    29.8335699900    62.8206746700
 1642      C     348.5684537300    26.7770829400    62.7823178700
 1643      H     348.9482353100    26.5675584200    60.8701484400
 1644      H     347.3797417400    25.1612549700    63.4766460900
 1645      H     350.2459319800    26.5848586000    63.8638380400
 1646      H     347.0638459600    37.6045531400    38.2519305200
 1647      C     348.7215518200    38.1817739700    39.2490640200
 1648      H     350.0564236100    37.0761099100    37.9647462200
 1649      H     349.3028003500    40.2101035000    38.9958999000
 1650      C     348.8660999200    37.2266639100    42.0046676200
 1651      H     350.6386879600    37.7128803200    42.9297094100
 1652      H     347.5173850100    38.3458902300    43.1823854100
 1653      C     348.1853045400    34.5678512900    42.3134807400
 1654      H     346.1548539800    34.2455928500    42.1407436200
 1655      H     348.7899993300    33.4211080000    40.7420614300
 1656      C     349.0328671100    33.5929473100    44.9351389800
 1657      H     350.9867160800    34.3878070500    44.7653322100
 1658      H     348.3132680000    34.3767180300    46.7267474000
 1659      C     349.0590337000    30.6567676000    45.1107557900
 1660      H     347.5359338000    29.7388965300    44.0968559800
 1661      H     350.7338106400    30.1062237000    44.1152319000
 1662      C     349.1532595400    29.5723531800    47.8110445500
 1663      H     350.5039554800    30.7768628700    48.9168101400
 1664      H     347.3349548600    29.9937988900    48.5732719600
 1665      C     349.6350224200    26.6768052900    47.8679658900
 1666      H     347.9364430900    26.0622738900    46.9828669200
 1667      H     351.3635470400    26.1456685600    46.7560702000
 1668      C     349.7961099700    25.8372859100    50.7407213800
 1669      H     348.1074018100    26.4045579500    51.8941018800
 1670      H     349.3375919900    23.8396119500    50.8331386500
 1671      C     352.3352703000    26.3667080700    52.0871123500
 1672      H     354.0010533000    26.3860054400    50.8098323600
 1673      H     352.3876610600    28.2927854600    52.7723515600
 1674      C     352.7413958400    24.6464850200    54.4720123600
 1675      H     351.0632101800    24.3812694500    55.6607148400
 1676      H     353.2693065400    22.8324139600    53.5601795800
 1677      C     354.8968526700    25.5072054700    56.2030197200
 1678      H     356.5133357900    25.5336210700    54.9201371500
 1679      H     354.4024010800    27.4179065200    56.9509848000
 1680      C     355.9675428000    23.6384390000    58.2464195900
 1681      H     357.6578821300    24.6140449000    59.0443784800
 1682      H     356.3714145400    21.7030641900    57.5599771500
 1683      H     354.5385511800    23.8921614100    59.8243879600
 1684      H     364.5384663200    26.6640959900    36.0193524200
 1685      C     366.0000269000    27.2248786300    37.2168709300
 1686      H     366.9550548000    25.6187570400    38.0759135500
 1687      H     367.1303334700    28.4485775500    36.0652357200
 1688      C     364.6297152500    28.6069930300    39.4874200400
 1689      H     363.4011172900    30.1978076800    39.0096523200
 1690      H     363.3338716600    27.4604709000    40.5166555600
 1691      C     366.7421804000    29.8678622100    41.1871296700
 1692      H     368.1370139300    28.5076033100    41.9574517400
 1693      H     367.7267575900    30.9802487800    39.8203825200
 1694      C     365.7778569100    31.3551738900    43.5053748500
 1695      H     365.2696886100    33.3298523300    43.0344879300
 1696      H     363.9396689800    30.3910507500    44.0192293400
 1697      C     367.4987621400    31.4789245300    45.8985920300
 1698      H     367.4810718000    29.6504012400    46.9021387600
 1699      H     369.3502976000    32.1138179700    45.3474000000
 1700      C     366.6783765600    33.3822344500    47.7642347700
 1701      H     366.8697206800    35.2280208100    46.9292465300
 1702      H     364.6838996100    33.3946770600    48.1703891100
 1703      C     368.0808276000    33.3114956600    50.3900294400
 1704      H     367.0005538400    32.2343098300    51.6123009700
 1705      H     370.0667379300    32.7912306000    50.4986075500
 1706      C     368.1862837100    36.0121318500    51.5524222100
 1707      H     369.7508263600    36.1480017100    53.0842686500
 1708      H     368.8984765700    37.3148014700    50.0680979700
 1709      C     365.6682851500    36.9340666000    52.4226990600
 1710      H     364.2855748800    36.9597758400    50.9290511200
 1711      H     365.1095086800    35.5206189400    53.9152307300
 1712      C     365.8820954100    39.4283540200    53.6172925000
 1713      H     367.5686749300    39.5103580700    54.8817710100
 1714      H     366.2272104600    40.8740226800    52.2058899800
 1715      C     363.5128178100    40.3680383700    55.0979733600
 1716      H     363.3861982700    42.4064379400    55.6122595600
 1717      H     361.7013400800    40.1867977000    54.0821800400
 1718      C     363.1909603700    38.9110434000    57.5080079500
 1719      H     364.9528029600    38.4272312100    58.5263633500
 1720      H     362.5821520200    36.9787639300    57.1406325500
 1721      H     361.9837381900    39.9029262400    58.8131777100
 1722      H     382.6477386200    13.5542304100    65.2655849400
 1723      C     380.9355946600    14.6464243900    65.4026119000
 1724      H     379.6669574300    14.3996956100    63.8252585200
 1725      H     379.8631641600    13.9804083300    66.9869779000
 1726      C     381.2286311900    17.4117034900    65.6942998000
 1727      H     379.4399641800    18.0348360600    66.3258351800
 1728      H     382.8166743600    17.8465554200    66.9831672300
 1729      C     381.8392147000    18.4783237600    62.9830954200
 1730      H     383.4249308200    17.5949650800    62.2235890900
 1731      H     380.2012880400    17.9228209200    61.7264658500
 1732      C     382.2599406600    21.4288019900    62.7916371100
 1733      H     380.5815809300    22.4880894100    63.3210980400
 1734      H     383.6591774800    21.8691268200    63.9852201900
 1735      C     382.6782949600    22.3391042800    60.1118272800
 1736      H     384.6267570500    22.0100397200    59.6216091900
 1737      H     381.5862446900    21.2447220500    58.7717683400
 1738      C     381.8616642600    25.1116861000    59.9178109600
 1739      H     379.8744806900    25.4987955600    60.2165883100
 1740      H     382.8803357500    26.2285380300    61.3056183100
 1741      C     382.7334171600    26.0552256200    57.3478037300
 1742      H     384.8850018100    25.6974490500    57.2811486800
 1743      H     381.7733770100    24.7564378700    56.0822040400
 1744      C     382.0862007300    28.8349896800    56.7174813200
 1745      H     379.9308517500    28.9335444700    56.7612232800
 1746      H     382.8878529900    30.0960711500    58.0979977100
 1747      C     383.0486278700    29.7109392500    54.2850039400
 1748      H     385.0578323400    29.2378198400    54.3446630800
 1749      H     381.8463973800    28.8769603600    52.7544168600
 1750      C     382.7469292100    32.5135816900    54.1681662000
 1751      H     380.7914248200    32.8916335800    53.9430591000
 1752      H     383.4384234300    33.4205456600    55.8525467600
 1753      C     384.2604790000    33.5270734500    51.9054226200
 1754      H     386.1842839500    33.1117339800    52.0917055100
 1755      H     383.8579950500    32.6166773900    50.1658588100
 1756      C     384.1909499700    36.3846826700    51.4972938100
 1757      H     384.4381371900    37.2301813900    53.3163644400
 1758      H     382.4970593500    37.1968856600    50.6239313800
 1759      H     385.7955113200    37.0214794800    50.4369225700
 1760      H     396.8726380600    26.9532058900    57.1652338500
 1761      C     398.0028519600    26.1800829300    58.7659178300
 1762      H     396.9025120000    24.5652865100    59.8098218700
 1763      H     399.6708620000    25.5462228800    57.7985711800
 1764      C     398.7050097200    28.3871878800    60.5458702300
 1765      H     399.6900922000    29.6423833300    59.3601404700
 1766      H     397.3794385100    29.8102738100    61.3745810000
 1767      C     400.3376053100    27.5295043300    62.8183490300
 1768      H     401.1099783900    25.5971519700    62.8689595300
 1769      H     401.9846327500    28.6743475500    63.1603824600
 1770      C     398.9590340100    27.8700577400    65.5380021900
 1771      H     398.9650611400    29.8024981100    65.8345115300
 1772      H     397.0385772700    27.3154226200    65.5308130200
 1773      C     400.3962820300    27.0265154100    67.8940255400
 1774      H     400.3969257800    24.9260490300    68.0592411400
 1775      H     402.2578763300    27.7544510900    67.9651315900
 1776      C     399.0869385800    28.0540658900    70.2854258300
 1777      H     398.9715197600    30.0978019100    70.3906640900
 1778      H     397.1027689300    27.4306226400    70.1836453200
 1779      C     400.2488415300    27.0963492200    72.7797823300
 1780      H     401.2302600300    25.2994261500    72.6563897000
 1781      H     401.5585703600    28.4662676400    73.4178152900
 1782      C     398.2987526000    26.9507267500    74.9046084400
 1783      H     397.0344899700    28.6537883900    74.8882390300
 1784      H     397.2863240900    25.2206474900    74.5927677100
 1785      C     399.7206396100    26.3791268900    77.3972127300
 1786      H     400.5728165400    24.5502654800    77.2805091200
 1787      H     401.4634059600    27.4745456400    77.7286494800
 1788      C     397.9710296200    26.4945112900    79.7614474000
 1789      H     397.0697230000    28.3444126400    79.6133193200
 1790      H     396.4405606400    25.1793180900    79.7433318800
 1791      C     399.4191417200    26.0241794600    82.2593344500
 1792      H     400.0711114100    24.0698028200    82.4238339500
 1793      H     401.1490911900    27.2028390100    82.2672442400
 1794      C     397.7401050000    26.9653868600    84.5186479200
 1795      H     397.1526138500    25.2058356900    85.5321300700
 1796      H     395.9574565400    27.8263466900    84.0535704300
 1797      H     398.7545088600    28.3554662500    85.6391135000
 1798      H     379.9734997700    65.1329301400    64.0946716000
 1799      C     381.3727680300    64.4418019800    65.3573281100
 1800      H     382.5663781500    65.8509697000    66.1170703700
 1801      H     380.3046120900    63.5179047700    66.7731782500
 1802      C     383.0164749300    62.4367745900    63.8020869800
 1803      H     384.2835953800    61.3140729800    65.0603662900
 1804      H     381.6693102500    61.0176085200    62.9978303900
 1805      C     384.5296560300    63.9708510600    61.6061727400
 1806      H     383.1502562000    65.2797949000    60.8113056500
 1807      H     386.0596838800    64.7425875300    62.6154373300
 1808      C     385.5277976900    62.4152910700    59.3311693100
 1809      H     386.4128455100    63.6913437800    58.0056123400
 1810      H     386.9790507800    61.2294538500    60.1257721100
 1811      C     383.4746783000    61.1293587200    57.5953834200
 1812      H     382.4974435800    59.9148888200    58.9086915800
 1813      H     382.2423157500    62.6454240900    57.0024040400
 1814      C     384.6694437400    59.7622134400    55.4426162200
 1815      H     385.6733962600    60.9286329300    54.0920637600
 1816      H     386.2529678300    58.6900047900    56.3140133900
 1817      C     382.8687986800    58.0240154200    53.9586451700
 1818      H     381.8677416900    56.9801089100    55.3045331300
 1819      H     381.3824927900    58.9261693300    52.8061964100
 1820      C     384.1516001200    56.3876112600    52.0244077000
 1821      H     384.8565365900    57.6234466700    50.5073777000
 1822      H     385.8691287000    55.4967290000    52.5936331000
 1823      C     382.4327460200    54.2953189900    50.9264827300
 1824      H     382.0474567800    52.9076419600    52.2856819100
 1825      H     380.5754582500    54.8559642700    50.5237340300
 1826      C     383.6854197400    53.0209094300    48.6183594600
 1827      H     383.8042864900    54.2680535000    47.0673044200
 1828      H     385.6316084600    52.4259283200    49.0375792900
 1829      C     382.2518825700    50.6221923600    47.8280169100
 1830      H     382.1871083400    49.2277497200    49.2706897900
 1831      H     380.2003431700    51.0298810800    47.3376321600
 1832      C     383.6433692500    49.6139809100    45.5200703700
 1833      H     383.5467848900    50.8879104800    43.9353985700
 1834      H     382.3617240900    48.2848615800    44.9996932600
 1835      H     385.5443029300    48.8950766900    45.9447861700
 1836      H     387.0934468200    45.6933769100    54.4540338900
 1837      C     386.1932082400    47.3941392700    53.7952853400
 1838      H     387.4565614400    48.0927542100    52.2295270300
 1839      H     384.3680749300    46.9942651500    53.1090862300
 1840      C     386.0204654000    49.0117302000    56.2359021100
 1841      H     384.8482729700    50.5621247400    55.5704276400
 1842      H     385.1251836000    48.0971636100    57.6929858100
 1843      C     388.5593131500    50.0124370400    57.1461053700
 1844      H     389.4458312400    48.5085900600    58.1895936000
 1845      H     389.6573622700    50.6196800200    55.4812228700
 1846      C     388.2045289500    52.1081322500    59.0500556200
 1847      H     386.8112434400    53.4046615600    58.3106144300
 1848      H     387.2555960100    51.4179115200    60.6899733600
 1849      C     390.7876858200    53.3757706100    59.6833728400
 1850      H     391.9857124300    51.7914406500    60.1466843200
 1851      H     391.5113585400    54.2841886100    58.0486976700
 1852      C     390.5612782400    55.1940001100    61.8116967400
 1853      H     389.4286647700    56.7320344400    61.2463585600
 1854      H     389.7811576300    54.3635529600    63.5132852400
 1855      C     393.1178946800    56.3920110700    62.6681382100
 1856      H     394.4041778200    54.9830631800    63.4197963400
 1857      H     394.2429032200    57.2381874100    61.2882758500
 1858      C     392.8591533100    58.5344119300    64.5295453300
 1859      H     391.9036732300    59.8821091700    63.3602437500
 1860      H     391.6320763000    57.8499923700    65.9733677300
 1861      C     395.2600891200    59.4931747400    65.8998359100
 1862      H     396.2873364900    57.8361805800    66.6221763500
 1863      H     396.4409278700    60.4831469800    64.6460530600
 1864      C     394.4835772300    61.2970537800    67.8961655600
 1865      H     393.2456687800    62.7126102100    67.3413732500
 1866      H     393.6154031600    59.9581242300    69.3007721000
 1867      C     396.8933378600    62.0983213800    69.4086542500
 1868      H     397.8036805300    60.3865284900    69.7482731100
 1869      H     398.1736987900    63.2533298600    68.3335899500
 1870      C     396.2313729400    63.3371770600    71.8833135300
 1871      H     395.0444762900    65.0177746500    71.5754020500
 1872      H     397.9089566300    63.7115646600    73.0359278600
 1873      H     395.1831987800    62.1743044000    73.1751306000
 1874      H     373.8666172000    42.9447693800    82.8727205100
 1875      C     373.9499579900    41.1101592600    83.7753108500
 1876      H     374.8486164900    41.2929285900    85.5626938100
 1877      H     372.0553851500    40.5921939300    84.0143733100
 1878      C     375.6280030700    39.3117582200    82.0234527500
 1879      H     377.4020878300    40.2176731800    81.6401516700
 1880      H     376.0360905800    37.5912482300    83.0900012800
 1881      C     374.3400739100    38.7008372400    79.4963570900
 1882      H     372.9329090300    37.0994368900    79.7270030500
 1883      H     373.4589263300    40.2908906400    78.5586830300
 1884      C     376.2448786700    37.6991204500    77.3783408900
 1885      H     377.7495684200    39.1688864100    77.0647372400
 1886      H     377.2358790000    36.0337955000    78.0250117800
 1887      C     374.8407069700    37.1782538700    74.8555892400
 1888      H     373.1739095100    36.1081322200    75.3646267700
 1889      H     374.2615415400    38.8798652900    73.9884899400
 1890      C     376.2464536200    36.0590231700    72.6325372900
 1891      H     377.8925103100    37.1121540200    72.5444906100
 1892      H     376.8440563400    34.1982134400    73.4559111300
 1893      C     374.4601224100    35.9869743500    70.2416379200
 1894      H     372.4737091800    35.7526751000    70.9462335500
 1895      H     374.5273273400    37.7937363300    69.2216330900
 1896      C     375.0977370900    33.8900742600    68.2331468100
 1897      H     376.9870737800    34.1134159000    67.5965719700
 1898      H     375.0846564400    32.1106472700    69.2155985500
 1899      C     373.3568108200    34.1364288500    65.8134550200
 1900      H     371.4795605000    34.7764085700    66.5144970700
 1901      H     373.8563381000    35.9468077000    64.7139597200
 1902      C     373.1256539800    31.9835666300    63.9841780900
 1903      H     374.9550464200    31.4931596700    63.1253071600
 1904      H     372.5452951200    30.3866271800    65.0387348100
 1905      C     371.1228617200    32.8646244600    61.9436777100
 1906      H     369.2129900900    33.1972387400    62.7874990100
 1907      H     371.5951740700    34.6723688800    61.0480751200
 1908      C     370.9265288500    31.1395273700    59.6841744900
 1909      H     369.5275173900    31.9538389800    58.4669286700
 1910      H     370.3603394200    29.2215857700    60.1590262800
 1911      H     372.9013810300    31.1646386700    58.9115632400
 ----------------------------------------------------------------
 Nuclear Repulsion Energy =           0.00000000 hartrees
 There are       48 alpha and       48 beta electrons
 Total job time:  123.35s(wall), 243.30s(cpu) 
 Wed Jun 22 08:07:44 2022

        *************************************************************
        *                                                           *
        *  Thank you very much for using Q-Chem.  Have a nice day.  *
        *                                                           *
        *************************************************************


