                  Welcome to Q-Chem
     A Quantum Leap Into The Future Of Chemistry


 Q-Chem 5.4 (devel), Q-Chem, Inc., Pleasanton, CA (2021)

 E. Epifanovsky,  A. T. B. Gilbert,  Xintian Feng,  Joonho Lee,  Yuezhi Mao,  
 N. Mardirossian,  P. Pokhilko,  A. White,  M. Wormit,  M. P. Coons,  
 A. L. Dempwolff,  Zhengting Gan,  D. Hait,  P. R. Horn,  L. D. Jacobson,  
 I. Kaliman,  J. Kussmann,  A. W. Lange,  Ka Un Lao,  D. S. Levine,  Jie Liu,  
 S. C. McKenzie,  A. F. Morrison,  K. Nanda,  F. Plasser,  D. R. Rehn,  
 M. L. Vidal,  Zhi-Qiang You,  Ying Zhu,  B. Alam,  B. Albrecht,  
 A. Aldossary,  E. Alguire,  J. H. Andersen,  D. Barton,  K. Begam,  A. Behn,  
 Y. A. Bernard,  E. J. Berquist,  H. Burton,  A. Carreras,  K. Carter-Fenk,  
 R. Chakraborty,  A. D. Chien,  K. D. Closser,  V. Cofer-Shabica,  
 S. Dasgupta,  Jia Deng,  M. de Wergifosse,  M. Diedenhofen,  Hainam Do,  
 S. Ehlert,  Po-Tung Fang,  S. Fatehi,  Qingguo Feng,  T. Friedhoff,  
 J. Gayvert,  Qinghui Ge,  G. Gidofalvi,  M. Goldey,  J. Gomes,  
 C. Gonzalez-Espinoza,  S. Gulania,  A. Gunina,  M. W. D. Hanson-Heine,  
 P. H. P. Harbach,  A. W. Hauser,  M. F. Herbst,  M. Hernandez Vera,  
 M. Hodecker,  Z. C. Holden,  S. Houck,  Xunkun Huang,  Kerwin Hui,  
 B. C. Huynh,  M. Ivanov,  Hyunjun Ji,  Hanjie Jiang,  B. Kaduk,  S. Kaehler,  
 K. Khistyaev,  Jaehoon Kim,  P. Klunzinger,  Z. Koczor-Benda,  
 Joong Hoon Koh,  D. Kosenkov,  L. Koulias,  T. Kowalczyk,  C. M. Krauter,  
 K. Kue,  A. Kunitsa,  T. Kus,  A. Landau,  K. V. Lawler,  D. Lefrancois,  
 S. Lehtola,  Rain Li,  Yi-Pei Li,  Jiashu Liang,  M. Liebenthal,  
 Hung-Hsuan Lin,  You-Sheng Lin,  Fenglai Liu,  Kuan-Yu Liu,  
 M. Loipersberger,  A. Luenser,  A. Manjanath,  P. Manohar,  E. Mansoor,  
 S. F. Manzer,  Shan-Ping Mao,  A. V. Marenich,  T. Markovich,  S. Mason,  
 S. A. Maurer,  P. F. McLaughlin,  M. F. S. J. Menger,  J.-M. Mewes,  
 S. A. Mewes,  P. Morgante,  J. W. Mullinax,  K. J. Oosterbaan,  G. Paran,  
 Alexander C. Paul,  Suranjan K. Paul,  F. Pavosevic,  Zheng Pei,  S. Prager,  
 E. I. Proynov,  E. Ramos,  B. Rana,  A. E. Rask,  A. Rettig,  R. M. Richard,  
 F. Rob,  E. Rossomme,  T. Scheele,  M. Scheurer,  M. Schneider,  
 N. Sergueev,  S. M. Sharada,  W. Skomorowski,  D. W. Small,  C. J. Stein,  
 Yu-Chuan Su,  E. J. Sundstrom,  Zhen Tao,  J. Thirman,  T. Tsuchimochi,  
 N. M. Tubman,  S. P. Veccham,  O. Vydrov,  J. Wenzel,  J. Witte,  A. Yamada,  
 Kun Yao,  S. Yeganeh,  S. R. Yost,  A. Zech,  Igor Ying Zhang,  Xing Zhang,  
 Yu Zhang,  D. Zuev,  A. Aspuru-Guzik,  A. T. Bell,  N. A. Besley,  
 K. B. Bravaya,  B. R. Brooks,  D. Casanova,  Jeng-Da Chai,  S. Coriani,  
 C. J. Cramer,  A. E. DePrince, III,  R. A. DiStasio Jr.,  A. Dreuw,  
 B. D. Dunietz,  T. R. Furlani,  W. A. Goddard III,  S. Grimme,  
 S. Hammes-Schiffer,  T. Head-Gordon,  W. J. Hehre,  Chao-Ping Hsu,  
 T.-C. Jagau,  Yousung Jung,  A. Klamt,  Jing Kong,  D. S. Lambrecht,  
 WanZhen Liang,  N. J. Mayhall,  C. W. McCurdy,  J. B. Neaton,  
 C. Ochsenfeld,  J. A. Parkhill,  R. Peverati,  V. A. Rassolov,  Yihan Shao,  
 L. V. Slipchenko,  T. Stauch,  R. P. Steele,  J. E. Subotnik,  
 A. J. W. Thom,  A. Tkatchenko,  D. G. Truhlar,  T. Van Voorhis,  
 T. A. Wesolowski,  K. B. Whaley,  H. L. Woodcock III,  P. M. Zimmerman,  
 S. Faraji,  P. M. W. Gill,  M. Head-Gordon,  J. M. Herbert,  A. I. Krylov

 Additional authors for Version 5.4.1: 
 S. Kotaru,  Shaozhi Li,  Xiangyuan Li,  F. Matz,  A. Molle,  Haisheng Ren,  
 Yingli Su,  Hung-Yi Tsai,  C. Utku,  Fang Wang

 Contributors to earlier versions of Q-Chem not listed above: 
 R. D. Adamson,  B. Austin,  R. Baer,  J. Baker,  G. J. O. Beran,  
 K. Brandhorst,  S. T. Brown,  E. F. C. Byrd,  A. K. Chakraborty,  
 G. K. L. Chan,  Chun-Min Chang,  Yunqing Chen,  C.-L. Cheng,  
 Siu Hung Chien,  D. M. Chipman,  D. L. Crittenden,  H. Dachsel,  
 R. J. Doerksen,  A. D. Dutoi,  R. G. Edgar,  J. Fosso-Tande,  
 L. Fusti-Molnar,  D. Ghosh,  A. Ghysels,  A. Golubeva-Zadorozhnaya,  
 J. Gonthier,  M. S. Gordon,  S. R. Gwaltney,  G. Hawkins,  J. E. Herr,  
 A. Heyden,  S. Hirata,  E. G. Hohenstein,  G. Kedziora,  F. J. Keil,  
 C. Kelley,  Jihan Kim,  R. A. King,  R. Z. Khaliullin,  P. P. Korambath,  
 W. Kurlancheek,  A. Laurent,  A. M. Lee,  M. S. Lee,  S. V. Levchenko,  
 Ching Yeh Lin,  D. Liotard,  E. Livshits,  R. C. Lochan,  I. Lotan,  
 L. A. Martinez-Martinez,  P. E. Maslen,  N. Nair,  D. P. O'Neill,  
 D. Neuhauser,  E. Neuscamman,  C. M. Oana,  R. Olivares-Amaya,  R. Olson,  
 T. M. Perrine,  B. Peters,  P. A. Pieniazek,  A. Prociuk,  Y. M. Rhee,  
 J. Ritchie,  M. A. Rohrdanz,  E. Rosta,  N. J. Russ,  H. F. Schaefer III,  
 M. W. Schmidt,  N. E. Schultz,  S. Sharma,  N. Shenvi,  C. D. Sherrill,  
 A. C. Simmonett,  A. Sodt,  T. Stein,  D. Stuck,  K. S. Thanthiriwatte,  
 V. Vanovschi,  L. Vogt,  Tao Wang,  A. Warshel,  M. A. Watson,  
 C. F. Williams,  Q. Wu,  X. Xu,  Jun Yang,  W. Zhang,  Yan Zhao

 Please cite Q-Chem as follows:
 Y. Shao et al., Mol. Phys. 113, 184-215 (2015)
 DOI: 10.1080/00268976.2014.952696

 Q-Chem 5.4.1 for Intel X86 EM64T Linux

 Parts of Q-Chem use Armadillo 9.900.5 (Nocturnal Misbehaviour).
 http://arma.sourceforge.net/

 Q-Chem begins on Wed Jun  1 23:30:23 2022  

 Host: p09r14n13.grace.hpc.yale.internal
0

     Scratch files written to /home/tl686/scratch60/qchem_dev/scratch/qchem244094//
 Processing $rem in /home/tl686/qchem_dev/qchem/config/preferences:
 Processing $rem in /home/tl686/.qchemrc:
Applying user defined connections for MM calculations

 Checking the input file for inconsistencies... 	...done.

--------------------------------------------------------------
User input:
--------------------------------------------------------------
$molecule
0   1
 Fe -632.80898013 -48.42728702 -27.94452450    -1  0   0   0   0
C -632.73242513 -51.69637640 -28.54565932    -2  0   0   0   0 
C -631.82910684 -45.28049276 -27.29086834    -2  0   0   0   0
C -631.80077348 -47.85393102 -31.06961756    -2  0   0   0   0
C -636.11266840 -48.10262004 -28.02442951    -2  0   0   0   0
C -631.14661314 -49.18643562 -24.97515683    -2  0   0   0   0
O -632.51285472 -53.88076760 -28.81142595    -3  0   0   0   0
O -631.26599355 -43.21911812 -26.66208648    -3  0   0   0   0 
O -631.18005782 -47.46268916 -33.10429419    -3  0   0   0   0
O -638.35504806 -47.70055215 -28.05561697    -3  0   0   0   0 
O -629.80366967 -49.48117285 -23.27648268    -3  0   0   0   0
H -643.96759889 -65.83416317 -48.08111499      6     13    0    0    0 
C -643.59366786 -67.53942090 -47.05691263     1     12    14    15    16
H -643.52502020 -68.93955310 -48.58438938     6     13    0    0    0
H -641.67016217 -67.46607191 -46.12791495     6     13    0    0    0
C -645.67386664 -68.23840522 -45.12014417     2     13    17    18    19
H -647.40278095 -68.53684955 -46.12803702     6     16    0    0    0
H -645.14773534 -70.13234901 -44.51157537     6     16    0    0    0
C -645.80252199 -66.31826267 -42.86428164     2     16    20   21   22
H -643.87538796 -66.19722081 -42.15061770     6     19    0    0    0
H -646.25337702 -64.43414319 -43.65462102     6     19    0    0    0
C -647.87019409 -67.34033425 -40.94419845     2     19   23   24   25
H -649.61784080 -67.16800003 -41.96975075     6    22    0    0    0
H -647.54633002 -69.21407013 -40.20202843     6    22    0    0    0
C -647.89222445 -65.51067534 -38.64524363     2    22   26   27   28
H -646.19635300 -65.73538893 -37.45882252     6    25    0    0    0
H -647.78668512 -63.63678772 -39.51476639     6    25    0    0    0
C -650.17697769 -65.63229691 -36.91293290     2    25   29   30   31
H -651.82350597 -65.28951198 -37.88618292     6    28    0    0    0
H -650.30994022 -67.50507337 -36.10509096     6    28    0    0    0
C -650.02796286 -63.64481608 -34.84585874     2    28   32   33   34
H -647.99077025 -63.74095244 -34.31732811     6    31    0    0    0
H -650.61312214 -61.73399960 -35.29936982     6    31    0    0    0
C -651.69794127 -64.38513164 -32.46194397     2    31   35   36   37
H -653.52106839 -64.80023260 -33.29216066     6    34    0    0    0
H -651.06054455 -66.16405796 -31.63702558     6    34    0    0    0
C -652.05308909 -62.46962955 -30.27575939     2    34   38   39   40
H -650.10661904 -61.65567183 -29.91690033     6    37    0    0    0
H -653.33863369 -60.89949222 -30.85186759     6    37    0    0    0
C -652.94007767 -63.88262765 -27.99072618     2    37   41   42   43
H -654.82736303 -64.82062132 -28.37732168     6    40    0    0    0
H -651.75805618 -65.32527915 -27.41205401     6    40    0    0    0
C -653.15286716 -62.10997019 -25.69625309     2    40   44   45   46
H -651.30511846 -61.52790499 -25.02738823     6    43    0    0    0
H -654.08219690 -60.26675377 -26.14067489     6    43    0    0    0
C -654.31082957 -63.46090809 -23.42060313     1    43   47   48   49
H -656.08112716 -64.42060264 -23.77485938     6    46    0    0    0
H -654.50406102 -62.10564744 -21.78521363     6    46    0    0    0
H -653.14301037 -65.05271427 -22.92733163     6    46    0    0    0
H -637.39903748 -54.80905094 -25.70842741     6     51    0    0    0 
C -639.34758479 -54.36291057 -25.42124620     1     50    52    53    54
H -639.31298662 -52.26621009 -25.02177398     6     51    0    0    0
H -640.21918780 -54.59797815 -27.17821878     6     51    0    0    0
C -640.88512382 -55.95317152 -23.49195406     2     51    55    56    57
H -641.05472812 -57.83989197 -24.33410146     6     54    0    0    0
H -639.87171482 -56.18571753 -21.73043277     6     54    0    0    0
C -643.54026949 -55.00051276 -22.80843500     2     54    58   59   60
H -643.33260986 -53.36620623 -21.54026985     6     57    0    0    0
H -644.38751743 -54.23071118 -24.51873791     6     57    0    0    0
C -645.33004254 -56.97172728 -21.58658199     2     57   61   62   63
H -645.56152217 -58.61583162 -22.83795035     6    60    0    0    0
H -644.31884017 -57.64591004 -19.92952184     6    60    0    0    0
C -647.96414894 -56.01582437 -20.58876867     2    60   64   65   66
H -647.72299519 -55.04869401 -18.80848070     6    63    0    0    0
H -648.71613356 -54.63973570 -21.90379596     6    63    0    0    0
C -649.74176612 -58.13925734 -20.15809678     2    63   67   68   69
H -651.56338507 -57.27783755 -19.90926116     6    66    0    0    0
H -649.55599371 -59.64046705 -21.57650714     6    66    0    0    0
C -649.06651677 -59.30922621 -17.63782672     2    66   70   71   72
H -647.10095151 -60.00623910 -17.45260780     6    69    0    0    0
H -649.12565327 -57.97111004 -16.07606030     6    69    0    0    0
C -650.57268798 -61.54532327 -16.68911869     2    69   73   74   75
H -652.51624072 -60.90843858 -16.71051248     6    72    0    0    0
H -650.57234267 -63.17323457 -18.00018858     6    72    0    0    0
C -649.72057208 -62.54816500 -14.13229118     2    72   76   77   78
H -647.94270924 -63.28644283 -14.31519013     6    75    0    0    0
H -649.62542672 -61.12515045 -12.72285820     6    75    0    0    0
C -651.49062725 -64.68388733 -13.37691781     2    75   79   80   81
H -653.40891562 -63.95273564 -13.50320912     6    78    0    0    0
H -651.11325025 -66.14986781 -14.78943303     6    78    0    0    0
C -651.33553152 -65.54868808 -10.48544446     2    78   82   83   84
H -649.56664663 -66.44726816 -10.14432040     6    81    0    0    0
H -651.45967206 -64.13040717 -9.08486129     6    81    0    0    0
C -653.33360514 -67.59647312 -9.96590638     1    81   85   86   87
H -653.86257033 -67.71104353 -8.02458856     6    84    0    0    0
H -652.79384766 -69.56417478 -10.52116715     6    84    0    0    0
H -655.10878271 -67.16465204 -10.88926272     6    84    0    0    0
H -662.85759364 -44.88043477 -49.00452100     6     89    0    0    0 
C -663.34469464 -46.73140411 -49.23104319     1     88    90    91    92
H -664.48514757 -47.21595124 -47.52093924     6     89    0    0    0
H -664.23061815 -46.81169377 -51.03432311     6     89    0    0    0
C -661.03749215 -48.50588477 -49.14324501     2     89    93    94    95
H -659.67523088 -48.13187832 -50.67053544     6     92    0    0    0
H -660.05699062 -47.77663840 -47.43473518     6     92    0    0    0
C -661.56365525 -51.39397078 -49.09876328     2     92    96   97   98
H -662.91881736 -51.95205315 -47.69416528     6     95    0    0    0
H -662.38713303 -51.93993280 -50.81419772     6     95    0    0    0
C -659.17054043 -52.84395831 -48.88299685     2     95   99   100   101
H -657.83668390 -52.27664196 -50.31665780     6    98    0    0    0
H -658.30077906 -52.14142686 -47.20820564     6    98    0    0    0
C -659.24023961 -55.69111714 -48.83219284     2    98   102   103   104
H -659.53686080 -56.42346574 -50.77977461     6    101    0    0    0
H -657.37447370 -56.24912468 -48.11542256     6    101    0    0    0
C -661.14607295 -56.89047442 -47.02288619     2    101   105   106   107
H -660.80127331 -55.79151035 -45.48155087     6    104    0    0    0
H -663.18652514 -56.28190264 -47.48394063     6    104    0    0    0
C -660.95945604 -59.70338188 -46.22250538     2    104   108   109   110
H -661.27241511 -60.87698104 -47.83437859     6    107    0    0    0
H -659.22067046 -60.41979010 -45.50093518     6    107    0    0    0
C -662.92909476 -60.20421163 -44.20188238     2    107   111   112   113
H -662.59368750 -58.77086974 -42.80365638     6    110    0    0    0
H -664.76520799 -59.44936340 -44.73793477     6    110    0    0    0
C -662.68562939 -62.87475626 -43.05549368     2    110   114   115   116
H -662.18853156 -64.16863920 -44.56003037     6    113    0    0    0
H -661.07465293 -62.77377172 -41.85857607     6    113    0    0    0
C -664.96321427 -63.86493452 -41.53271591     2    113   117   118   119
H -665.59619504 -62.62276138 -39.91374070     6    116    0    0    0
H -666.61455732 -64.04113937 -42.85177865     6    116    0    0    0
C -664.49631670 -66.45961886 -40.39601396     2    116   120   121   122
H -663.97400329 -67.84276940 -41.77889439     6    119    0    0    0
H -663.10343777 -66.23886604 -38.96485907     6    119    0    0    0
C -666.77525035 -67.73753657 -39.05670058     1    119   123   124   125
H -666.29978434 -69.62961051 -38.33766462     6    122    0    0    0
H -668.56935414 -67.68804494 -40.10032413     6    122    0    0    0
H -667.29922608 -66.60326287 -37.50650870     6    122    0    0    0
H -652.46368484 -33.37272337 -51.38666891     6     127    0    0    0 
C -651.43306500 -33.55462019 -49.53619702     1     126    128    129    130
H -651.04743880 -31.71113989 -48.73943387     6     127    0    0    0
H -652.66717484 -34.41294241 -48.34883411     6     127    0    0    0
C -648.96541447 -35.06903993 -49.49888124     2     127    131    132    133
H -649.45892336 -37.05125198 -49.43701878     6     130    0    0    0
H -648.01751103 -34.37376261 -51.23281943     6     130    0    0    0
C -647.38935989 -34.29930250 -47.35349394     2     130    134   135   136
H -647.00937361 -32.25206038 -47.11694357     6     133    0    0    0
H -648.07757341 -35.02480717 -45.52164795     6     133    0    0    0
C -644.82375140 -35.77272678 -47.50085032     2     133   137   138   139
H -645.22904671 -37.73636604 -48.04012993     6    136    0    0    0
H -643.80392167 -34.92548819 -49.06685751     6    136    0    0    0
C -643.28971230 -35.65949030 -45.11042013     2    136   140   141   142
H -642.76220293 -33.73424784 -44.37072441     6    139    0    0    0
H -644.29386677 -36.28728836 -43.39680299     6    139    0    0    0
C -640.96322413 -37.23548804 -45.26709765     2    139   143   144   145
H -641.18483982 -39.34689494 -45.21114960     6    142    0    0    0
H -640.17050349 -36.97059037 -47.12844653     6    142    0    0    0
C -639.15202636 -36.80292571 -43.05407827     2    142   146   147   148
H -638.62755174 -34.70330005 -42.81675791     6    145    0    0    0
H -640.02683859 -37.41823364 -41.30351122     6    145    0    0    0
C -636.64556557 -38.19345236 -43.39847176     2    145   149   150   151
H -637.09128473 -40.11000588 -44.11750908     6    148    0    0    0
H -635.81171776 -37.40591684 -45.05414715     6    148    0    0    0
C -634.94801209 -38.15715427 -41.09030840     2    148   152   153   154
H -635.02696162 -36.25387731 -40.10822837     6    151    0    0    0
H -635.67244674 -39.40277141 -39.76212647     6    151    0    0    0
C -632.13585893 -38.81107032 -41.58165075     2    151   155   156   157
H -631.39469609 -39.62353650 -39.71690080     6    154    0    0    0
H -631.74918869 -40.46751958 -42.99714017     6    154    0    0    0
C -630.54711053 -36.37036110 -42.16900568     2    154   158   159   160
H -631.29369127 -35.56194720 -43.87671778     6    157    0    0    0
H -630.69628214 -34.82917035 -40.66704838     6    157    0    0    0
C -627.76745539 -37.06921071 -42.73461332     1    157   161   162   163
H -626.73042397 -38.06510501 -41.11695305     6    160    0    0    0
H -626.58284410 -35.58418938 -43.28097053     6    160    0    0    0
H -627.54212584 -38.15323395 -44.41541330     6    160    0    0    0
H -663.11638387 -39.68134030 -47.19992536     6     165    0    0    0 
C -662.69900795 -39.65681418 -45.11271080     1     164    166    167    168
H -664.34702696 -38.85289573 -44.19437946     6     165    0    0    0
H -662.42947279 -41.64750534 -44.42681385     6     165    0    0    0
C -660.59763328 -37.70019887 -44.61642925     2     165    169    170    171
H -658.92188967 -38.58937588 -44.00056133     6     168    0    0    0
H -659.99068363 -36.91163373 -46.41254455     6     168    0    0    0
C -661.31739239 -35.83136063 -42.62263556     2     168    172   173   174
H -663.06512254 -35.14350995 -43.36228227     6     171    0    0    0
H -661.65840208 -36.52857542 -40.76263668     6     171    0    0    0
C -659.51680221 -33.58493242 -42.22049134     2     171   175   176   177
H -657.52582757 -33.95659432 -42.06060046     6    174    0    0    0
H -659.77226004 -32.59390749 -43.97480512     6    174    0    0    0
C -660.27664608 -31.74293468 -40.02832061     2    174   178   179   180
H -662.19871603 -31.14814326 -40.39969567     6    177    0    0    0
H -660.08596714 -32.44077137 -38.11400484     6    177    0    0    0
C -658.52819922 -29.44111271 -39.99927858     2    177   181   182   183
H -656.62831694 -30.20791867 -39.97496404     6    180    0    0    0
H -658.81538026 -28.55569541 -41.84347463     6    180    0    0    0
C -659.00999466 -27.65608935 -37.92816090     2    180   184   185   186
H -661.07223698 -27.18619970 -38.17297296     6    183    0    0    0
H -659.05921653 -28.63424310 -36.19520647     6    183    0    0    0
C -657.08756162 -25.58910875 -37.62743208     2    183   187   188   189
H -655.07870539 -26.42731846 -37.39461547     6    186    0    0    0
H -657.11442349 -24.49707134 -39.45391283     6    186    0    0    0
C -657.66327738 -23.94661551 -35.30376027     2    186   190   191   192
H -659.62179251 -23.29665349 -35.57681723     6    189    0    0    0
H -657.60415963 -25.06206424 -33.54949966     6    189    0    0    0
C -655.85962273 -21.69845180 -35.06497814     2    189   193   194   195
H -653.90303474 -22.25210232 -35.25131485     6    192    0    0    0
H -656.13234653 -20.34435581 -36.51306215     6    192    0    0    0
C -656.44820034 -20.17388131 -32.65277498     2    192   196   197   198
H -658.41091030 -19.44591443 -32.59594599     6    195    0    0    0
H -656.52668803 -21.51511678 -31.09022421     6    195    0    0    0
C -654.56371116 -17.98369207 -32.09866096     1    195   199   200   201
H -655.46936884 -16.87857029 -30.48217268     6    198    0    0    0
H -654.64120372 -16.60094461 -33.77351397     6    198    0    0    0
H -652.70404851 -18.69235009 -32.00286096     6    198    0    0    0
H -661.37765173 -42.35885860 -18.09706954     6     203    0    0    0 
C -661.45223581 -41.58459155 -19.94450766     1     202    204    205    206
H -660.40269226 -42.77390427 -21.23690017     6     203    0    0    0
H -663.41098044 -41.85632994 -20.46124071     6     203    0    0    0
C -660.84263084 -38.67845488 -19.92425519     2     203    207    208    209
H -658.97153192 -38.37944312 -19.60839913     6     206    0    0    0
H -661.23383964 -37.90486122 -21.84914494     6     206    0    0    0
C -662.81381990 -37.32336238 -18.08454680     2     206    210   211   212
H -662.64544262 -35.31225745 -18.54067256     6     209    0    0    0
H -664.83504237 -37.82146644 -18.48045841     6     209    0    0    0
C -662.27094866 -37.62119247 -15.27581728     2     209   213   214   215
H -662.45667697 -39.64949913 -14.70722174     6    212    0    0    0
H -660.26930767 -37.19437763 -14.92238711     6    212    0    0    0
C -663.96072845 -35.99500783 -13.60051276     2    212   216   217   218
H -663.89258398 -34.06758376 -14.45587659     6    215    0    0    0
H -665.89964901 -36.90321822 -13.65189183     6    215    0    0    0
C -663.30397906 -36.06956178 -10.77065414     2    215   219   220   221
H -662.92260854 -38.01244865 -10.10968276     6    218    0    0    0
H -661.62949537 -34.84726277 -10.71729194     6    218    0    0    0
C -665.33404618 -35.09566111 -9.06634294     2    218   222   223   224
H -665.62342429 -33.20249168 -9.90286092     6    221    0    0    0
H -667.10557979 -35.92362515 -9.56597331     6    221    0    0    0
C -664.54819246 -35.01880924 -6.19010008     2    221   225   226   227
H -663.90049799 -36.85953620 -5.41870749     6    224    0    0    0
H -662.92663009 -33.82094672 -6.14947664     6    224    0    0    0
C -666.64598849 -33.84802747 -4.55922780     2    224   228   229   230
H -667.10408337 -32.16067936 -5.54105779     6    227    0    0    0
H -668.43775961 -34.90678356 -4.46100605     6    227    0    0    0
C -665.46771162 -33.43665266 -1.88171246     2    227   231   232   233
H -664.80819577 -34.92657264 -0.82811774     6    230    0    0    0
H -663.76922796 -32.31781756 -1.96716345     6    230    0    0    0
C -667.14397631 -31.67670340 -0.30547022     2    230   234   235   236
H -667.39972733 -30.02379924 -1.46278228     6    233    0    0    0
H -669.12277638 -32.56295666 -0.10558114     6    233    0    0    0
C -666.02447778 -30.92738083 2.24927084     1    233   237   238   239
H -667.04982923 -29.53312619 3.47338909     6    236    0    0    0
H -664.10021203 -30.18865574 2.01474758     6    236    0    0    0
H -665.73958805 -32.57789569 3.48871875     6    236    0    0    0
H -666.25005315 -63.31341586 -14.61296199     6     241    0    0    0 
C -666.52911837 -64.21253832 -16.45759673     1     240    242    243    244
H -668.27946099 -65.00157257 -16.39380742     6     241    0    0    0
H -666.78853432 -62.81520862 -17.80883281     6     241    0    0    0
C -664.31482552 -65.91479185 -17.14100203     2     241    245    246    247
H -663.90439393 -67.20491032 -15.69239593     6     244    0    0    0
H -664.80243538 -67.15183856 -18.74457475     6     244    0    0    0
C -661.95485448 -64.23685717 -17.69945212     2     244    248   249   250
H -662.05896667 -63.34504884 -19.62879465     6     247    0    0    0
H -661.69901092 -62.64570131 -16.33895639     6     247    0    0    0
C -659.45418925 -65.65863131 -17.33538485     2     247   251   252   253
H -657.88888698 -64.26576021 -17.80262155     6    250    0    0    0
H -659.42044873 -66.43958356 -15.28528252     6    250    0    0    0
C -659.13846245 -68.12403907 -19.00876395     2    250   254   255   256
H -660.32790214 -69.50966272 -18.10162389     6    253    0    0    0
H -659.95867482 -67.72031419 -20.79744894     6    253    0    0    0
C -656.49647308 -69.24832625 -19.21173317     2    253   257   258   259
H -656.40919244 -70.63264930 -20.69107209     6    256    0    0    0
H -655.14499072 -67.81066610 -19.59901982     6    256    0    0    0
C -655.75719361 -70.83850663 -16.79292713     2    256   260   261   262
H -655.60218980 -69.45569111 -15.30001517     6    259    0    0    0
H -657.47303536 -72.05515040 -16.56494625     6    259    0    0    0
C -653.32797533 -72.48745567 -16.87894545     2    259   263   264   265
H -653.35692032 -73.61192736 -18.57316921     6    262    0    0    0
H -651.76596598 -71.23586885 -17.06519432     6    262    0    0    0
C -653.12950425 -74.39396937 -14.71820092     2    262   266   267   268
H -653.36847554 -73.16802379 -13.08297663     6    265    0    0    0
H -654.65703037 -75.81757984 -14.93595457     6    265    0    0    0
C -650.49654856 -75.68106644 -14.25492882     2    265   269   270   271
H -650.04595744 -76.52800011 -16.12318258     6    268    0    0    0
H -649.26173288 -74.06709622 -13.93014118     6    268    0    0    0
C -650.39943074 -77.77285960 -12.23351460     2    268   272   273   274
H -650.94565768 -76.97310521 -10.26188528     6    271    0    0    0
H -651.84347417 -79.17886674 -12.52441363     6    271    0    0    0
C -647.73400867 -78.99830561 -12.47366902     1    271   275   276   277
H -647.42384763 -80.00851910 -14.14431144     6    274    0    0    0
H -647.54531912 -80.36024267 -10.83418534     6    274    0    0    0
H -646.20777444 -77.67549519 -12.14326124     6    274    0    0    0
H -666.20426717 -52.35050655 -26.03725293     6     279    0    0    0 
C -666.25838759 -53.21715677 -24.22844607     1     278    280    281    282
H -667.99053287 -54.33143213 -24.39184568     6     279    0    0    0
H -664.50115032 -54.36459149 -24.53050652     6     279    0    0    0
C -666.11138160 -51.39513684 -21.97691935     2     279    283    284    285
H -664.31192991 -50.36865534 -21.99055106     6     282    0    0    0
H -667.38271457 -49.94420695 -21.84866464     6     282    0    0    0
C -666.29854854 -53.01329562 -19.48262038     2     282    286   287   288
H -668.03538897 -54.09878061 -19.72056871     6     285    0    0    0
H -664.56993857 -54.25007917 -19.17972172     6     285    0    0    0
C -666.70509511 -51.18738755 -17.30260493     2     285   289   290   291
H -665.31366482 -49.59971459 -17.45623732     6    288    0    0    0
H -668.72339014 -50.64038875 -17.53204720     6    288    0    0    0
C -666.77488141 -52.50062171 -14.69587271     2    288   292   293   294
H -668.44021113 -51.93649615 -13.66044188     6    291    0    0    0
H -667.07227304 -54.51606929 -15.13265101     6    291    0    0    0
C -664.35480403 -52.13247566 -12.99416908     2    291   295   296   297
H -662.78643117 -53.14456544 -13.91518189     6    294    0    0    0
H -663.66643706 -50.29180043 -12.65835200     6    294    0    0    0
C -664.80726314 -53.09861251 -10.23452334     2    294   298   299   300
H -666.13648725 -51.80144175 -9.32165542     6    297    0    0    0
H -665.38815375 -55.09027539 -9.95286552     6    297    0    0    0
C -662.20490970 -53.33178649 -8.94251766     2    297   301   302   303
H -660.82590120 -54.38255602 -9.97596977     6    300    0    0    0
H -661.60824300 -51.35536652 -9.15611216     6    300    0    0    0
C -662.65286804 -54.16387578 -6.19206443     2    300   304   305   306
H -663.81155271 -52.75657499 -5.07246378     6    303    0    0    0
H -663.66333288 -55.92789029 -6.15307531     6    303    0    0    0
C -660.01726311 -54.70028009 -4.95741399     2    303   307   308   309
H -658.76475775 -55.73611081 -6.18346275     6    306    0    0    0
H -659.03548806 -52.84075796 -4.59047907     6    306    0    0    0
C -660.54085876 -56.07102153 -2.46451398     2    306   310   311   312
H -662.32483978 -55.39343987 -1.54420422     6    309    0    0    0
H -660.95144058 -58.09690226 -3.14314150     6    309    0    0    0
C -658.12053495 -55.77782252 -0.74580657     1    309   313   314   315
H -658.68025828 -56.41665316 1.18037513     6    312    0    0    0
H -657.74231043 -53.85451599 -0.54545572     6    312    0    0    0
H -656.43281505 -56.92419880 -1.36184470     6    312    0    0    0
H -653.83431187 -47.01650197 -44.64217444     6     317    0    0    0 
C -653.85743736 -48.98089369 -45.26764889     1     316    318    319    320
H -654.86891844 -50.15254653 -43.98446647     6     317    0    0    0
H -654.83041061 -49.25405222 -47.10066227     6     317    0    0    0
C -651.30260889 -50.16730234 -45.63880422     2     317    321    322    323
H -651.56169598 -52.18376105 -45.93258604     6     320    0    0    0
H -650.52753057 -49.33837678 -47.39332309     6     320    0    0    0
C -649.60697425 -49.76932267 -43.40842330     2     320    324   325   326
H -649.52814888 -47.88673046 -42.58831964     6     323    0    0    0
H -650.46887399 -50.86710824 -41.85662047     6     323    0    0    0
C -646.91764699 -50.49194169 -43.95988226     2     323   327   328   329
H -645.86212425 -50.69906912 -42.25680819     6    326    0    0    0
H -646.83262097 -52.27872916 -44.83030841     6    326    0    0    0
C -645.49051717 -48.38074848 -45.61834627     2    326   330   331   332
H -646.46783209 -48.49394628 -47.37306176     6    329    0    0    0
H -645.71276000 -46.56295324 -44.66238123     6    329    0    0    0
C -642.63283124 -48.91468324 -45.78687722     2    329   333   334   335
H -642.41916334 -50.89040396 -46.48447899     6    332    0    0    0
H -641.79378635 -47.83544109 -47.37902994     6    332    0    0    0
C -641.05349212 -48.21838857 -43.35754669     2    332   336   337   338
H -641.48147765 -46.24610212 -42.86974761     6    335    0    0    0
H -641.59678001 -49.44703860 -41.63648155     6    335    0    0    0
C -638.23616999 -48.31815704 -43.87854345     2    335   339   340   341
H -637.80881285 -50.13817568 -44.74163531     6    338    0    0    0
H -637.63396647 -46.77709498 -45.21682267     6    338    0    0    0
C -636.74804565 -48.01953276 -41.33044083     2    338   342   343   344
H -636.94944055 -46.20228189 -40.43447613     6    341    0    0    0
H -637.52165159 -49.17827546 -39.77655232     6    341    0    0    0
C -633.94026136 -48.44719974 -41.82071454     2    341   345   346   347
H -632.81116728 -48.42571198 -40.13688631     6    344    0    0    0
H -633.80942226 -50.45054183 -42.33178004     6    344    0    0    0
C -632.67875201 -46.66576569 -43.85240483     2    344   348   349   350
H -633.47735847 -47.36178804 -45.70560623     6    347    0    0    0
H -633.40514817 -44.86006304 -43.84398791     6    347    0    0    0
C -629.85077759 -46.55519952 -43.49369787     1    347   351   352   353
H -629.10200696 -48.53879115 -43.34491666     6    350    0    0    0
H -629.46633299 -45.70158961 -41.61446160     6    350    0    0    0
H -628.91653315 -45.46124241 -44.89017760     6    350    0    0    0
H -662.19453499 -60.32510261 -27.01235150     6     355    0    0    0 
C -660.49250636 -59.16110062 -26.95814797     1     354    356    357    358
H -660.26532685 -58.62646393 -25.00158856     6     355    0    0    0
H -658.90864178 -60.39874081 -27.45738112     6     355    0    0    0
C -660.72856875 -56.85595218 -28.63787040     2     355    359    360    361
H -661.45711867 -57.50868563 -30.41659709     6     358    0    0    0
H -662.19884394 -55.86459546 -27.77454327     6     358    0    0    0
C -658.34082564 -55.15902732 -29.01644852     2     358    362   363   364
H -657.98973642 -54.31147518 -27.17569695     6     361    0    0    0
H -656.85722027 -56.31630579 -29.86731157     6     361    0    0    0
C -658.78136985 -52.89305020 -30.78998983     2     361   365   366   367
H -659.70978656 -53.44905614 -32.69087412     6    364    0    0    0
H -660.11550976 -51.65552519 -29.78586980     6    364    0    0    0
C -656.49310249 -51.33011873 -31.54191264     2    364   368   369   370
H -655.34219543 -50.51807521 -29.98050286     6    367    0    0    0
H -655.16539400 -52.58662553 -32.51021408     6    367    0    0    0
C -657.14672699 -49.25316105 -33.46760377     2    367   371   372   373
H -657.65234748 -50.07814130 -35.38448748     6    370    0    0    0
H -658.79400932 -48.12469454 -32.97143645     6    370    0    0    0
C -654.83608607 -47.59256978 -34.16759519     2    370   374   375   376
H -654.37603381 -46.12897593 -32.73465363     6    373    0    0    0
H -653.11093661 -48.58140956 -34.70888608     6    373    0    0    0
C -655.58203838 -45.79358021 -36.42448910     2    373   377   378   379
H -656.56087026 -46.86092246 -37.87498199     6    376    0    0    0
H -656.99728654 -44.40238974 -35.91403768     6    376    0    0    0
C -653.45642985 -44.30843407 -37.73888639     2    376   380   381   382
H -651.92955098 -43.94476543 -36.41756253     6    379    0    0    0
H -652.57948857 -45.50777351 -39.20201853     6    379    0    0    0
C -654.45070684 -41.79528358 -38.77020388     2    379   383   384   385
H -656.21803751 -41.90081617 -39.74765013     6    382    0    0    0
H -654.85028208 -40.77033513 -37.00941047     6    382    0    0    0
C -652.65942523 -40.35282081 -40.43780222     2    382   386   387   388
H -653.55202792 -38.52595218 -40.62151813     6    385    0    0    0
H -650.86121706 -40.18833098 -39.46775915     6    385    0    0    0
C -652.25668803 -41.59540912 -43.11372088     1    385   389   390   391
H -654.23082085 -42.13538666 -44.05549990     6    388    0    0    0
H -651.15772360 -43.20778674 -42.42873242     6    388    0    0    0
H -651.38251988 -40.29755836 -44.34333764     6    388    0    0    0
H -614.13590492 -60.40562298 -33.72557506     6     393    0    0    0 
C -614.60016498 -60.55638206 -31.77294849     1     392    394    395    396
H -613.54631010 -62.20385924 -31.09451643     6     393    0    0    0
H -613.92712058 -58.86524031 -30.72642212     6     393    0    0    0
C -617.52331973 -60.97574921 -31.18836416     2     393    397    398    399
H -618.59733402 -59.25526486 -31.76056974     6     396    0    0    0
H -618.13340908 -62.33887970 -32.52640273     6     396    0    0    0
C -618.09635534 -61.55676730 -28.29453549     2     396    400   401   402
H -616.85846309 -62.98188419 -27.53849598     6     399    0    0    0
H -617.75621819 -59.82488487 -27.26567603     6     399    0    0    0
C -620.80622715 -62.53969990 -27.76147431     2     399   403   404   405
H -622.24478089 -61.91487431 -29.07140540     6    402    0    0    0
H -620.59261439 -64.56129723 -28.13294816     6    402    0    0    0
C -621.51254960 -62.06447397 -25.07522550     2    402   406   407   408
H -620.03178208 -63.12371118 -24.16733599     6    405    0    0    0
H -621.65578588 -60.21722142 -24.41339714     6    405    0    0    0
C -624.13668976 -63.21852098 -24.26289591     2    405   409   410   411
H -625.79620322 -62.79665950 -25.45777896     6    408    0    0    0
H -623.82580356 -65.22870623 -24.29550224     6    408    0    0    0
C -624.57620626 -62.28956262 -21.38060813     2    408   412   413   414
H -622.68347449 -62.47793439 -20.50562255     6    411    0    0    0
H -625.20613458 -60.29598876 -21.33037738     6    411    0    0    0
C -626.49373899 -64.10680172 -20.01017215     2    411   415   416   417
H -628.15927127 -63.87618448 -20.98321325     6    414    0    0    0
H -625.91523055 -66.12196344 -20.04495640     6    414    0    0    0
C -626.90552889 -63.18781845 -17.19388611     2    414   418   419   420
H -625.14994760 -63.35662490 -15.99668424     6    417    0    0    0
H -627.34796947 -61.20413368 -17.22568068     6    417    0    0    0
C -629.02667066 -64.68454907 -15.87815696     2    417   421   422   423
H -630.85741159 -64.22600870 -16.74544090     6    420    0    0    0
H -628.56816504 -66.76037726 -16.21593897     6    420    0    0    0
C -629.42918735 -64.23065366 -13.26170836     2    420   424   425   426
H -630.47711553 -65.60167134 -12.16100657     6    423    0    0    0
H -627.48205913 -64.12787892 -12.36503703     6    423    0    0    0
C -630.35372473 -61.51977780 -12.51601304     1    423   427   428   429
H -632.45271714 -61.45593070 -12.80910350     6    426    0    0    0
H -629.57270005 -60.19848250 -13.83890099     6    426    0    0    0
H -629.79912050 -60.55382219 -10.75603075     6    426    0    0    0
H -640.65397450 -73.90782003 -27.55040666     6     431    0    0    0 
C -641.01191826 -74.49793229 -25.57320678     1     430    432    433    434
H -642.45129830 -73.08702604 -24.99780290     6     431    0    0    0
H -641.73570412 -76.42647784 -25.25404900     6     431    0    0    0
C -638.71370999 -74.03946215 -23.95372764     2     431    435    436    437
H -638.10875437 -72.09213203 -24.44642567     6     434    0    0    0
H -639.11859174 -73.68598552 -22.00333837     6     434    0    0    0
C -636.56827215 -75.89187869 -24.06953346     2     434    438   439   440
H -634.75712644 -75.38351102 -23.37560774     6     437    0    0    0
H -637.07781689 -77.75809952 -23.30826446     6     437    0    0    0
C -635.71216718 -76.50303942 -26.79411853     2     437   441   442   443
H -633.99395740 -77.86625655 -26.80728157     6    440    0    0    0
H -637.32544995 -77.17644027 -27.88607369     6    440    0    0    0
C -634.67530112 -74.08857727 -28.08949715     2    440   444   445   446
H -636.15748457 -72.66138725 -28.10497176     6    443    0    0    0
H -633.18785152 -73.17781127 -27.00421385     6    443    0    0    0
C -633.51267288 -74.83526947 -30.71575538     2    443   447   448   449
H -634.75572244 -76.20208884 -31.61478326     6    446    0    0    0
H -633.38910635 -73.29613463 -31.94847134     6    446    0    0    0
C -630.76720468 -75.91066984 -30.53233015     2    446   450   451   452
H -629.44251249 -74.57693995 -29.61771017     6    449    0    0    0
H -630.95271283 -77.45208110 -29.29522308     6    449    0    0    0
C -629.60602868 -76.73197009 -33.10451078     2    449   453   454   455
H -631.05103757 -77.68368718 -34.19604514     6    452    0    0    0
H -629.12578386 -74.85760964 -33.79748848     6    452    0    0    0
C -627.05498083 -78.19429889 -32.95467354     2    452   456   457   458
H -625.61271763 -77.19838955 -31.90985673     6    455    0    0    0
H -627.51240050 -79.77379407 -31.67077418     6    455    0    0    0
C -625.88339829 -78.98376940 -35.45487642     2    455   459   460   461
H -624.25107872 -80.27282971 -35.12090101     6    458    0    0    0
H -627.29287258 -80.19584138 -36.45465550     6    458    0    0    0
C -625.35470478 -76.74067514 -37.18123444     2    458   462   463   464
H -627.19051666 -75.96603889 -37.88004652     6    461    0    0    0
H -624.58236219 -75.27202667 -36.02183530     6    461    0    0    0
C -623.54902273 -77.19659656 -39.34390903     1    461   465   466   467
H -624.10099915 -78.83264756 -40.51349685     6    464    0    0    0
H -621.64880237 -77.82834648 -38.56537063     6    464    0    0    0
H -623.19074020 -75.30451161 -40.06927648     6    464    0    0    0
H -661.50770998 -46.01527428 -38.95127181     6     469    0    0    0 
C -661.08247224 -46.95253412 -40.74237449     1     468    470    471    472
H -662.32296801 -46.28240856 -42.17336697     6     469    0    0    0
H -659.29298587 -46.22347409 -41.38512927     6     469    0    0    0
C -661.11190350 -49.81486194 -40.45040811     2     469    473    474    475
H -660.84650943 -50.64291112 -42.25628437     6     472    0    0    0
H -659.52714198 -50.07904581 -39.25278787     6     472    0    0    0
C -663.52095271 -50.88895305 -39.27173546     2     472    476   477   478
H -663.23963004 -50.28917992 -37.34438647     6     475    0    0    0
H -665.27255440 -50.32724766 -40.18575617     6     475    0    0    0
C -663.39430073 -53.76351920 -39.26784261     2     475   479   480   481
H -663.92806177 -54.71240518 -41.11880533     6    478    0    0    0
H -661.45402748 -54.58653805 -38.83290356     6    478    0    0    0
C -665.28837792 -54.87133855 -37.40558945     2    478   482   483   484
H -665.44768269 -53.68047270 -35.69945193     6    481    0    0    0
H -667.19160637 -54.86927379 -38.40275065     6    481    0    0    0
C -664.49277116 -57.53399046 -36.39639447     2    481   485   486   487
H -664.66319648 -58.92844262 -37.94170613     6    484    0    0    0
H -662.61182228 -57.75136271 -35.63337136     6    484    0    0    0
C -666.31642106 -58.23150382 -34.28136617     2    484   488   489   490
H -666.22613443 -56.92454483 -32.72514852     6    487    0    0    0
H -668.27852601 -58.04307394 -34.88454834     6    487    0    0    0
C -665.94411968 -60.82156274 -33.28073140     2    487   491   492   493
H -665.98310545 -62.19471614 -34.71242220     6    490    0    0    0
H -664.14983645 -60.88696793 -32.36594873     6    490    0    0    0
C -668.05885629 -61.64994329 -31.43460410     2    490   494   495   496
H -667.84367787 -60.35535442 -29.85567650     6    493    0    0    0
H -669.75198801 -61.27271760 -32.37093351     6    493    0    0    0
C -667.74799827 -64.33833157 -30.46655451     2    493   497   498   499
H -667.11522129 -65.42618858 -31.99051969     6    496    0    0    0
H -666.34983628 -64.36925536 -28.85224558     6    496    0    0    0
C -670.02767342 -65.72884634 -29.46940385     2    496   500   501   502
H -670.74084886 -64.50087387 -27.81897775     6    499    0    0    0
H -671.56627263 -65.90339604 -30.91107940     6    499    0    0    0
C -669.28108376 -68.39788844 -28.52111258     1    499   503   504   505
H -669.63625878 -69.83258287 -29.90453388     6    502    0    0    0
H -670.44504894 -68.59885979 -26.77769718     6    502    0    0    0
H -667.35438760 -68.65008776 -27.69654339     6    502    0    0    0
H -640.87865069 -84.35529505 -0.89247452     6     507    0    0    0 
C -640.16858581 -84.61176084 -2.82055516     1     506    508    509    510
H -638.05271674 -84.70634358 -2.66717324     6     507    0    0    0
H -640.91229784 -86.44848667 -3.52873159     6     507    0    0    0
C -641.04935651 -82.47307123 -4.63644377     2     507    511    512    513
H -643.00744177 -82.85800286 -5.10597057     6     510    0    0    0
H -640.70521060 -80.72617067 -3.62115847     6     510    0    0    0
C -639.72292406 -82.46140456 -7.10615064     2     510    514   515   516
H -637.73305246 -82.78630035 -6.65331330     6     513    0    0    0
H -640.26836168 -84.11260891 -8.04416881     6     513    0    0    0
C -639.83700699 -79.75537928 -8.36148082     2     513   517   518   519
H -641.70768580 -79.25540735 -8.91897997     6    516    0    0    0
H -639.30825801 -78.37029001 -7.03541804     6    516    0    0    0
C -638.25765847 -79.53713842 -10.78718263     2    516   520   521   522
H -636.36077545 -80.24834671 -10.38664548     6    519    0    0    0
H -639.05384161 -80.89285610 -12.19617584     6    519    0    0    0
C -638.36981922 -76.99363258 -12.10880923     2    519   523   524   525
H -640.20795270 -76.98781141 -13.08146793     6    522    0    0    0
H -638.31078086 -75.37439118 -10.71012933     6    522    0    0    0
C -636.32977105 -76.57881293 -14.17674660     2    522   526   527   528
H -634.55979355 -77.33725710 -13.36891334     6    525    0    0    0
H -636.79137728 -77.74917450 -15.77953624     6    525    0    0    0
C -636.23148580 -73.78848142 -15.05547824     2    525   529   530   531
H -637.89515795 -72.61502815 -14.97446534     6    528    0    0    0
H -635.37356355 -72.72816330 -13.50221119     6    528    0    0    0
C -634.73519293 -73.56918417 -17.51197212     2    528   532   533   534
H -632.99295606 -74.73112330 -17.23281366     6    531    0    0    0
H -635.77273043 -74.38668840 -19.09176940     6    531    0    0    0
C -633.89156114 -70.89425617 -18.24874174     2    531   535   536   537
H -635.56035527 -69.78523161 -18.27122917     6    534    0    0    0
H -632.60146728 -70.13393235 -16.70885585     6    534    0    0    0
C -632.72862285 -71.06656132 -20.93414594     2    534   538   539   540
H -631.08766131 -72.25495957 -20.96223512     6    537    0    0    0
H -634.11719113 -71.59322022 -22.27118623     6    537    0    0    0
C -632.10256885 -68.43446521 -21.95330676     1    537   541   542   543
H -631.49380953 -68.29525709 -23.99645984     6    540    0    0    0
H -630.68503407 -67.44130163 -20.70117629     6    540    0    0    0
H -633.73085005 -67.16054814 -21.92543461     6    540    0    0    0
H -624.79881292 -56.74196711 -35.07802123     6     545    0    0    0 
C -624.41412120 -55.04286275 -33.99030686     1     544    546    547    548
H -625.80365657 -54.94190359 -32.41900717     6     545    0    0    0
H -622.55935423 -55.09163338 -33.11293776     6     545    0    0    0
C -624.66151978 -52.65495514 -35.60944943     2     545    549    550    551
H -623.47148682 -52.72109899 -37.37974043     6     548    0    0    0
H -626.51045180 -52.57586697 -36.41877569     6     548    0    0    0
C -624.14684599 -50.21750968 -34.18256481     2     548    552   553   554
H -625.49975977 -50.08770294 -32.65148615     6     551    0    0    0
H -622.38133558 -50.52393613 -33.27779561     6     551    0    0    0
C -624.37283713 -47.79209876 -35.69148922     2     551   555   556   557
H -622.88434104 -47.67630294 -37.05537975     6    554    0    0    0
H -626.12423217 -48.15161857 -36.67068421     6    554    0    0    0
C -624.33931008 -45.49366654 -33.94965273     2    554   558   559   560
H -625.49407588 -46.02669981 -32.22924040     6    557    0    0    0
H -622.37075520 -45.14138939 -33.55334668     6    557    0    0    0
C -625.41184586 -43.02737345 -35.04157410     2    557   561   562   563
H -624.55050580 -42.47013767 -36.83892697     6    560    0    0    0
H -627.35525996 -43.20419274 -35.58583956     6    560    0    0    0
C -624.75497466 -40.79344375 -33.24147313     2    560   564   565   566
H -625.39642286 -41.55476228 -31.41139648     6    563    0    0    0
H -622.75029591 -40.66812972 -32.88423512     6    563    0    0    0
C -625.57276264 -38.09509041 -33.93998998     2    563   567   568   569
H -625.32675377 -37.90953225 -35.99993901     6    566    0    0    0
H -627.55999406 -37.53050076 -33.64098625     6    566    0    0    0
C -624.02008257 -35.98069239 -32.67250596     2    566   570   571   572
H -624.29495575 -35.84872949 -30.76733366     6    569    0    0    0
H -621.97092383 -36.52505559 -32.75293737     6    569    0    0    0
C -624.45202878 -33.45673831 -34.00244300     2    569   573   574   575
H -623.83715888 -33.81434066 -35.98123694     6    572    0    0    0
H -626.49577776 -32.98070580 -34.00386834     6    572    0    0    0
C -623.18186446 -31.07681540 -32.87469012     2    572   576   577   578
H -621.21426802 -31.67741189 -32.52437213     6    575    0    0    0
H -623.05505800 -29.72879432 -34.41680293     6    575    0    0    0
C -624.28922427 -30.00827429 -30.37888914     1    575   579   580   581
H -625.90592901 -28.78719673 -30.73197802     6    578    0    0    0
H -623.07404908 -28.72138521 -29.41071932     6    578    0    0    0
H -624.92817024 -31.48794225 -29.31806323     6    578    0    0    0
H -663.28841653 -43.21602243 -27.69908203     6     583    0    0    0 
C -661.90248585 -41.61886720 -27.76383393     1     582    584    585    586
H -662.81558695 -39.94701457 -26.85494602     6     583    0    0    0
H -660.19081273 -42.13412280 -26.50674304     6     583    0    0    0
C -660.80452036 -40.56822127 -30.29826279     2     583    587    588    589
H -660.19541203 -42.07001576 -31.52237718     6     586    0    0    0
H -662.10711006 -39.63612990 -31.36036146     6     586    0    0    0
C -658.79781741 -38.47138844 -29.94092075     2     586    590   591   592
H -659.66955403 -36.87470243 -28.93278722     6     589    0    0    0
H -657.31995553 -38.88227234 -28.58719694     6     589    0    0    0
C -657.79662542 -37.64635035 -32.56907239     2     589   593   594   595
H -656.97492757 -39.14971593 -33.58724134     6    592    0    0    0
H -659.30049377 -36.76597078 -33.78717448     6    592    0    0    0
C -655.73712763 -35.52340794 -32.34051926     2    592   596   597   598
H -656.62316128 -33.58240330 -32.10774716     6    595    0    0    0
H -654.54146250 -36.00688987 -30.82160760     6    595    0    0    0
C -654.15571715 -35.43428304 -34.87614818     2    595   599   600   601
H -652.55995916 -36.76103145 -34.64849128     6    598    0    0    0
H -655.34411535 -35.87855059 -36.53973912     6    598    0    0    0
C -652.92358576 -32.77147108 -35.32508707     2    598   602   603   604
H -654.54436200 -31.49775531 -35.53287335     6    601    0    0    0
H -651.70242911 -32.32819659 -33.66361488     6    601    0    0    0
C -651.38925883 -32.75672111 -37.85070098     2    601   605   606   607
H -649.73289699 -34.14065516 -37.86192870     6    604    0    0    0
H -652.69791456 -33.39957208 -39.39248139     6    604    0    0    0
C -650.82971113 -30.05688158 -38.69049121     2    604   608   609   610
H -652.41371137 -28.87487329 -38.91555118     6    607    0    0    0
H -649.75906075 -29.15556934 -37.25380736     6    607    0    0    0
C -649.44496611 -30.04107470 -41.26632440     2    607   611   612   613
H -647.69427235 -30.88554336 -40.71822163     6    610    0    0    0
H -650.50813228 -31.18228563 -42.58615108     6    610    0    0    0
C -649.18937276 -27.27686147 -42.10093312     2    610   614   615   616
H -651.11793572 -26.62335637 -41.89887078     6    613    0    0    0
H -648.21057849 -26.09375516 -40.72049390     6    613    0    0    0
C -647.95257255 -27.24032599 -44.67996924     1    613   617   618   619
H -647.85273614 -25.25550587 -45.40609807     6    616    0    0    0
H -648.71445300 -28.51081831 -46.06969731     6    616    0    0    0
H -646.09005571 -27.86037127 -44.17992826     6    616    0    0    0
H -634.16649154 -48.83299899 -10.86348513     6     621    0    0    0 
C -632.88362866 -47.40226770 -11.62102314     1     620    622    623    624
H -631.12819579 -47.42658543 -10.39945994     6     621    0    0    0
H -632.14649694 -48.08430382 -13.38536686     6     621    0    0    0
C -634.18825860 -44.72976447 -11.80646240     2     621    625    626    627
H -632.75138392 -43.40323315 -12.28490690     6     624    0    0    0
H -635.56104524 -44.84613038 -13.39937742     6     624    0    0    0
C -635.17320836 -43.92049969 -9.29394382     2     624    628   629   630
H -636.32445540 -45.25438404 -8.37808320     6     627    0    0    0
H -633.79741455 -43.50265811 -7.80844036     6     627    0    0    0
C -636.78742252 -41.49245871 -9.55526753     2     627   631   632   633
H -635.96390635 -40.28358239 -11.03366818     6    630    0    0    0
H -638.50464534 -41.97483641 -10.46315999     6    630    0    0    0
C -636.90357030 -40.21424734 -7.06040411     2    630   634   635   636
H -637.84402661 -41.63834255 -5.77118005     6    633    0    0    0
H -635.00327356 -39.76697952 -6.58767942     6    633    0    0    0
C -638.55040852 -37.74329130 -7.38895148     2    633   637   638   639
H -637.38976030 -36.61590730 -8.85036954     6    636    0    0    0
H -640.42332172 -37.98484997 -8.31489223     6    636    0    0    0
C -638.80354240 -36.23578440 -4.91591829     2    636   640   641   642
H -639.76145085 -37.45735268 -3.69162894     6    639    0    0    0
H -636.85263257 -35.82858212 -4.02944700     6    639    0    0    0
C -640.72515795 -34.01443512 -5.27021587     2    639   643   644   645
H -639.93496694 -32.31120430 -6.05870227     6    642    0    0    0
H -642.16105872 -34.33309953 -6.71297037     6    642    0    0    0
C -641.72423005 -33.07959666 -2.82238177     2    642   646   647   648
H -642.39041585 -34.57064573 -1.40032914     6    645    0    0    0
H -640.27841405 -32.34796599 -1.66463786     6    645    0    0    0
C -643.81215613 -31.20351765 -3.31226135     2    645   649   650   651
H -643.25247173 -30.01223516 -4.80490033     6    648    0    0    0
H -645.47526334 -32.21125180 -3.64625056     6    648    0    0    0
C -644.61614486 -29.34302968 -1.22570150     2    648   652   653   654
H -646.32377630 -28.33772932 -1.66333753     6    651    0    0    0
H -645.36490780 -30.48274053 0.41698486     6    651    0    0    0
C -642.54301620 -27.49450920 -0.36419543     1    651   655   656   657
H -641.71855223 -26.10094701 -1.68535031     6    654    0    0    0
H -641.29226099 -28.47597229 0.85034998     6    654    0    0    0
H -643.52151913 -26.31194487 0.97365104     6    654    0    0    0
H -655.78650941 -41.49056405 -25.49297791     6     659    0    0    0 
C -654.81198329 -40.31330503 -24.21403035     1     658    660    661    662
H -654.79974123 -38.31318516 -24.87101881     6     659    0    0    0
H -655.96891398 -40.34383737 -22.35899084     6     659    0    0    0
C -652.02539539 -41.05285570 -23.84203165     2     659    663    664    665
H -651.17548783 -39.58451623 -22.51588663     6     662    0    0    0
H -651.84711757 -42.97029038 -23.04835844     6     662    0    0    0
C -650.46978118 -41.19537933 -26.22762264     2     662    666   667   668
H -648.50985523 -41.63036025 -25.35194371     6     665    0    0    0
H -650.72954200 -42.90476756 -27.23525907     6     665    0    0    0
C -650.51803375 -38.88751349 -27.91659496     2     665   669   670   671
H -652.30576375 -39.07329647 -29.00017766     6    668    0    0    0
H -650.93200975 -37.08770061 -26.80554090     6    668    0    0    0
C -648.19296561 -38.72280249 -29.47784149     2    668   672   673   674
H -646.54891970 -38.64112851 -28.28173584     6    671    0    0    0
H -647.96754575 -40.37268015 -30.70038708     6    671    0    0    0
C -648.15725071 -36.04758380 -30.85680954     2    671   675   676   677
H -649.82187259 -35.88209232 -32.00528799     6    674    0    0    0
H -648.56280655 -34.65928488 -29.44050694     6    674    0    0    0
C -645.74112991 -35.20491428 -32.26016305     2    674   678   679   680
H -646.17020125 -33.34717503 -32.78106129     6    677    0    0    0
H -644.27351615 -35.42429115 -30.85358355     6    677    0    0    0
C -644.79169006 -36.87132140 -34.46837680     2    677   681   682   683
H -644.91101376 -38.81468177 -34.04190997     6    680    0    0    0
H -646.02184479 -36.48584687 -36.02069800     6    680    0    0    0
C -642.00326675 -36.36057184 -35.09137971     2    680   684   685   686
H -640.96536722 -37.00345865 -33.53945607     6    683    0    0    0
H -641.57819300 -37.77095689 -36.48806223     6    683    0    0    0
C -640.97074316 -33.71373697 -35.59146654     2    683   687   688   689
H -641.36446093 -33.19143035 -37.48830290     6    686    0    0    0
H -641.97140840 -32.34800588 -34.33934857     6    686    0    0    0
C -638.18113039 -33.46045943 -35.06869003     2    686   690   691   692
H -637.65173896 -34.09992609 -33.22563036     6    689    0    0    0
H -637.46481084 -34.77905070 -36.36768278     6    689    0    0    0
C -636.99826532 -30.84026713 -35.39211931     1    689   693   694   695
H -635.16622896 -30.64799672 -34.41034113     6    692    0    0    0
H -638.07598397 -29.41945830 -34.43602857     6    692    0    0    0
H -636.72182982 -30.14182543 -37.23986122     6    692    0    0    0
H -617.03918481 -33.15471141 -33.46277244     6     697    0    0    0 
C -615.53985840 -33.04380958 -31.93029960     1     696    698    699    700
H -613.74997762 -32.85702150 -32.96053610     6     697    0    0    0
H -615.83718684 -31.24573115 -31.03760292     6     697    0    0    0
C -615.99799841 -35.09015432 -29.82171434     2     697    701    702    703
H -615.19929598 -34.49199391 -27.92517409     6     700    0    0    0
H -618.00464208 -35.37101806 -29.11129806     6     700    0    0    0
C -614.75139152 -37.66803550 -30.26055242     2     700    704   705   706
H -612.87502271 -37.31363310 -30.95416714     6     703    0    0    0
H -614.90775156 -38.67568775 -28.47187748     6     703    0    0    0
C -616.08866820 -39.29073338 -32.30398708     2     703   707   708   709
H -617.99039520 -39.94131991 -31.76370464     6    706    0    0    0
H -616.36105100 -38.02404546 -33.95686224     6    706    0    0    0
C -614.84056929 -41.80998559 -33.01580918     2    706   710   711   712
H -613.22146420 -41.66299777 -34.36968206     6    709    0    0    0
H -614.39423467 -42.87844551 -31.37056074     6    709    0    0    0
C -616.72148816 -43.59574067 -34.23518902     2    709   713   714   715
H -618.24365862 -43.82089930 -32.84224137     6    712    0    0    0
H -617.87037718 -42.87427866 -35.77923281     6    712    0    0    0
C -615.32327206 -46.01902810 -34.92505502     2    712   716   717   718
H -614.44781071 -45.76924480 -36.79831333     6    715    0    0    0
H -613.58412780 -46.37978737 -33.73915682     6    715    0    0    0
C -617.23841882 -48.37941924 -34.88810497     2    715   719   720   721
H -618.24246950 -48.50758142 -33.11503486     6    718    0    0    0
H -618.66935549 -47.86979655 -36.28420412     6    718    0    0    0
C -615.98198216 -50.77826695 -35.74337936     2    718   722   723   724
H -614.60463035 -50.34215347 -37.33274399     6    721    0    0    0
H -614.68240542 -51.41609667 -34.32363279     6    721    0    0    0
C -617.87938941 -52.84280605 -36.47908460     2    721   725   726   727
H -619.16606158 -52.95214421 -34.82478936     6    724    0    0    0
H -619.09246196 -52.06405793 -38.02660319     6    724    0    0    0
C -616.60136002 -55.41736797 -37.11709020     2    724   728   729   730
H -614.71305907 -55.38045611 -36.40835760     6    727    0    0    0
H -617.54025425 -56.92419878 -36.23989019     6    727    0    0    0
C -616.77193911 -55.87247241 -40.04182467     1    727   731   732   733
H -615.85817223 -57.61238543 -40.69328004     6    730    0    0    0
H -615.59883495 -54.45054339 -41.11934870     6    730    0    0    0
H -618.65782228 -55.35246002 -40.61182065     6    730    0    0    0
H -652.06503211 -60.60270661 -45.65320472     6     735    0    0    0 
C -653.99005424 -60.08699328 -45.71724355     1     734    736    737    738
H -654.40037391 -59.43969348 -47.67841400     6     735    0    0    0
H -655.14092083 -61.80778339 -45.38603651     6     735    0    0    0
C -654.52763937 -58.01956427 -43.81770502     2     735    739    740    741
H -653.24275839 -56.60509729 -43.68661636     6     738    0    0    0
H -656.27358247 -57.06143322 -44.51979464     6     738    0    0    0
C -654.92782035 -59.22717914 -41.17580528     2     738    742   743   744
H -656.29837115 -60.74682699 -41.29623498     6     741    0    0    0
H -653.23301517 -60.19592631 -40.37305435     6     741    0    0    0
C -656.07292316 -57.35980707 -39.17119842     2     741   745   746   747
H -654.80306823 -55.87375928 -38.91978028     6    744    0    0    0
H -657.82355673 -56.54458872 -39.91496655     6    744    0    0    0
C -656.86993997 -58.43342936 -36.53114894     2    744   748   749   750
H -655.17559147 -58.22765448 -35.44128333     6    747    0    0    0
H -658.19254713 -57.15070372 -35.61467748     6    747    0    0    0
C -657.85241099 -61.20809724 -36.64383608     2    747   751   752   753
H -659.51386121 -61.42227750 -37.74539679     6    750    0    0    0
H -656.44513641 -62.54791732 -37.33993954     6    750    0    0    0
C -658.60764506 -62.02371225 -34.02812606     2    750   754   755   756
H -656.95704022 -61.91165420 -32.81053460     6    753    0    0    0
H -660.12884412 -60.84040956 -33.36292419     6    753    0    0    0
C -659.22684029 -64.72229590 -33.87419542     2    753   757   758   759
H -660.98891636 -65.12036677 -34.92850768     6    756    0    0    0
H -657.91049312 -66.11311482 -34.40822660     6    756    0    0    0
C -659.75442360 -65.49810413 -31.14377751     2    756   760   761   762
H -658.04111262 -65.16244412 -30.10707077     6    759    0    0    0
H -661.10340087 -64.26913203 -30.12054019     6    759    0    0    0
C -660.67303015 -68.30057339 -30.92687300     2    759   763   764   765
H -662.41461448 -68.53404048 -32.04960419     6    762    0    0    0
H -659.18008224 -69.51916963 -31.71375376     6    762    0    0    0
C -661.09383100 -69.12614326 -28.22845029     2    762   766   767   768
H -659.72605694 -68.19124181 -26.87961334     6    765    0    0    0
H -662.80935063 -68.28313584 -27.39346606     6    765    0    0    0
C -661.14842088 -72.03527684 -28.02582674     1    765   769   770   771
H -662.81170063 -72.67425478 -29.06630178     6    768    0    0    0
H -661.16454747 -72.90803744 -26.12642466     6    768    0    0    0
H -659.44103126 -72.90759181 -28.85789707     6    768    0    0    0
H -641.83390894 -44.05587746 -1.35005011     6     773    0    0    0 
C -640.31640538 -43.60912021 0.09745295     1     772    774    775    776
H -639.48143353 -41.87252577 -0.50579748     6     773    0    0    0
H -641.29651688 -43.02060714 1.75562594     6     773    0    0    0
C -638.25402568 -45.66927253 0.32264641     2     773    777    778    779
H -636.90200210 -45.37452087 1.79784105     6     776    0    0    0
H -639.02742488 -47.57427351 0.64149930     6     776    0    0    0
C -636.81811909 -46.00086710 -2.18681155     2     776    780   781   782
H -638.15134803 -46.36056980 -3.69771765     6     779    0    0    0
H -635.85466143 -44.29938072 -2.55047037     6     779    0    0    0
C -635.03793408 -48.24594298 -1.83361723     2     779   783   784   785
H -634.10321414 -47.93348239 0.02488871     6    782    0    0    0
H -636.10340899 -50.00130190 -1.32242592     6    782    0    0    0
C -633.25792793 -48.58999846 -3.98385100     2    782   786   787   788
H -634.32980263 -48.45772896 -5.82877128     6    785    0    0    0
H -631.72787828 -47.04146486 -4.14374875     6    785    0    0    0
C -631.83159108 -51.17896622 -4.04590848     2    785   789   790   791
H -630.41710656 -51.44632693 -2.48274075     6    788    0    0    0
H -633.21360103 -52.80117687 -4.01581956     6    788    0    0    0
C -630.34878444 -51.68912353 -6.52265738     2    788   792   793   794
H -631.70253587 -51.74779624 -8.04969606     6    791    0    0    0
H -629.12375062 -50.05958630 -6.62475724     6    791    0    0    0
C -629.08237188 -54.20110252 -6.77485561     2    791   795   796   797
H -628.05601021 -54.93733298 -5.09970115     6    794    0    0    0
H -630.45473173 -55.74999597 -7.19393257     6    794    0    0    0
C -627.41153321 -54.58656371 -8.96024672     2    794   798   799   800
H -628.64599794 -54.92025425 -10.48564917     6    797    0    0    0
H -626.42557478 -52.87006538 -9.50300445     6    797    0    0    0
C -625.53489483 -56.87187360 -8.89201535     2    797   801   802   803
H -624.09592178 -56.53130708 -7.59854503     6    800    0    0    0
H -626.71328049 -58.54425041 -8.36006648     6    800    0    0    0
C -624.29877935 -57.88022865 -11.36197663     2    800   804   805   806
H -625.65514103 -58.41768272 -12.87055777     6    803    0    0    0
H -622.79694753 -56.64061569 -11.88883859     6    803    0    0    0
C -622.81212290 -60.25385913 -10.89665334     1    803   807   808   809
H -621.94210153 -61.16076973 -12.47566441     6    806    0    0    0
H -624.01269672 -61.68561790 -10.06594781     6    806    0    0    0
H -621.15408855 -60.04823690 -9.58424101     6    806    0    0    0
H -657.30378308 -48.75468399 -26.70503061     6     811    0    0    0 
C -656.93179141 -46.97095694 -25.75822256     1     810    812    813    814
H -655.59130732 -45.57407017 -26.55603560     6     811    0    0    0
H -658.76131208 -46.23959761 -25.67358794     6     811    0    0    0
C -656.11778444 -47.61065220 -23.11021755     2     811    815    816    817
H -654.18416597 -48.23074339 -23.40987460     6     814    0    0    0
H -656.20759995 -45.80691672 -21.94291990     6     814    0    0    0
C -657.67224212 -49.75511870 -21.72233380     2     814    818   819   820
H -659.59402816 -49.04915254 -21.57222453     6     817    0    0    0
H -657.58291896 -51.36266846 -22.98654183     6     817    0    0    0
C -656.66396803 -50.57618465 -19.10378630     2     817   821   822   823
H -654.64918040 -51.08401173 -19.36656575     6    820    0    0    0
H -656.86680366 -49.05956588 -17.85824786     6    820    0    0    0
C -657.82463523 -53.09195175 -18.26695731     2    820   824   825   826
H -659.81266392 -52.87002085 -17.93561956     6    823    0    0    0
H -657.88389241 -54.38236504 -19.95090221     6    823    0    0    0
C -656.47354029 -54.36728569 -15.93830122     2    823   827   828   829
H -654.72894783 -54.93446565 -16.75035629     6    826    0    0    0
H -656.25087797 -52.82996387 -14.47768755     6    826    0    0    0
C -657.89712538 -56.59269446 -14.83820314     2    826   830   831   832
H -659.83791351 -56.20491661 -14.36638871     6    829    0    0    0
H -657.94281535 -58.14468366 -16.19548723     6    829    0    0    0
C -656.95485918 -57.67765749 -12.51443895     2    829   833   834   835
H -655.02967022 -58.48926261 -12.90533663     6    832    0    0    0
H -656.74890839 -56.04600775 -11.19567051     6    832    0    0    0
C -658.53452020 -59.78986827 -11.13745769     2    832   836   837   838
H -660.40062523 -59.14877356 -10.63429464     6    835    0    0    0
H -658.58895489 -61.51101917 -12.40440499     6    835    0    0    0
C -657.11358873 -60.86706760 -8.78903030     2    835   839   840   841
H -655.23373462 -61.84993772 -9.21344578     6    838    0    0    0
H -656.62328995 -59.31897917 -7.59511398     6    838    0    0    0
C -658.96747319 -62.44759589 -7.04416108     2    838   842   843   844
H -660.13342534 -60.84000734 -6.33802321     6    841    0    0    0
H -660.15578033 -63.71127892 -8.17079852     6    841    0    0    0
C -657.44464752 -63.86439419 -5.02484279     1    841   845   846   847
H -656.18078937 -65.23377171 -6.00345679     6    844    0    0    0
H -658.59994124 -64.89125930 -3.76874415     6    844    0    0    0
H -656.41659847 -62.66551051 -3.74677623     6    844    0    0    0
H -638.84281701 -25.29735115 -45.91086936     6     849    0    0    0 
C -638.86277070 -23.20545357 -45.90425460     1     848    850    851    852
H -637.71822242 -22.58511945 -47.49500911     6     849    0    0    0
H -640.81084023 -22.43895536 -46.16194921     6     849    0    0    0
C -637.65697529 -21.98831163 -43.54607244     2     849    853    854    855
H -635.79294407 -22.31980347 -43.56368045     6     852    0    0    0
H -638.03110152 -19.93831096 -43.75967807     6     852    0    0    0
C -638.89442925 -22.97051311 -41.14263509     2     852    856   857   858
H -640.93986594 -22.81312822 -41.61286896     6     855    0    0    0
H -638.04895752 -24.85272590 -41.13650771     6     855    0    0    0
C -638.02854934 -21.32095194 -38.85270564     2     855   859   860   861
H -636.13118133 -22.04562883 -38.22779744     6    858    0    0    0
H -637.61705042 -19.41191193 -39.62932119     6    858    0    0    0
C -640.04703484 -21.61905495 -36.77420351     2    858   862   863   864
H -639.37746155 -20.80105380 -34.99738035     6    861    0    0    0
H -641.67316311 -20.50262742 -37.20974331     6    861    0    0    0
C -640.93581863 -24.28580360 -36.05197721     2    861   865   866   867
H -641.46834996 -25.25069216 -37.70395446     6    864    0    0    0
H -639.09904362 -25.23356687 -35.53623198     6    864    0    0    0
C -642.88865128 -24.37033366 -34.01958055     2    864   868   869   870
H -642.16097370 -23.38514099 -32.56021013     6    867    0    0    0
H -644.58155907 -23.48053149 -34.68953625     6    867    0    0    0
C -643.77379173 -27.01131083 -33.29581170     2    867   871   872   873
H -644.35223533 -27.97996267 -34.92684756     6    870    0    0    0
H -642.10170383 -27.85721306 -32.83598403     6    870    0    0    0
C -645.71959215 -27.43647884 -31.15372083     2    870   874   875   876
H -645.63702869 -29.42063586 -30.56611543     6    873    0    0    0
H -645.02683759 -26.46658726 -29.37336690     6    873    0    0    0
C -648.50408253 -26.48162157 -31.44683992     2    873   877   878   879
H -648.40348329 -24.53631524 -31.88874570     6    876    0    0    0
H -649.16494137 -27.45018474 -33.04251459     6    876    0    0    0
C -650.06314871 -26.95419333 -29.10111104     2    876   880   881   882
H -649.99300189 -29.01475106 -29.03053471     6    879    0    0    0
H -649.19402101 -26.22106829 -27.36293404     6    879    0    0    0
C -652.89676465 -26.12464310 -29.27916337     1    879   883   884   885
H -653.87084454 -27.14599188 -30.74661470     6    882    0    0    0
H -653.37722855 -24.18104040 -29.58591846     6    882    0    0    0
H -653.70122520 -26.47529045 -27.45820749     6    882    0    0    0
H -651.54272614 -49.95070374 -15.33275864     6     887    0    0    0 
C -650.37234876 -48.48403604 -15.21092640     1     886    888    889    890
H -651.54331786 -46.75965918 -15.25400016     6     887    0    0    0
H -649.54840129 -48.72435588 -13.34334379     6     887    0    0    0
C -648.37853058 -48.66321671 -17.31690236     2     887    891    892    893
H -646.92177307 -47.32826766 -16.98636381     6     890    0    0    0
H -647.64810746 -50.56802188 -17.08138634     6     890    0    0    0
C -649.26100447 -48.41753163 -19.88284849     2     890    894   895   896
H -650.48561422 -50.03559202 -20.44395676     6     893    0    0    0
H -650.22386785 -46.65127391 -20.02091408     6     893    0    0    0
C -646.99917007 -48.27494596 -21.75487653     2     893   897   898   899
H -645.62318872 -46.86189629 -20.96717794     6    896    0    0    0
H -645.84050387 -50.04349467 -21.68104679     6    896    0    0    0
C -648.03868697 -47.70770461 -24.45075237     2    896   900   901   902
H -649.48779171 -49.06471410 -24.89493600     6    899    0    0    0
H -648.82155466 -45.87670851 -24.60544133     6    899    0    0    0
C -646.09109371 -47.99687016 -26.72184269     2    899   903   904   905
H -644.14613626 -47.17493874 -26.46140692     6    902    0    0    0
H -645.79246107 -50.11013606 -26.91543881     6    902    0    0    0
C -647.14131714 -46.73854037 -29.24041726     2    902   906   907   908
H -648.99018992 -47.61378606 -29.93223517     6    905    0    0    0
H -647.72058917 -44.89768122 -28.67695718     6    905    0    0    0
C -645.33083444 -46.82425865 -31.49752739     2    905   909   910   911
H -643.53288234 -45.84199194 -30.96340624     6    908    0    0    0
H -644.73882022 -48.86442653 -31.46204023     6    908    0    0    0
C -646.53225231 -45.93701447 -33.95285169     2    908   912   913   914
H -647.98190353 -47.38968021 -34.60135059     6    911    0    0    0
H -647.71347187 -44.29182398 -33.83013796     6    911    0    0    0
C -644.54131954 -45.23211047 -36.07658355     2    911   915   916   917
H -643.18548092 -44.04980049 -35.13970653     6    914    0    0    0
H -643.14160576 -46.60481093 -36.37682578     6    914    0    0    0
C -645.67885177 -44.51683230 -38.63452466     2    914   918   919   920
H -645.75744071 -46.41875319 -39.55906136     6    917    0    0    0
H -647.53438036 -43.67646677 -38.58025902     6    917    0    0    0
C -643.85125488 -42.59485131 -39.84623905     1    917   921   922   923
H -641.83767733 -42.95026185 -39.59481657     6    920    0    0    0
H -644.29816351 -40.53714618 -39.31844498     6    920    0    0    0
H -643.96862339 -42.68928850 -41.95640192     6    920    0    0    0
H -645.49865029 -26.65346243 -18.87799717     6     925    0    0    0 
C -646.10356705 -27.51767100 -17.06812148     1     924    926    927    928
H -644.56522381 -27.54434186 -15.83257949     6     925    0    0    0
H -647.17548008 -26.10136060 -16.13527047     6     925    0    0    0
C -647.62304489 -30.04444573 -17.61477572     2     925    929    930    931
H -646.45858048 -31.67676599 -18.02958285     6     928    0    0    0
H -648.43446657 -30.70397370 -15.77847211     6     928    0    0    0
C -649.73413849 -29.72283364 -19.30671528     2     928    932   933   934
H -650.59557404 -28.08387079 -18.57121767     6     931    0    0    0
H -649.13877236 -29.28918115 -21.16784845     6     931    0    0    0
C -651.52185983 -31.94683064 -19.87465557     2     931   935   936   937
H -650.37671104 -33.38178605 -21.05777515     6    934    0    0    0
H -652.32406641 -32.38210568 -17.95628948     6    934    0    0    0
C -653.76836648 -31.11756425 -21.54527855     2    934   938   939   940
H -654.93041187 -30.07303619 -20.25257743     6    937    0    0    0
H -653.22663697 -30.09416790 -23.17085418     6    937    0    0    0
C -655.21631247 -33.39665691 -22.30067688     2    937   941   942   943
H -653.83156407 -34.69357317 -22.81999369     6    940    0    0    0
H -656.24069984 -34.24172468 -20.78336095     6    940    0    0    0
C -656.59454213 -32.92997263 -24.86250369     2    940   944   945   946
H -655.20223545 -32.45579093 -26.26318663     6    943    0    0    0
H -657.43246214 -34.71951915 -25.47502897     6    943    0    0    0
C -658.50636488 -30.68680679 -25.08087293     2    943   947   948   949
H -660.13189543 -31.11970395 -23.85692125     6    946    0    0    0
H -657.63000260 -28.85708114 -24.63395925     6    946    0    0    0
C -659.48961887 -30.45019849 -27.79347855     2    946   950   951   952
H -657.94003917 -30.69396817 -29.10738092     6    949    0    0    0
H -660.73411716 -32.07304892 -28.21226722     6    949    0    0    0
C -661.02062614 -28.00208192 -28.32488390     2    949   953   954   955
H -662.56918996 -27.96187442 -26.83934687     6    952    0    0    0
H -659.82252589 -26.45608460 -27.74580612     6    952    0    0    0
C -661.64776431 -27.81463652 -31.12735031     2    952   956   957   958
H -660.04462814 -28.03104427 -32.33909334     6    955    0    0    0
H -663.02597159 -29.40314112 -31.52820338     6    955    0    0    0
C -663.21773845 -25.34799866 -31.66488584     1    955   959   960   961
H -663.69496935 -25.26210162 -33.57154500     6    958    0    0    0
H -662.19386883 -23.62959935 -31.09635381     6    958    0    0    0
H -664.98914194 -25.93441129 -30.67376201     6    958    0    0    0
H -646.49929316 -65.91903445 -28.50287349     6     963    0    0    0 
C -645.67626064 -64.25628102 -27.78788662     1     962    964    965    966
H -645.80907081 -62.75227949 -29.08265080     6     963    0    0    0
H -646.68142776 -63.71475480 -26.10329123     6     963    0    0    0
C -642.94283799 -64.90031857 -27.06248142     2     963    967    968    969
H -641.95329270 -63.27591490 -26.29526011     6     966    0    0    0
H -642.88778437 -66.39437757 -25.49308915     6     966    0    0    0
C -641.08846356 -65.69282813 -29.18817241     2     966    970   971   972
H -641.55105756 -67.40556687 -30.00478769     6     969    0    0    0
H -641.37042919 -64.05990623 -30.51566322     6     969    0    0    0
C -638.34205735 -65.84720814 -28.17253100     2     969   973   974   975
H -637.65576025 -64.09833365 -27.73110975     6    972    0    0    0
H -638.06493657 -67.17326177 -26.73419686     6    972    0    0    0
C -636.46388724 -66.50388403 -30.44036488     2    972   976   977   978
H -636.81552484 -68.49022825 -31.05373079     6    975    0    0    0
H -636.69997705 -65.30831781 -32.06023413     6    975    0    0    0
C -633.76709901 -66.67403758 -29.44029416     2    975   979   980   981
H -633.02531467 -64.85762693 -28.67183597     6    978    0    0    0
H -633.80778103 -67.83953170 -27.86231039     6    978    0    0    0
C -631.86731869 -67.70967894 -31.43585253     2    978   982   983   984
H -632.85415544 -69.23608943 -32.48148389     6    981    0    0    0
H -631.23851235 -66.15288563 -32.55114852     6    981    0    0    0
C -629.34586985 -68.64368418 -30.29255210     2    981   985   986   987
H -628.54040614 -67.21780397 -29.03722173     6    984    0    0    0
H -629.64412023 -70.29401973 -29.09977805     6    984    0    0    0
C -627.36265761 -69.42001218 -32.38198616     2    984   988   989   990
H -625.97533864 -70.67888302 -31.52316918     6    987    0    0    0
H -628.41262289 -70.55227546 -33.81295005     6    987    0    0    0
C -625.72603415 -67.27639104 -33.50610023     2    987   991   992   993
H -626.88065991 -65.63209497 -34.24624038     6    990    0    0    0
H -624.65668807 -66.58128965 -31.89935778     6    990    0    0    0
C -623.53273472 -68.25266937 -35.17297212     2    990   994   995   996
H -622.63618493 -69.75627536 -34.11023078     6    993    0    0    0
H -624.31530997 -69.31089691 -36.81407128     6    993    0    0    0
C -621.71038425 -66.10493504 -36.05908835     1    993   997   998   999
H -622.92091645 -64.59266063 -36.84543482     6    996    0    0    0
H -620.17273135 -66.79422771 -37.40000601     6    996    0    0    0
H -620.74749905 -65.53007210 -34.39376557     6    996    0    0    0
H -652.66761878 -69.24602125 -22.42743894     6     1001    0    0    0 
C -652.83686109 -70.10078644 -24.23974325     1     1000    1002    1003    1004
H -654.02015616 -71.81331745 -24.25076183     6     1001    0    0    0
H -653.93452498 -68.87174942 -25.67104855     6     1001    0    0    0
C -650.06181153 -70.49353661 -24.91966170     2     1001    1005    1006    1007
H -648.99125915 -68.71088169 -24.48705224     6     1004    0    0    0
H -649.02755546 -71.99909799 -23.99946679     6     1004    0    0    0
C -649.88156011 -70.91386650 -27.75538348     2     1004    1008   1009   1010
H -651.19976090 -72.43210110 -28.04974070     6     1007    0    0    0
H -650.52240286 -69.11669843 -28.52305402     6     1007    0    0    0
C -647.24468546 -71.68660555 -28.69825569     2     1007   1011   1012   1013
H -645.89764973 -70.29666273 -28.04296974     6    1010    0    0    0
H -646.78224446 -73.56364063 -28.09836482     6    1010    0    0    0
C -647.41729722 -71.80591997 -31.53216456     2    1010   1014   1015   1016
H -648.82264418 -73.22592438 -31.98135362     6    1013    0    0    0
H -647.55775539 -69.84024667 -32.17295007     6    1013    0    0    0
C -644.98586646 -72.86176570 -32.58716809     2    1013   1017   1018   1019
H -643.52056701 -71.36899851 -32.40847039     6    1016    0    0    0
H -644.34508800 -74.47370229 -31.47987623     6    1016    0    0    0
C -645.22218221 -73.71238415 -35.34944929     2    1016   1020   1021   1022
H -645.76524071 -75.65197726 -35.29784348     6    1019    0    0    0
H -646.70538097 -72.74376289 -36.38583649     6    1019    0    0    0
C -642.74620786 -73.26158299 -36.75673271     2    1019   1023   1024   1025
H -641.22050477 -74.14799001 -35.65701746     6    1022    0    0    0
H -642.97646504 -74.32667089 -38.41122694     6    1022    0    0    0
C -641.97825818 -70.45029174 -37.21967290     2    1022   1026   1027   1028
H -643.04400757 -69.92977933 -38.91806183     6    1025    0    0    0
H -643.11487755 -69.18714675 -36.13988176     6    1025    0    0    0
C -639.18426531 -70.07433550 -37.36814599     2    1025   1029   1030   1031
H -638.20596574 -70.35737979 -35.53839589     6    1028    0    0    0
H -638.31766521 -71.20972532 -38.87732125     6    1028    0    0    0
C -638.48301903 -67.32937935 -38.08755911     2    1028   1032   1033   1034
H -640.09303884 -66.42538572 -39.03624353     6    1031    0    0    0
H -638.14370419 -66.11006429 -36.39134454     6    1031    0    0    0
C -636.48958060 -67.02324025 -40.12054079     1    1031   1035   1036   1037
H -634.61786742 -67.35643187 -39.31378280     6    1034    0    0    0
H -636.78973778 -64.99785236 -40.61838039     6    1034    0    0    0
H -636.80808698 -68.13056717 -41.81519864     6    1034    0    0    0
H -639.68221414 -54.62613066 -3.33944850     6     1039    0    0    0 
C -641.54749747 -54.15848989 -3.86019044     1     1038    1040    1041    1042
H -641.48678327 -52.89002555 -5.56280029     6     1039    0    0    0
H -642.67900008 -55.79513155 -4.09129993     6     1039    0    0    0
C -642.47728050 -52.56739662 -1.66993299     2     1039    1043    1044    1045
H -642.00114095 -53.34624563 0.18259263     6     1042    0    0    0
[...]
 1619      H    -621.6744439200   -46.0031683400   -12.1449536700
 1620      H    -620.5248884900   -44.8133264400    -9.2147196900
 1621      C    -621.1105558000   -48.9684712800    -9.3388293800
 1622      H    -621.5475281100   -49.3161158200    -7.3458843100
 1623      H    -622.5076414700   -50.0991642100   -10.3996499900
 1624      C    -618.4574892900   -49.7579642700    -9.8523885600
 1625      H    -618.0442259400   -49.5879085700   -11.8033908000
 1626      H    -617.1454528800   -48.5586733600    -8.8547494000
 1627      C    -618.2599529400   -52.4553316100    -8.9010497900
 1628      H    -618.5581278400   -52.5019653400    -6.8309080600
 1629      H    -619.8542181600   -53.7194627700    -9.7003440500
 1630      C    -615.7158727000   -53.7402549200    -9.5103684200
 1631      H    -615.0841001300   -53.4758725100   -11.4092255200
 1632      H    -614.2139152600   -52.9738679700    -8.4596790800
 1633      C    -615.8330936700   -56.5864354500    -9.1745448000
 1634      H    -616.4569987500   -57.1869452800    -7.3096086100
 1635      H    -617.4203012700   -57.3440442000   -10.3535913800
 1636      C    -613.3490342000   -57.9519968500    -9.8519389300
 1637      H    -612.9941639900   -57.6668068700   -11.7657753400
 1638      H    -611.7307139500   -57.0988809700    -8.8398124100
 1639      C    -613.7648985600   -60.6145678600    -9.7622383100
 1640      H    -614.8251821600   -61.0183878600    -7.9972014200
 1641      H    -614.9559233600   -61.1744613800   -11.3582078100
 1642      C    -611.4413072000   -62.1213077000    -9.6756550700
 1643      H    -610.0406047600   -61.7740791200   -11.1499819400
 1644      H    -611.9881091200   -63.9966108500    -9.9145901800
 1645      H    -610.5933274400   -62.1328411800    -7.9190171800
 1646      H    -643.3306267300   -76.9966313700     3.2834130400
 1647      C    -644.7815437300   -75.7127712900     3.9650485100
 1648      H    -646.6195563200   -75.9966371000     3.0238981800
 1649      H    -645.1652792500   -76.1262174200     5.9181739300
 1650      C    -643.7777083300   -72.8945431100     4.0036629500
 1651      H    -645.0741683500   -71.7672422900     4.8182921400
 1652      H    -642.1784395100   -72.7558216800     5.3057744800
 1653      C    -643.0621128000   -72.0806494400     1.1546947200
 1654      H    -644.5064342300   -72.7886089200    -0.0380155300
 1655      H    -643.0180626700   -69.9748320800     0.8251895400
 1656      C    -640.3682407200   -73.0669684300     0.5095999300
 1657      H    -639.0121384600   -72.1005810000     1.8029294500
 1658      H    -639.9900746900   -75.0297472100     0.8528429200
 1659      C    -639.4832906500   -72.1482644700    -2.1411024100
 1660      H    -640.4090149700   -73.2807433700    -3.6579266800
 1661      H    -639.9911133100   -70.2040483400    -2.3480973000
 1662      C    -636.6909139400   -72.5074201600    -2.8181554700
 1663      H    -635.6959269000   -71.4452098700    -1.4276562600
 1664      H    -636.1487646900   -74.4921768700    -2.6167979900
 1665      C    -635.8943946300   -71.3629297500    -5.2874703400
 1666      H    -636.9596003700   -72.1004641200    -6.8425377200
 1667      H    -636.0927544800   -69.3060331000    -4.9792140200
 1668      C    -633.1378704700   -71.9990668800    -5.9954020000
 1669      H    -631.8967085300   -70.7296996200    -5.0669211300
 1670      H    -632.7543975100   -73.8385238600    -5.2825011200
 1671      C    -632.5670540900   -71.9576212100    -8.9281900000
 1672      H    -633.6224282900   -73.6007820000    -9.6150343700
 1673      H    -633.3541538800   -70.2664990000    -9.8478737800
 1674      C    -629.7491130500   -71.9680812900    -9.6256051900
 1675      H    -628.8871599000   -70.1500561400    -9.3012201000
 1676      H    -628.5155576900   -73.2598153500    -8.4286269300
 1677      C    -629.3257425500   -72.5760601700   -12.4583725600
 1678      H    -630.8428727200   -74.1132032700   -12.7723756200
 1679      H    -629.9947107500   -70.9632908100   -13.5726386000
 1680      C    -626.6442479700   -73.6230247100   -13.1761621800
 1681      H    -626.4740409100   -74.0857500900   -15.1956964700
 1682      H    -626.3737577700   -75.6335185000   -12.5065761400
 1683      H    -625.2596560400   -72.3722415000   -12.3519878800
 1684      H    -646.2477180700   -76.8079501300   -20.2164478800
 1685      C    -645.0730185700   -75.3802520600   -21.0492074700
 1686      H    -643.0517619600   -75.9256612700   -21.1814839500
 1687      H    -646.1709429800   -75.0724276800   -22.7666376900
 1688      C    -645.2065768200   -73.0190394900   -19.2702039800
 1689      H    -647.0654721400   -72.3827605300   -19.3564650800
 1690      H    -644.8693061400   -73.5445837300   -17.2256085000
 1691      C    -643.4070165700   -70.9079332200   -19.8571658600
 1692      H    -641.4648458900   -71.5317962100   -19.4966907500
 1693      H    -643.5446345600   -70.3833542200   -21.8446695500
 1694      C    -643.6422509900   -68.5173917400   -18.0890910600
 1695      H    -645.5552188400   -67.9785778200   -17.8267776300
 1696      H    -642.6631039900   -68.9032486000   -16.3598843200
 1697      C    -642.2591281500   -66.2125481200   -19.3111946500
 1698      H    -640.3589647800   -66.8178467600   -19.6759103400
 1699      H    -643.3522002000   -65.8288511600   -20.9685375900
 1700      C    -642.1675658300   -64.0346581100   -17.3882610400
 1701      H    -644.0656996200   -63.5848920700   -16.9303047200
 1702      H    -641.3084293200   -64.7556172300   -15.7063759600
 1703      C    -640.7419327100   -61.6364994000   -18.4423008300
 1704      H    -638.7066214900   -61.9336111800   -18.7517376800
 1705      H    -641.3739927800   -61.0434139500   -20.2401754700
 1706      C    -640.9826663100   -59.2773177100   -16.6135432000
 1707      H    -640.3726527400   -57.6819181100   -17.7228408100
 1708      H    -642.8894367400   -59.0620351100   -15.9646139100
 1709      C    -639.1192309500   -59.4284168000   -14.3953087700
 1710      H    -639.4445741800   -61.2041861900   -13.4508492400
 1711      H    -637.2660863000   -59.4763206700   -15.2483527700
 1712      C    -639.5836451000   -57.2499479900   -12.4287001900
 1713      H    -639.4321666200   -55.6103565800   -13.4146405100
 1714      H    -641.6703729500   -57.4850119400   -12.0358826700
 1715      C    -638.1737990400   -57.1695658300    -9.8755358900
 1716      H    -638.5560162800   -55.3568659400    -8.9281395900
 1717      H    -639.0829107800   -58.5537484300    -8.6503141100
 1718      C    -635.4152609100   -57.6719389500   -10.3247501000
 1719      H    -634.7678757800   -56.1912412300   -11.7838363300
 1720      H    -635.4422133500   -59.4283628100   -11.4113942900
 1721      H    -634.2745223700   -57.9708374100    -8.5649882300
 1722      H    -625.9349604600   -71.6391432300   -41.3286838000
 1723      C    -625.8611021600   -70.3416549400   -42.9018232900
 1724      H    -623.9391978600   -69.4176614900   -43.0006369100
 1725      H    -625.9625726100   -71.4867988600   -44.7497747000
 1726      C    -627.9401519600   -68.3193246200   -42.7928583700
 1727      H    -627.8650383700   -67.3875454900   -44.5459591600
 1728      H    -629.8850385300   -68.9111292700   -42.6341762000
 1729      C    -627.4010707600   -66.3976190700   -40.6565540500
 1730      H    -627.6330289800   -67.2909288600   -38.7779525300
 1731      H    -625.4296736300   -65.9398874500   -40.7969584000
 1732      C    -629.2179521600   -64.1717572900   -41.0146264200
 1733      H    -629.4978482700   -63.5188534700   -42.8177725300
 1734      H    -631.0352112900   -64.9988663100   -40.4701145300
 1735      C    -628.6441734200   -61.8627310200   -39.4644096200
 1736      H    -628.1928447200   -62.2776532600   -37.4109744000
 1737      H    -626.9163814800   -61.1561674000   -40.3703329600
 1738      C    -630.6010599300   -59.8047634600   -39.6417751900
 1739      H    -631.0660674900   -59.0809149100   -41.5039226200
 1740      H    -632.4722899600   -60.5091776400   -39.0583546500
 1741      C    -629.9322946500   -57.6539161700   -37.9169078700
 1742      H    -629.5332271600   -58.2490818400   -35.9167411900
 1743      H    -628.2238415600   -56.7988456100   -38.5948477100
 1744      C    -631.8105024500   -55.4048944700   -37.7371962100
 1745      H    -630.8105807700   -53.7877491200   -36.7789567100
 1746      H    -632.2583651600   -54.7219199200   -39.6517342600
 1747      C    -633.9347387100   -56.1049365100   -35.9220739400
 1748      H    -634.6445368900   -57.8406326700   -36.8698583700
 1749      H    -633.3111074600   -56.6718447500   -34.0611115700
 1750      C    -636.1465714200   -54.1289303700   -35.7314704600
 1751      H    -635.3263456500   -52.3101993900   -35.1940515900
 1752      H    -636.9118838300   -53.9561658300   -37.6224992000
 1753      C    -638.2712925900   -55.0438032200   -33.7711043900
 1754      H    -639.6899347400   -56.2803558400   -34.7026034500
 1755      H    -637.4460999000   -56.0187693700   -32.1578922700
 1756      C    -639.9471913000   -52.7606858000   -32.4069329800
 1757      H    -640.8976285100   -51.9946968900   -34.1329001500
 1758      H    -638.7295854100   -51.3654810800   -31.5303489800
 1759      H    -641.3709251100   -53.3411199500   -31.0571581500
 1760      H    -627.6999898000   -50.3996040000   -52.0592007800
 1761      C    -627.9605091400   -52.2502473300   -51.0602880100
 1762      H    -628.4588965600   -51.9979813600   -49.1043311100
 1763      H    -629.6546314800   -53.0251739900   -52.0172341800
 1764      C    -625.9834072000   -54.3220033700   -51.3975910600
 1765      H    -625.1767622800   -54.2949883500   -53.3097910300
 1766      H    -624.2700077400   -53.7473361800   -50.2001139700
 1767      C    -627.0133099600   -56.8642264600   -50.5803325500
 1768      H    -627.3772469400   -56.5816130800   -48.5566674000
 1769      H    -628.6573632200   -57.3741418000   -51.5314855400
 1770      C    -625.0927965800   -58.9969806700   -51.1038026700
 1771      H    -624.6789906900   -59.0087886800   -53.1374567100
 1772      H    -623.4202016400   -58.1631772400   -50.2718888700
 1773      C    -625.6072970000   -61.5450687500   -49.7695995900
 1774      H    -625.5393303900   -61.0633963800   -47.7851610700
 1775      H    -627.4989036700   -62.1620595200   -50.0594115800
 1776      C    -623.5157578700   -63.5381468900   -50.2411525200
 1777      H    -623.3939074500   -64.0358081100   -52.2140382100
 1778      H    -621.7832186500   -62.5193241800   -50.0243405500
 1779      C    -623.5444367600   -65.9504705900   -48.6320144500
 1780      H    -623.8782230700   -65.6084990300   -46.6273035700
 1781      H    -625.1007474700   -66.9992663800   -49.2480881000
 1782      C    -621.2817492900   -67.7907399100   -48.8611592300
 1783      H    -619.5157803200   -66.8464865400   -48.2941721500
 1784      H    -621.7235220500   -69.1976060100   -47.4023041900
 1785      C    -621.0319950800   -69.3210982300   -51.3389247800
 1786      H    -622.8141884100   -70.3361841500   -51.6174196700
 1787      H    -620.8468602300   -68.0503720500   -52.7638876700
 1788      C    -618.7173040300   -71.1720818700   -51.0704325300
 1789      H    -616.8536733600   -70.0957569500   -51.3305748400
 1790      H    -618.5106834600   -72.0655417500   -49.2646038200
 1791      C    -618.6778848600   -72.9366684300   -53.2873251300
 1792      H    -619.3923373500   -72.4130259000   -55.0928908600
 1793      H    -616.6909623000   -73.2539078300   -53.9216814400
 1794      C    -620.0957303200   -75.2876241400   -52.5822114900
 1795      H    -622.0635276300   -74.9116330600   -52.3065937000
 1796      H    -619.2151006200   -76.2055943500   -51.0170470000
 1797      H    -619.8484444000   -76.5251643700   -54.1923300800
 1798      H    -627.6567344000   -27.5397237400   -10.2154373700
 1799      C    -629.3460428400   -26.4141803300   -10.3219308800
 1800      H    -630.0863717600   -26.4224532400    -8.4440760600
 1801      H    -628.6918183400   -24.4316816400   -10.8445679400
 1802      C    -631.3484172800   -27.3581707600   -12.2493417000
 1803      H    -630.7419948500   -27.1308581100   -14.1444867800
 1804      H    -631.7795269600   -29.2591763400   -12.0141728300
 1805      C    -633.8471929100   -25.9128714200   -12.0017584900
 1806      H    -634.5197117800   -25.9803293400   -10.1673987400
 1807      H    -633.4727416300   -24.0047341400   -12.6074502100
 1808      C    -635.8202379200   -27.1553713700   -13.5541414000
 1809      H    -637.3737050500   -25.7666852100   -13.9723734500
 1810      H    -635.0691065500   -27.7899150100   -15.4270413000
 1811      C    -637.3066505700   -29.2864889300   -12.1473176200
 1812      H    -635.9981760100   -30.7527417600   -11.3243556900
 1813      H    -638.0942172700   -28.3870002000   -10.4347166600
 1814      C    -639.0694319700   -30.6444150300   -13.8741821200
 1815      H    -640.7494519800   -29.4783043500   -14.0611738000
 1816      H    -638.1534345300   -31.0596864600   -15.7159535300
 1817      C    -639.9588839400   -33.2829018000   -12.8391625000
 1818      H    -638.6106032600   -34.7651388600   -12.9369298400
 1819      H    -640.7674805000   -33.1517505300   -10.9468623600
 1820      C    -642.0223840800   -34.1883062100   -14.6677797100
 1821      H    -643.3437824000   -32.5680883300   -14.9614250000
 1822      H    -641.0503981900   -34.3160742900   -16.5976879700
 1823      C    -643.2544921100   -36.8817844000   -14.1937728000
 1824      H    -641.7381886000   -38.2392620700   -14.2496129600
 1825      H    -644.1658311800   -37.0587984300   -12.3764906400
 1826      C    -645.0217704700   -37.4245616000   -16.4145848000
 1827      H    -646.8050347700   -36.4571193900   -16.0414524000
 1828      H    -644.1499971100   -36.6360917600   -18.2013784100
 1829      C    -645.5962977300   -40.2221223300   -16.4873008500
 1830      H    -644.0960075800   -41.6797679300   -16.5443974300
 1831      H    -646.6688216300   -40.7999414100   -14.7971566500
 1832      C    -647.4056127900   -40.6994857100   -18.6945480900
 1833      H    -648.0693323200   -42.4964748800   -18.5047300300
 1834      H    -646.3023442600   -40.6460772900   -20.4291445100
 1835      H    -648.7364026500   -39.1964288700   -18.7243901100
 1836      H    -642.7368186100   -42.6849551700   -25.4310440100
 1837      C    -641.0370824700   -41.9099337900   -26.3384443700
 1838      H    -639.3172190600   -41.9650127500   -25.2642488100
 1839      H    -640.7770954700   -42.7654572000   -28.1837943300
 1840      C    -641.4181669600   -39.0246762700   -26.5346711200
 1841      H    -639.5942069500   -38.1086538400   -26.8093362200
 1842      H    -642.5134015800   -38.3980753100   -28.1225391400
 1843      C    -642.3684825900   -37.9531335600   -24.1414803900
 1844      H    -643.7911422500   -39.2735738900   -23.3817888300
 1845      H    -640.9913331800   -37.9374756400   -22.6092359600
 1846      C    -643.6779564900   -35.3478713100   -24.1034831200
 1847      H    -645.1788103400   -35.1944116900   -25.5469612100
 1848      H    -644.5951341500   -35.1844277800   -22.2376584200
 1849      C    -641.9327551000   -33.1400727200   -24.3779551100
 1850      H    -640.7238339900   -33.3092908200   -22.9571715900
 1851      H    -640.8547994100   -33.3336162100   -26.1012561600
 1852      C    -643.0125573900   -30.4745954500   -23.8977278100
 1853      H    -644.7189810800   -30.1648224800   -25.0752620600
 1854      H    -643.4194437400   -30.3499723800   -21.8811859200
 1855      C    -641.1836358200   -28.4313991900   -24.8464011400
 1856      H    -639.3502688300   -28.4834608700   -23.9291636100
 1857      H    -640.4759658700   -28.7944987700   -26.8427243100
 1858      C    -642.1569509800   -25.7343809100   -24.6749604200
 1859      H    -644.0903486800   -25.6912775700   -25.2802194000
 1860      H    -642.0284516400   -25.4163444100   -22.5976628000
 1861      C    -640.8478574400   -23.7753027400   -26.2586543900
 1862      H    -638.8451548000   -23.8273017900   -25.5315613800
 1863      H    -640.6478797600   -24.5906383700   -28.0622401600
 1864      C    -642.2106815900   -21.2819304400   -26.6150755800
 1865      H    -644.0067836500   -21.6116208600   -27.4784268400
 1866      H    -642.6157656400   -20.4601279300   -24.7218433300
 1867      C    -640.6476547300   -19.1765714500   -28.1143244500
 1868      H    -639.0336279200   -18.4559402700   -27.0055794700
 1869      H    -639.7527382300   -19.9137783000   -29.8297064700
 1870      C    -642.3040177500   -16.9554806200   -29.0782308300
 1871      H    -641.1210306100   -15.8782279100   -30.3392953400
 1872      H    -642.6789880200   -15.6842491900   -27.5414632100
 1873      H    -644.0427475600   -17.5293796700   -29.8955650400
 1874      H    -619.4809766400   -41.5568817900   -24.7066027800
 1875      C    -619.8491933300   -41.9544930500   -26.5856705800
 1876      H    -620.3067504200   -40.3537453600   -27.6346880200
 1877      H    -618.1138986800   -42.4813993900   -27.5077090700
 1878      C    -621.9179567100   -43.9621218400   -26.8141024000
 1879      H    -623.7403778900   -43.2068049100   -26.2186416400
 1880      H    -621.9109457100   -44.4930443200   -28.7562344500
 1881      C    -621.4827322200   -46.3972379000   -25.2421167700
 1882      H    -619.4903110500   -46.6553871500   -25.1966388400
 1883      H    -621.6934833500   -45.9595278300   -23.2286661300
 1884      C    -622.7148092800   -48.8367000300   -26.1046500300
 1885      H    -624.7606998400   -48.6361047500   -25.7844238100
 1886      H    -622.5436783300   -49.3120160700   -28.1926896600
 1887      C    -621.7465187500   -51.2422070300   -24.8379935800
 1888      H    -619.6754465100   -51.4655425200   -24.9616270600
 1889      H    -622.3777789700   -50.9692010300   -22.8937281400
 1890      C    -622.9821441100   -53.5518081100   -25.9626890800
 1891      H    -622.8696376800   -53.5603634800   -28.0788599700
 1892      H    -621.8518457700   -55.1878421800   -25.3987964300
 1893      C    -625.8654548000   -53.8275660500   -25.3823438200
 1894      H    -626.2716052100   -53.3057106300   -23.4561922800
 1895      H    -626.6229734600   -52.4124983600   -26.6016769100
 1896      C    -627.1006766000   -56.4123647000   -25.8168439000
 1897      H    -627.8423331000   -56.4838589500   -27.9070648900
 1898      H    -625.8405574800   -57.9687364300   -25.4796261800
 1899      C    -629.3940652500   -56.9240804500   -24.0625950500
 1900      H    -628.7692236200   -57.3244695100   -22.0439115800
 1901      H    -630.5286065900   -55.2440463400   -23.9889989900
 1902      C    -631.0869370200   -59.2117570900   -24.7667584000
 1903      H    -631.7133654500   -58.8205854000   -26.7198923000
 1904      H    -629.9271992400   -60.9103423000   -25.0204142900
 1905      C    -633.1722383400   -59.8865346800   -22.9036900900
 1906      H    -632.5177951200   -60.8701790200   -21.2496908200
 1907      H    -634.0170870500   -58.1370152100   -22.6100868600
 1908      C    -635.3571415000   -61.5556492600   -23.8418310400
 1909      H    -636.8962797300   -61.6895199800   -22.3852647400
 1910      H    -634.4383205300   -63.3490048800   -24.2485972600
 1911      H    -636.4008738700   -60.9580838500   -25.4586973000
 ----------------------------------------------------------------
 Nuclear Repulsion Energy =           0.00000000 hartrees
 There are       48 alpha and       48 beta electrons
 Total job time:  126.93s(wall), 250.74s(cpu) 
 Wed Jun  1 23:32:46 2022

        *************************************************************
        *                                                           *
        *  Thank you very much for using Q-Chem.  Have a nice day.  *
        *                                                           *
        *************************************************************


