                  Welcome to Q-Chem
     A Quantum Leap Into The Future Of Chemistry


 Q-Chem 5.4 (devel), Q-Chem, Inc., Pleasanton, CA (2021)

 E. Epifanovsky,  A. T. B. Gilbert,  Xintian Feng,  Joonho Lee,  Yuezhi Mao,  
 N. Mardirossian,  P. Pokhilko,  A. White,  M. Wormit,  M. P. Coons,  
 A. L. Dempwolff,  Zhengting Gan,  D. Hait,  P. R. Horn,  L. D. Jacobson,  
 I. Kaliman,  J. Kussmann,  A. W. Lange,  Ka Un Lao,  D. S. Levine,  Jie Liu,  
 S. C. McKenzie,  A. F. Morrison,  K. Nanda,  F. Plasser,  D. R. Rehn,  
 M. L. Vidal,  Zhi-Qiang You,  Ying Zhu,  B. Alam,  B. Albrecht,  
 A. Aldossary,  E. Alguire,  J. H. Andersen,  D. Barton,  K. Begam,  A. Behn,  
 Y. A. Bernard,  E. J. Berquist,  H. Burton,  A. Carreras,  K. Carter-Fenk,  
 R. Chakraborty,  A. D. Chien,  K. D. Closser,  V. Cofer-Shabica,  
 S. Dasgupta,  Jia Deng,  M. de Wergifosse,  M. Diedenhofen,  Hainam Do,  
 S. Ehlert,  Po-Tung Fang,  S. Fatehi,  Qingguo Feng,  T. Friedhoff,  
 J. Gayvert,  Qinghui Ge,  G. Gidofalvi,  M. Goldey,  J. Gomes,  
 C. Gonzalez-Espinoza,  S. Gulania,  A. Gunina,  M. W. D. Hanson-Heine,  
 P. H. P. Harbach,  A. W. Hauser,  M. F. Herbst,  M. Hernandez Vera,  
 M. Hodecker,  Z. C. Holden,  S. Houck,  Xunkun Huang,  Kerwin Hui,  
 B. C. Huynh,  M. Ivanov,  Hyunjun Ji,  Hanjie Jiang,  B. Kaduk,  S. Kaehler,  
 K. Khistyaev,  Jaehoon Kim,  P. Klunzinger,  Z. Koczor-Benda,  
 Joong Hoon Koh,  D. Kosenkov,  L. Koulias,  T. Kowalczyk,  C. M. Krauter,  
 K. Kue,  A. Kunitsa,  T. Kus,  A. Landau,  K. V. Lawler,  D. Lefrancois,  
 S. Lehtola,  Rain Li,  Yi-Pei Li,  Jiashu Liang,  M. Liebenthal,  
 Hung-Hsuan Lin,  You-Sheng Lin,  Fenglai Liu,  Kuan-Yu Liu,  
 M. Loipersberger,  A. Luenser,  A. Manjanath,  P. Manohar,  E. Mansoor,  
 S. F. Manzer,  Shan-Ping Mao,  A. V. Marenich,  T. Markovich,  S. Mason,  
 S. A. Maurer,  P. F. McLaughlin,  M. F. S. J. Menger,  J.-M. Mewes,  
 S. A. Mewes,  P. Morgante,  J. W. Mullinax,  K. J. Oosterbaan,  G. Paran,  
 Alexander C. Paul,  Suranjan K. Paul,  F. Pavosevic,  Zheng Pei,  S. Prager,  
 E. I. Proynov,  E. Ramos,  B. Rana,  A. E. Rask,  A. Rettig,  R. M. Richard,  
 F. Rob,  E. Rossomme,  T. Scheele,  M. Scheurer,  M. Schneider,  
 N. Sergueev,  S. M. Sharada,  W. Skomorowski,  D. W. Small,  C. J. Stein,  
 Yu-Chuan Su,  E. J. Sundstrom,  Zhen Tao,  J. Thirman,  T. Tsuchimochi,  
 N. M. Tubman,  S. P. Veccham,  O. Vydrov,  J. Wenzel,  J. Witte,  A. Yamada,  
 Kun Yao,  S. Yeganeh,  S. R. Yost,  A. Zech,  Igor Ying Zhang,  Xing Zhang,  
 Yu Zhang,  D. Zuev,  A. Aspuru-Guzik,  A. T. Bell,  N. A. Besley,  
 K. B. Bravaya,  B. R. Brooks,  D. Casanova,  Jeng-Da Chai,  S. Coriani,  
 C. J. Cramer,  A. E. DePrince, III,  R. A. DiStasio Jr.,  A. Dreuw,  
 B. D. Dunietz,  T. R. Furlani,  W. A. Goddard III,  S. Grimme,  
 S. Hammes-Schiffer,  T. Head-Gordon,  W. J. Hehre,  Chao-Ping Hsu,  
 T.-C. Jagau,  Yousung Jung,  A. Klamt,  Jing Kong,  D. S. Lambrecht,  
 WanZhen Liang,  N. J. Mayhall,  C. W. McCurdy,  J. B. Neaton,  
 C. Ochsenfeld,  J. A. Parkhill,  R. Peverati,  V. A. Rassolov,  Yihan Shao,  
 L. V. Slipchenko,  T. Stauch,  R. P. Steele,  J. E. Subotnik,  
 A. J. W. Thom,  A. Tkatchenko,  D. G. Truhlar,  T. Van Voorhis,  
 T. A. Wesolowski,  K. B. Whaley,  H. L. Woodcock III,  P. M. Zimmerman,  
 S. Faraji,  P. M. W. Gill,  M. Head-Gordon,  J. M. Herbert,  A. I. Krylov

 Additional authors for Version 5.4.1: 
 S. Kotaru,  Shaozhi Li,  Xiangyuan Li,  F. Matz,  A. Molle,  Haisheng Ren,  
 Yingli Su,  Hung-Yi Tsai,  C. Utku,  Fang Wang

 Contributors to earlier versions of Q-Chem not listed above: 
 R. D. Adamson,  B. Austin,  R. Baer,  J. Baker,  G. J. O. Beran,  
 K. Brandhorst,  S. T. Brown,  E. F. C. Byrd,  A. K. Chakraborty,  
 G. K. L. Chan,  Chun-Min Chang,  Yunqing Chen,  C.-L. Cheng,  
 Siu Hung Chien,  D. M. Chipman,  D. L. Crittenden,  H. Dachsel,  
 R. J. Doerksen,  A. D. Dutoi,  R. G. Edgar,  J. Fosso-Tande,  
 L. Fusti-Molnar,  D. Ghosh,  A. Ghysels,  A. Golubeva-Zadorozhnaya,  
 J. Gonthier,  M. S. Gordon,  S. R. Gwaltney,  G. Hawkins,  J. E. Herr,  
 A. Heyden,  S. Hirata,  E. G. Hohenstein,  G. Kedziora,  F. J. Keil,  
 C. Kelley,  Jihan Kim,  R. A. King,  R. Z. Khaliullin,  P. P. Korambath,  
 W. Kurlancheek,  A. Laurent,  A. M. Lee,  M. S. Lee,  S. V. Levchenko,  
 Ching Yeh Lin,  D. Liotard,  E. Livshits,  R. C. Lochan,  I. Lotan,  
 L. A. Martinez-Martinez,  P. E. Maslen,  N. Nair,  D. P. O'Neill,  
 D. Neuhauser,  E. Neuscamman,  C. M. Oana,  R. Olivares-Amaya,  R. Olson,  
 T. M. Perrine,  B. Peters,  P. A. Pieniazek,  A. Prociuk,  Y. M. Rhee,  
 J. Ritchie,  M. A. Rohrdanz,  E. Rosta,  N. J. Russ,  H. F. Schaefer III,  
 M. W. Schmidt,  N. E. Schultz,  S. Sharma,  N. Shenvi,  C. D. Sherrill,  
 A. C. Simmonett,  A. Sodt,  T. Stein,  D. Stuck,  K. S. Thanthiriwatte,  
 V. Vanovschi,  L. Vogt,  Tao Wang,  A. Warshel,  M. A. Watson,  
 C. F. Williams,  Q. Wu,  X. Xu,  Jun Yang,  W. Zhang,  Yan Zhao

 Please cite Q-Chem as follows:
 Y. Shao et al., Mol. Phys. 113, 184-215 (2015)
 DOI: 10.1080/00268976.2014.952696

 Q-Chem 5.4.1 for Intel X86 EM64T Linux

 Parts of Q-Chem use Armadillo 9.900.5 (Nocturnal Misbehaviour).
 http://arma.sourceforge.net/

 Q-Chem begins on Wed Jun 22 08:05:25 2022  

 Host: p09r16n04.grace.hpc.yale.internal
0

     Scratch files written to /home/tl686/scratch60/qchem_dev/scratch/qchem69718//
 Processing $rem in /home/tl686/qchem_dev/qchem/config/preferences:
 Processing $rem in /home/tl686/.qchemrc:
Applying user defined connections for MM calculations

 Checking the input file for inconsistencies... 	...done.

--------------------------------------------------------------
User input:
--------------------------------------------------------------
$molecule
0   1
 Fe 74.32866411 33.86419690 -43.42774885    -1  0   0   0   0
C 72.79730098 33.64983453 -40.35898763    -2  0   0   0   0 
C 74.09842772 37.02353959 -44.79526531    -2  0   0   0   0
C 77.54338403 34.73909248 -42.10004701    -2  0   0   0   0
C 75.60466290 31.22313420 -44.98622642    -2  0   0   0   0
C 71.09750919 33.16715369 -44.71305841    -2  0   0   0   0
O 72.05185559 33.75755529 -38.28700109    -3  0   0   0   0
O 73.65534045 38.90778426 -45.70313986    -3  0   0   0   0 
O 79.48177678 34.96953338 -41.22617865    -3  0   0   0   0
O 76.58639672 29.33471977 -45.82632913    -3  0   0   0   0 
O 69.28343618 32.57690261 -45.78169413    -3  0   0   0   0
H 77.49940837 19.72693417 -18.49124042      6     13    0    0    0 
C 77.03263950 21.43957502 -19.66623944     1     12    14    15    16
H 76.32706376 22.60352015 -18.13562108     6     13    0    0    0
H 78.90349990 22.19970732 -20.31348032     6     13    0    0    0
C 75.27131291 20.69645848 -21.70449739     2     13    17    18    19
H 73.62540415 19.69779008 -20.89181251     6     16    0    0    0
H 74.71053184 22.44322278 -22.65288169     6     16    0    0    0
C 76.60730441 18.88397312 -23.44485730     2     16    20   21   22
H 78.25634959 19.84199942 -24.13002740     6     19    0    0    0
H 77.41065456 17.37534380 -22.18192912     6     19    0    0    0
C 74.94499912 18.11899720 -25.71694044     2     19   23   24   25
H 73.37258761 17.04735845 -24.90838675     6    22    0    0    0
H 74.15845204 19.79486324 -26.66706159     6    22    0    0    0
C 76.50637355 16.28627764 -27.41109550     2    22   26   27   28
H 78.05276124 17.29659213 -28.30182177     6    25    0    0    0
H 77.48873800 14.87907391 -26.13325190     6    25    0    0    0
C 74.90476668 15.08311098 -29.53581322     2    25   29   30   31
H 73.48770516 13.91057854 -28.75962275     6    28    0    0    0
H 73.76064636 16.53524359 -30.37215177     6    28    0    0    0
C 76.49555250 13.91384428 -31.64571211     2    28   32   33   34
H 77.66634543 15.30166075 -32.48201001     6    31    0    0    0
H 77.66843759 12.32106100 -30.99153735     6    31    0    0    0
C 74.52483347 13.10310837 -33.67607080     2    31   35   36   37
H 72.98019798 12.22155961 -32.70322145     6    34    0    0    0
H 73.50723037 14.80457799 -34.46997024     6    34    0    0    0
C 75.64433553 11.65996153 -35.81483428     2    34   38   39   40
H 76.13423141 12.84541735 -37.38551791     6    37    0    0    0
H 77.39209628 10.98322085 -35.23843392     6    37    0    0    0
C 74.00698316 9.36501909 -36.76863900     2    37   41   42   43
H 73.48711649 7.92088528 -35.25661968     6    40    0    0    0
H 72.08046756 10.07135457 -37.32494602     6    40    0    0    0
C 74.79908820 7.95018175 -39.15065662     2    40   44   45   46
H 74.48298981 9.03633655 -40.88343945     6    43    0    0    0
H 76.83487441 7.55547304 -38.85784635     6    43    0    0    0
C 73.15570220 5.35325297 -39.20418653     1    43   47   48   49
H 73.52450924 4.62779519 -37.16009001     6    46    0    0    0
H 73.63165074 3.91287816 -40.56542712     6    46    0    0    0
H 71.20555897 5.82789055 -39.55702354     6    46    0    0    0
H 67.45821423 24.38976485 -42.22111891     6     51    0    0    0 
C 68.34405393 26.24842871 -42.17377469     1     50    52    53    54
H 68.90155876 27.11773773 -44.06182812     6     51    0    0    0
H 66.63637387 27.28862952 -41.55641867     6     51    0    0    0
C 70.11340686 26.58820858 -39.94914061     2     51    55    56    57
H 70.36286130 28.73383702 -39.79274377     6     54    0    0    0
H 69.10905389 26.04633091 -38.13322696     6     54    0    0    0
C 72.73104874 25.23673997 -40.17674573     2     54    58   59   60
H 74.03188457 26.15719018 -41.49986387     6     57    0    0    0
H 73.71195285 25.17948861 -38.41170083     6     57    0    0    0
C 72.28536963 22.45881057 -41.07756853     2     57   61   62   63
H 70.67936340 21.63387836 -40.05676574     6    60    0    0    0
H 72.01023028 22.49506609 -43.20255371     6    60    0    0    0
C 74.68535033 20.84848888 -40.71274718     2    60   64   65   66
H 76.21413880 21.70812389 -41.76599331     6    63    0    0    0
H 75.04885936 20.83181097 -38.82078333     6    63    0    0    0
C 74.11349337 18.04950843 -41.29202518     2    63   67   68   69
H 75.76317653 17.04289618 -40.70135847     6    66    0    0    0
H 72.46762725 17.41194268 -40.01916187     6    66    0    0    0
C 73.43154450 17.42489871 -44.08635861     2    66   70   71   72
H 71.54344598 18.11921345 -44.52994877     6    69    0    0    0
H 74.74354374 18.45736121 -45.21023803     6    69    0    0    0
C 73.43354310 14.58212059 -44.77650633     2    69   73   74   75
H 75.33491912 13.92075176 -44.56430306     6    72    0    0    0
H 72.45400884 13.50835602 -43.33108583     6    72    0    0    0
C 72.53439321 14.29453750 -47.45089053     2    72   76   77   78
H 70.75744731 15.19522966 -47.97595310     6    75    0    0    0
H 73.83819534 15.21795714 -48.73000099     6    75    0    0    0
C 72.23456218 11.47554619 -48.20440589     2    75   79   80   81
H 74.15450217 10.55798758 -48.01787004     6    78    0    0    0
H 70.94655001 10.50433820 -46.82332904     6    78    0    0    0
C 71.20170647 11.27047239 -50.93554787     2    78   82   83   84
H 69.53108721 12.49636194 -51.17853836     6    81    0    0    0
H 72.57251289 11.98763731 -52.20787586     6    81    0    0    0
C 70.40115408 8.51997340 -51.46583492     1    81   85   86   87
H 70.18614276 8.22564002 -53.43600617     6    84    0    0    0
H 68.60713651 7.82094551 -50.72912133     6    84    0    0    0
H 71.92396851 7.18772609 -51.12191921     6    84    0    0    0
H 97.30256160 13.04164076 -27.69458115     6     89    0    0    0 
C 96.32020059 11.24956120 -27.12180242     1     88    90    91    92
H 97.71268932 10.12775503 -26.01312507     6     89    0    0    0
H 94.75461938 11.89443438 -25.99800175     6     89    0    0    0
C 95.59135771 9.65282486 -29.29068088     2     89    93    94    95
H 94.34418380 10.77641574 -30.59311497     6     92    0    0    0
H 97.20364293 9.45347086 -30.57091535     6     92    0    0    0
C 94.57250699 6.99118104 -28.76317471     2     92    96   97   98
H 96.10791276 5.80017082 -27.78551757     6     95    0    0    0
H 92.97091833 7.18739281 -27.49399351     6     95    0    0    0
C 93.42387244 5.62559095 -31.03508908     2     95   99   100   101
H 91.38522017 6.10632331 -31.08842051     6    98    0    0    0
H 94.06649427 6.32180027 -32.82605034     6    98    0    0    0
C 93.35301580 2.78318720 -30.81381751     2    98   102   103   104
H 95.36237632 2.37891473 -30.53564787     6    101    0    0    0
H 92.84714323 2.26666367 -28.87798181     6    101    0    0    0
C 91.96757345 0.95965683 -32.73987986     2    101   105   106   107
H 91.55646610 1.93603435 -34.48209416     6    104    0    0    0
H 93.15633941 -0.72974239 -33.30010343     6    104    0    0    0
C 89.45142283 -0.07640820 -31.86254447     2    104   108   109   110
H 89.89112862 -1.14428840 -30.14764457     6    107    0    0    0
H 88.38181103 1.65653393 -31.39633457     6    107    0    0    0
C 88.41845546 -2.30299162 -33.64914157     2    107   111   112   113
H 88.15272869 -1.62511769 -35.54112061     6    110    0    0    0
H 89.84649578 -3.74557485 -33.97867699     6    110    0    0    0
C 86.05475340 -3.51667988 -32.53181463     2    110   114   115   116
H 86.24881161 -4.33936948 -30.60504398     6    113    0    0    0
H 84.50045347 -2.14499548 -32.53471006     6    113    0    0    0
C 85.01916887 -5.70198646 -34.15328878     2    113   117   118   119
H 84.90664888 -5.19263400 -36.19190625     6    116    0    0    0
H 86.62640476 -7.13093699 -34.22516786     6    116    0    0    0
C 82.50509367 -7.01428226 -33.29325023     2    116   120   121   122
H 82.73410579 -7.63968734 -31.28791527     6    119    0    0    0
H 81.04114619 -5.69012805 -33.39122307     6    119    0    0    0
C 81.65906129 -9.17340950 -35.06955745     1    119   123   124   125
H 79.76296924 -9.79232575 -34.65149042     6    122    0    0    0
H 82.84231551 -10.77400396 -35.17880278     6    122    0    0    0
H 81.48901949 -8.38797149 -36.91860767     6    122    0    0    0
H 107.07067386 26.28492736 -31.90004568     6     127    0    0    0 
C 106.23164415 25.90979127 -33.84362155     1     126    128    129    130
H 107.66546771 26.50132619 -35.22747921     6     127    0    0    0
H 105.93893874 23.92709508 -33.87529251     6     127    0    0    0
C 103.85666089 27.44360564 -34.17949407     2     127    131    132    133
H 102.32914006 27.03292920 -32.81262808     6     130    0    0    0
H 104.08880741 29.39787576 -34.09201229     6     130    0    0    0
C 102.74512998 27.17472027 -36.82612296     2     130    134   135   136
H 104.28758672 27.57165442 -38.17704443     6     133    0    0    0
H 102.23539622 25.27807333 -37.23538047     6     133    0    0    0
C 100.46678956 29.00599330 -37.11731673     2     133   137   138   139
H 98.78840888 28.47294435 -36.05487798     6    136    0    0    0
H 101.12278748 30.84806876 -36.40039108     6    136    0    0    0
C 99.68949236 28.93031613 -39.86563361     2    136   140   141   142
H 101.07825618 29.02910277 -41.27378002     6    139    0    0    0
H 99.07653582 27.11272631 -40.42296310     6    139    0    0    0
C 97.59887136 30.82038795 -40.41717886     2    139   143   144   145
H 96.19878159 30.62696848 -39.00931846     6    142    0    0    0
H 98.46386087 32.59922184 -40.29625790     6    142    0    0    0
C 96.43783576 30.83188359 -42.90099332     2    142   146   147   148
H 97.69571227 31.70880337 -44.29107056     6    145    0    0    0
H 96.01324756 28.92126978 -43.43683307     6    145    0    0    0
C 94.09812591 32.56841316 -43.17876660     2    145   149   150   151
H 92.70862716 32.33358691 -41.60113647     6    148    0    0    0
H 94.87608926 34.51000878 -42.98363447     6    148    0    0    0
C 92.82835492 32.36125331 -45.74414956     2    148   152   153   154
H 94.21670052 32.13307167 -47.31544942     6    151    0    0    0
H 91.64975229 30.68292052 -45.78939058     6    151    0    0    0
C 91.11516955 34.58538536 -46.30124222     2    151   155   156   157
H 89.85627883 34.18919081 -47.91861689     6    154    0    0    0
H 89.87332349 34.87769563 -44.65346285     6    154    0    0    0
C 92.55515324 36.78703158 -47.18267710     2    154   158   159   160
H 94.15857244 37.31131556 -45.93372334     6    157    0    0    0
H 93.35037888 36.20962748 -49.01959390     6    157    0    0    0
C 90.91742668 39.02142134 -47.94898710     1    157   161   162   163
H 92.13821974 40.73606329 -48.39674838     6    160    0    0    0
H 89.68089338 39.36383769 -46.49092541     6    160    0    0    0
H 89.71356591 38.51110092 -49.54416797     6    160    0    0    0
H 99.17518426 2.81033398 -47.34950376     6     165    0    0    0 
C 99.71049655 4.38006203 -46.05177277     1     164    166    167    168
H 98.38842951 4.56892682 -44.47940424     6     165    0    0    0
H 101.53148110 3.86909655 -45.02683634     6     165    0    0    0
C 99.99273315 6.98294970 -47.28178855     2     165    169    170    171
H 101.44948248 6.95921252 -48.69599611     6     168    0    0    0
H 98.33455727 7.66688949 -48.20069567     6     168    0    0    0
C 100.63753148 9.11758203 -45.47455160     2     168    172   173   174
H 98.77239765 9.46539078 -44.65879770     6     171    0    0    0
H 102.10176421 8.64374736 -44.08436635     6     171    0    0    0
C 101.56906761 11.61747223 -46.78467107     2     171   175   176   177
H 103.31259127 11.19261397 -47.83466946     6    174    0    0    0
H 100.20338597 12.35079511 -48.18971007     6    174    0    0    0
C 102.05947734 13.63950693 -44.89213294     2    174   178   179   180
H 100.23393050 13.85456090 -43.79209035     6    177    0    0    0
H 103.38557992 12.82210223 -43.66679083     6    177    0    0    0
C 103.19466768 16.03196405 -46.14238466     2    177   181   182   183
H 105.14166266 15.62366268 -46.90788180     6    180    0    0    0
H 102.18699602 16.50427763 -47.85117478     6    180    0    0    0
C 103.29936240 18.38100209 -44.43755222     2    180   184   185   186
H 101.57498947 19.41132275 -44.59577461     6    183    0    0    0
H 103.68516983 17.61425964 -42.61789684     6    183    0    0    0
C 105.14411832 20.28053009 -45.47498068     2    183   187   188   189
H 107.06957174 19.58190729 -45.59849514     6    186    0    0    0
H 104.72737081 20.71878522 -47.49334882     6    186    0    0    0
C 105.00337146 22.81195050 -43.82724726     2    186   190   191   192
H 103.02221876 23.05932972 -43.11718987     6    189    0    0    0
H 106.29930911 22.32292521 -42.15813056     6    189    0    0    0
C 105.89579983 25.09415787 -45.46479996     2    189   193   194   195
H 107.83158314 24.72655919 -46.27664933     6    192    0    0    0
H 104.70760955 25.17893870 -47.21952565     6    192    0    0    0
C 105.92845913 27.57219917 -43.91890962     2    192   196   197   198
H 104.07948997 28.24719669 -43.58135896     6    195    0    0    0
H 106.71122059 27.23087607 -42.08954597     6    195    0    0    0
C 107.37679570 29.85843073 -45.06736537     1    195   199   200   201
H 107.88107127 31.17529623 -43.53118051     6    198    0    0    0
H 106.50835806 31.08780999 -46.50838678     6    198    0    0    0
H 109.24410030 29.35290395 -45.89407176     6    198    0    0    0
H 93.85029711 14.09242598 -58.46138497     6     203    0    0    0 
C 95.42841383 13.75300993 -59.62030293     1     202    204    205    206
H 96.00280953 15.34220704 -60.64211453     6     203    0    0    0
H 96.80193708 13.49560887 -58.21598469     6     203    0    0    0
C 95.16254816 11.40846655 -61.22514623     2     203    207    208    209
H 97.01996895 11.22429734 -62.09800338     6     206    0    0    0
H 94.87514023 9.82452592 -59.88301535     6     206    0    0    0
C 92.91217229 11.22194487 -63.01022594     2     206    210   211   212
H 93.10639797 9.41451318 -63.80375785     6     209    0    0    0
H 91.10910791 11.30187717 -61.93602670     6     209    0    0    0
C 92.53832589 13.45399387 -64.89653920     2     209   213   214   215
H 92.97326729 15.27797763 -63.88232450     6    212    0    0    0
H 94.12392769 13.25354182 -66.38057252     6    212    0    0    0
C 89.97586588 13.63025878 -66.25617597     2    212   216   217   218
H 89.85035483 12.08951012 -67.52717616     6    215    0    0    0
H 88.38308361 13.48150762 -64.94321577     6    215    0    0    0
C 89.93519910 16.09891585 -67.72877304     2    215   219   220   221
H 89.79115413 17.75517860 -66.45801888     6    218    0    0    0
H 91.69292524 16.36321881 -68.81079315     6    218    0    0    0
C 87.73448355 16.29358538 -69.41141218     2    218   222   223   224
H 87.62055231 14.65649841 -70.62607341     6    221    0    0    0
H 86.03077202 16.13138997 -68.27405857     6    221    0    0    0
C 87.88479971 18.66517925 -71.17598427     2    221   225   226   227
H 88.91868464 20.12446933 -69.98814224     6    224    0    0    0
H 88.98944974 17.97660729 -72.81173815     6    224    0    0    0
C 85.25313152 19.53346231 -72.23815423     2    224   228   229   230
H 84.31144627 17.89482353 -73.10917448     6    227    0    0    0
H 83.92858772 20.13937285 -70.71161021     6    227    0    0    0
C 85.44418016 21.61597871 -74.32998398     2    227   231   232   233
H 86.49807773 23.25663535 -73.59707388     6    230    0    0    0
H 86.33517323 20.83779068 -76.00909526     6    230    0    0    0
C 83.00787354 22.90548082 -75.27925311     2    230   234   235   236
H 81.88459342 21.34655845 -76.15267585     6    233    0    0    0
H 81.80968266 23.10604536 -73.52272396     6    233    0    0    0
C 83.40440512 25.23814663 -77.02168101     1    233   237   238   239
H 81.59504535 25.76246064 -77.90365068     6    236    0    0    0
H 84.88586171 24.96917522 -78.37402625     6    236    0    0    0
H 83.95405225 26.85687391 -75.84429595     6    236    0    0    0
H 64.81759848 0.29197191 -50.88560866     6     241    0    0    0 
C 66.22938681 1.48866027 -51.76172930     1     240    242    243    244
H 66.36726018 0.56180764 -53.56927358     6     241    0    0    0
H 65.57688589 3.41832829 -52.00596028     6     241    0    0    0
C 68.73675645 1.61503950 -50.52767557     2     241    245    246    247
H 69.67837992 -0.31305210 -50.36189490     6     244    0    0    0
H 69.96249044 2.75447543 -51.64984177     6     244    0    0    0
C 68.48448699 2.92939638 -47.98101474     2     244    248   249   250
H 70.37625773 3.80617839 -47.62128689     6     247    0    0    0
H 67.17863621 4.57651120 -48.30779913     6     247    0    0    0
C 67.58960252 1.36999270 -45.75386027     2     247   251   252   253
H 67.33848247 2.54193114 -44.14024988     6    250    0    0    0
H 65.75580532 0.62830006 -46.35272857     6    250    0    0    0
C 69.49337193 -0.76123504 -44.92770358     2    250   254   255   256
H 69.61076214 -2.45227315 -46.29882600     6    253    0    0    0
H 71.31707868 0.00217506 -44.84692157     6    253    0    0    0
C 68.87667891 -1.89071611 -42.31794863     2    253   257   258   259
H 69.76557632 -3.75836382 -42.14914898     6    256    0    0    0
H 69.78333758 -0.64878336 -40.90198684     6    256    0    0    0
C 66.02218393 -2.34869546 -41.96760740     2    256   260   261   262
H 65.12622332 -0.51381354 -41.62295164     6    259    0    0    0
H 65.38159955 -3.16121420 -43.75788240     6    259    0    0    0
C 65.05315112 -3.95832473 -39.75120270     2    259   263   264   265
H 65.82462984 -5.93470950 -39.67239892     6    262    0    0    0
H 65.80119934 -3.04064352 -37.96086875     6    262    0    0    0
C 62.02268192 -4.36151710 -39.76305916     2    262   266   267   268
H 61.74359323 -5.22992934 -37.96492229     6    265    0    0    0
H 61.15192670 -2.41014185 -39.91121880     6    265    0    0    0
C 61.09845297 -6.04477162 -42.00951435     2    265   269   270   271
H 61.56698005 -5.37662875 -43.79295749     6    268    0    0    0
H 62.14395778 -7.86963643 -41.90642962     6    268    0    0    0
C 58.16395935 -6.54267355 -42.02586772     2    268   272   273   274
H 57.75991722 -7.07314962 -40.04435527     6    271    0    0    0
H 57.34059447 -4.63536662 -42.06685769     6    271    0    0    0
C 57.59149737 -8.13898694 -44.33341556     1    271   275   276   277
H 58.26534468 -7.43170229 -46.20783578     6    274    0    0    0
H 55.61631044 -8.20605093 -44.51472649     6    274    0    0    0
H 58.55026325 -9.94316742 -43.88743213     6    274    0    0    0
H 87.33820305 4.48777033 -51.23355463     6     279    0    0    0 
C 86.85656904 5.45212672 -52.91313120     1     278    280    281    282
H 86.86614634 7.42909544 -52.24736642     6     279    0    0    0
H 88.66875536 5.25390750 -53.83625091     6     279    0    0    0
C 84.77882963 4.39180900 -54.47551621     2     279    283    284    285
H 84.78561030 2.31331107 -54.72826237     6     282    0    0    0
H 83.10611881 4.81781641 -53.35863626     6     282    0    0    0
C 84.29768296 5.86948783 -57.08139898     2     282    286   287   288
H 83.80358491 7.79388377 -56.83920109     6     285    0    0    0
H 86.07858374 5.77122695 -57.95404297     6     285    0    0    0
C 82.62918718 4.41197766 -59.17003588     2     285   289   290   291
H 83.95178413 2.98577570 -60.08964287     6    288    0    0    0
H 80.94145030 3.53116124 -58.12497245     6    288    0    0    0
C 81.88986677 6.10158069 -61.30445511     2    288   292   293   294
H 81.28570170 7.82660554 -60.45480549     6    291    0    0    0
H 83.33631907 6.52698070 -62.64977691     6    291    0    0    0
C 79.65921187 4.75139732 -62.70469456     2    291   295   296   297
H 80.09898558 3.05257774 -63.67641856     6    294    0    0    0
H 78.31743279 4.22212249 -61.16539609     6    294    0    0    0
C 78.06767184 6.53988908 -64.31917561     2    294   298   299   300
H 77.18648937 7.81109646 -62.89100587     6    297    0    0    0
H 79.35885018 7.73515297 -65.35756655     6    297    0    0    0
C 76.23046612 5.06450573 -65.98696637     2    297   301   302   303
H 77.30407480 3.93248849 -67.26114689     6    300    0    0    0
H 75.39673505 3.36238802 -64.92674309     6    300    0    0    0
C 74.38705518 6.98933111 -67.15997831     2    300   304   305   306
H 73.13893068 7.74359649 -65.69350106     6    303    0    0    0
H 75.24579222 8.58709042 -68.09215088     6    303    0    0    0
C 72.60652046 5.65192991 -69.01956353     2    303   307   308   309
H 73.60006378 4.31830469 -70.28692471     6    306    0    0    0
H 71.36770618 4.47993924 -67.82849757     6    306    0    0    0
C 71.14760283 7.63132650 -70.51437532     2    306   310   311   312
H 70.36516368 9.15723077 -69.28292253     6    309    0    0    0
H 72.63728436 8.53960907 -71.79221168     6    309    0    0    0
C 68.95138744 6.65145330 -72.04567528     1    309   313   314   315
H 67.67035018 5.53417138 -70.94548331     6    312    0    0    0
H 69.49634851 5.49820595 -73.68461825     6    312    0    0    0
H 68.05970160 8.31672669 -72.93036609     6    312    0    0    0
H 94.42754006 17.10400057 -28.19187664     6     317    0    0    0 
C 95.15013635 17.69847623 -30.08910284     1     316    318    319    320
H 96.65528597 19.09934916 -29.69632940     6     317    0    0    0
H 95.89660753 15.81944941 -30.78394112     6     317    0    0    0
C 93.19909856 18.83108560 -31.86068865     2     317    321    322    323
H 94.10363882 19.70314685 -33.53833730     6     320    0    0    0
H 91.90312242 17.40982305 -32.41647887     6     320    0    0    0
C 91.67694813 21.18336263 -30.65337070     2     320    324   325   326
H 90.41519328 20.46359071 -29.03754727     6     323    0    0    0
H 93.07290765 22.47855624 -29.90224893     6     323    0    0    0
C 90.24212497 22.61399687 -32.59675108     2     323   327   328   329
H 91.45615501 23.23436286 -34.01541734     6    326    0    0    0
H 88.98221394 21.33945908 -33.63837871     6    326    0    0    0
C 88.54374415 24.78444441 -31.51911526     2    326   330   331   332
H 86.91723785 23.89685169 -30.58673997     6    329    0    0    0
H 89.49343578 25.96107183 -30.07252644     6    329    0    0    0
C 87.37339855 26.60249974 -33.58842434     2    329   333   334   335
H 86.05336693 25.51163336 -34.73949864     6    332    0    0    0
H 86.20951079 28.05296295 -32.60675319     6    332    0    0    0
C 89.42238930 27.74128712 -35.29439840     2    332   336   337   338
H 91.01794647 28.70626016 -34.36487941     6    335    0    0    0
H 90.29999661 26.19566234 -36.28109163     6    335    0    0    0
C 88.46231827 29.52041959 -37.22839216     2    335   339   340   341
H 89.62227082 29.40198997 -38.91400181     6    338    0    0    0
H 86.61932831 29.01117616 -37.87287692     6    338    0    0    0
C 88.47573052 32.18611956 -36.21630040     2    338   342   343   344
H 87.57505690 32.26417272 -34.38247692     6    341    0    0    0
H 90.45486581 32.77934624 -35.88875052     6    341    0    0    0
C 86.96037669 33.89649888 -37.95421546     2    341   345   346   347
H 87.64302023 33.84466148 -39.94310020     6    344    0    0    0
H 84.98592165 33.35519620 -37.96964591     6    344    0    0    0
C 86.88460341 36.61814004 -37.16895329     2    344   348   349   350
H 86.18946204 36.79663157 -35.22124493     6    347    0    0    0
H 88.96601605 37.41714985 -37.12081255     6    347    0    0    0
C 85.00995555 38.33819575 -38.62314027     1    347   351   352   353
H 85.65132903 40.19506144 -38.13299726     6    350    0    0    0
H 83.07171173 38.06622578 -38.05518413     6    350    0    0    0
H 85.32047286 38.00800915 -40.71324621     6    350    0    0    0
H 80.05505676 4.14146210 -44.46744346     6     355    0    0    0 
C 81.41999412 4.42285166 -43.07220866     1     354    356    357    358
H 80.40337552 4.78576873 -41.35992292     6     355    0    0    0
H 82.50963222 2.72928318 -43.11101641     6     355    0    0    0
C 82.75175923 6.94343747 -43.87029375     2     355    359    360    361
H 83.60184315 6.56929259 -45.70324190     6     358    0    0    0
H 81.53531867 8.50795465 -43.98411689     6     358    0    0    0
C 84.92646852 7.62408798 -42.21615350     2     358    362   363   364
H 84.25920296 8.43242663 -40.43892054     6     361    0    0    0
H 85.77975471 5.74721401 -41.53809881     6     361    0    0    0
C 86.83409656 9.28667153 -43.38194208     2     361   365   366   367
H 87.99820085 8.15717687 -44.52766641     6    364    0    0    0
H 85.80412483 10.51333785 -44.60198623     6    364    0    0    0
C 88.41555400 10.51519533 -41.36323128     2    364   368   369   370
H 87.29495292 11.51626790 -40.02699641     6    367    0    0    0
H 89.49865985 8.95546292 -40.49107918     6    367    0    0    0
C 90.27387198 12.51974561 -42.35656682     2    367   371   372   373
H 91.14438946 11.86199874 -44.10268357     6    370    0    0    0
H 89.29325743 14.25527239 -42.85267526     6    370    0    0    0
C 92.37786318 12.91090126 -40.52606552     2    370   374   375   376
H 91.54922454 13.43054312 -38.83195570     6    373    0    0    0
H 93.43011080 11.18697619 -40.30035523     6    373    0    0    0
C 93.71662010 15.39795191 -41.13463765     2    373   377   378   379
H 94.24966039 15.68880060 -43.20752630     6    376    0    0    0
H 92.25279319 16.85169801 -40.82095789     6    376    0    0    0
C 96.04989748 15.60900535 -39.30740426     2    376   380   381   382
H 95.30323733 15.26948496 -37.47863298     6    379    0    0    0
H 97.46218029 14.22632148 -39.73902928     6    379    0    0    0
C 97.38544066 18.17126859 -39.83589375     2    379   383   384   385
H 97.91277304 18.27967457 -41.84872362     6    382    0    0    0
H 95.78437415 19.47600351 -39.56628329     6    382    0    0    0
C 99.44474459 18.73041274 -37.87408505     2    382   386   387   388
H 100.70538341 20.16951155 -38.76156302     6    385    0    0    0
H 98.47409327 19.63961355 -36.19006516     6    385    0    0    0
C 101.28716631 16.53859353 -36.98244122     1    385   389   390   391
H 102.34482938 15.84720628 -38.60905800     6    388    0    0    0
H 100.25214377 15.01613590 -36.09942388     6    388    0    0    0
H 102.65527258 17.15926828 -35.58367729     6    388    0    0    0
H 70.63962819 54.70237806 -32.19203484     6     393    0    0    0 
C 69.37809533 54.00861217 -33.69304952     1     392    394    395    396
H 68.05748913 55.48790374 -34.14424821     6     393    0    0    0
H 70.45561425 53.55203563 -35.36923326     6     393    0    0    0
C 67.94769885 51.62690415 -32.91269297     2     393    397    398    399
H 69.42228471 50.32632077 -32.61397834     6     396    0    0    0
H 67.07042741 51.93903613 -31.20105811     6     396    0    0    0
C 66.15203163 50.85665457 -35.12555223     2     396    400   401   402
H 64.64372740 52.22836086 -35.34767343     6     399    0    0    0
H 67.04062130 50.85637130 -37.02112479     6     399    0    0    0
C 64.78793900 48.48717751 -34.53117436     2     399   403   404   405
H 66.35499227 47.08554636 -34.61262149     6    402    0    0    0
H 64.10154178 48.60866207 -32.58247751     6    402    0    0    0
C 62.63328719 47.74533327 -36.18412094     2    402   406   407   408
H 61.29872677 49.18884858 -35.69806573     6    405    0    0    0
H 63.27740251 47.96645617 -38.16899804     6    405    0    0    0
C 61.94068486 44.99823091 -35.86734555     2    405   409   410   411
H 63.66149601 43.90438835 -36.28007175     6    408    0    0    0
H 61.10202266 44.87198707 -34.01526499     6    408    0    0    0
C 59.91325450 43.97815117 -37.70453911     2    408   412   413   414
H 58.21514649 44.93442197 -37.39418868     6    411    0    0    0
H 60.18396779 44.46087053 -39.75016883     6    411    0    0    0
C 59.53404492 41.04332958 -37.36857498     2    411   415   416   417
H 61.50875457 40.28242674 -37.53739480     6    414    0    0    0
H 58.75765234 40.28109691 -35.73433820     6    414    0    0    0
C 57.74618883 40.02651165 -39.54095595     2    414   418   419   420
H 56.07591292 41.21643180 -39.26079203     6    417    0    0    0
H 58.68112717 40.54815420 -41.36465993     6    417    0    0    0
C 57.19352766 37.31266101 -39.70021561     2    417   421   422   423
H 58.95814390 36.24578480 -39.70391066     6    420    0    0    0
H 56.18993951 36.65750004 -37.95044783     6    420    0    0    0
C 55.55619944 36.54258042 -41.95610816     2    420   424   425   426
H 54.29426602 34.86840862 -41.73619845     6    423    0    0    0
H 54.25682464 38.06221633 -42.30429220     6    423    0    0    0
C 57.31881629 36.18254769 -44.28990713     1    423   427   428   429
H 56.24086109 35.92780891 -46.12519834     6    426    0    0    0
H 58.75605536 34.60330990 -44.08645726     6    426    0    0    0
H 58.20040996 37.98670087 -44.74176852     6    426    0    0    0
H 63.76012912 25.13550817 -32.92740904     6     431    0    0    0 
C 63.18904658 24.68774092 -30.94415129     1     430    432    433    434
H 61.73293163 23.15893582 -30.86368678     6     431    0    0    0
H 64.93842514 24.07676241 -29.92349209     6     431    0    0    0
C 61.94704824 26.99171436 -29.94940852     2     431    435    436    437
H 63.10239989 28.61030051 -30.52744428     6     434    0    0    0
H 60.09543592 27.22040327 -30.92423237     6     434    0    0    0
C 61.81560117 26.93447081 -27.03018149     2     434    438   439   440
H 60.32656884 25.58198974 -26.56525911     6     437    0    0    0
H 63.68694933 26.22199562 -26.44322274     6     437    0    0    0
C 60.86174441 29.35917635 -25.65355096     2     437   441   442   443
H 60.85325848 28.91947279 -23.65584972     6    440    0    0    0
H 62.30118209 30.87472399 -25.91794617     6    440    0    0    0
C 58.26000705 30.19625992 -26.58115269     2    440   444   445   446
H 58.43802773 31.14940331 -28.41856568     6    443    0    0    0
H 57.06988677 28.45001436 -26.91193897     6    443    0    0    0
C 56.81412159 31.97449763 -24.68599187     2    443   447   448   449
H 56.00595550 30.71041214 -23.28782729     6    446    0    0    0
H 58.01165459 33.41317618 -23.80199270     6    446    0    0    0
C 54.50569473 33.43738687 -25.74071871     2    446   450   451   452
H 54.83815321 35.03622507 -27.06517480     6    449    0    0    0
H 53.18262735 32.19090382 -26.89423195     6    449    0    0    0
C 53.01371863 34.72643817 -23.66109043     2    449   453   454   455
H 52.55703087 33.42498382 -22.17574051     6    452    0    0    0
H 54.17861456 36.28494754 -23.10956033     6    452    0    0    0
C 50.51796893 35.85280180 -24.45132656     2    452   456   457   458
H 50.71355327 37.19786257 -25.87799630     6    455    0    0    0
H 49.56697938 34.36275997 -25.39580683     6    455    0    0    0
C 48.92273427 36.69156621 -22.16214043     2    455   459   460   461
H 47.05161340 37.39239611 -22.73776702     6    458    0    0    0
H 48.71226726 35.41474426 -20.61536638     6    458    0    0    0
C 50.20632182 39.02279672 -21.14798196     2    458   462   463   464
H 51.98267492 38.52909737 -20.13646442     6    461    0    0    0
H 50.92398516 40.34171857 -22.61086087     6    461    0    0    0
C 48.47884850 40.69539308 -19.61793615     1    461   465   466   467
H 47.80246771 39.73527920 -17.91474603     6    464    0    0    0
H 46.81306413 41.06999418 -20.69835081     6    464    0    0    0
H 49.32352433 42.28557541 -18.91200935     6    464    0    0    0
H 100.62936292 10.83756153 -40.86024233     6     469    0    0    0 
C 100.85634312 10.07579788 -38.85364338     1     468    470    471    472
H 102.35241041 8.72695637 -38.84409284     6     469    0    0    0
H 101.34191951 11.41383567 -37.34823346     6     469    0    0    0
C 98.46157110 8.80557532 -38.00336128     2     469    473    474    475
H 98.91374247 7.75501295 -36.46188413     6     472    0    0    0
H 97.20970014 10.06149499 -37.14166611     6     472    0    0    0
C 97.40364854 7.04930240 -39.98933730     2     472    476   477   478
H 96.63742714 8.10946549 -41.46679218     6     475    0    0    0
H 99.05244670 5.82896985 -40.78915293     6     475    0    0    0
C 95.25450877 5.43232752 -38.99808168     2     475   479   480   481
H 95.92496856 3.71959522 -38.23057520     6    478    0    0    0
H 93.98550745 6.22266764 -37.53407282     6    478    0    0    0
C 93.56398878 4.77077860 -41.28813888     2    478   482   483   484
H 92.81081466 6.56711619 -41.97020917     6    481    0    0    0
H 94.65670905 3.87420022 -42.83955389     6    481    0    0    0
C 91.45983592 2.92757613 -40.46426737     2    481   485   486   487
H 92.37054289 1.17709055 -39.56993830     6    484    0    0    0
H 90.41032113 3.80519063 -38.93064099     6    484    0    0    0
C 89.82457174 2.18969903 -42.73461721     2    484   488   489   490
H 88.63231428 3.70176845 -43.41813963     6    487    0    0    0
H 91.29381188 1.69484703 -44.18951576     6    487    0    0    0
C 88.10992485 -0.02842181 -42.12519630     2    487   491   492   493
H 89.30562243 -1.46714497 -41.34054410     6    490    0    0    0
H 86.76689582 0.20515437 -40.49852851     6    490    0    0    0
C 86.92109351 -1.11276018 -44.48213996     2    490   494   495   496
H 85.88934933 0.30043972 -45.48530791     6    493    0    0    0
H 88.30299050 -1.76197980 -45.83767256     6    493    0    0    0
C 84.98136199 -3.13339473 -43.94539654     2    493   497   498   499
H 85.89459444 -4.33501970 -42.48720136     6    496    0    0    0
H 83.36215723 -2.29713444 -42.87563932     6    496    0    0    0
C 84.27622351 -4.64754122 -46.36447204     2    496   500   501   502
H 83.26047497 -3.29915631 -47.58911891     6    499    0    0    0
H 85.93428521 -5.19371005 -47.26461020     6    499    0    0    0
C 82.90539181 -7.15360118 -45.78271919     1    499   503   504   505
H 82.19150784 -8.10311618 -47.39975255     6    502    0    0    0
H 81.28061987 -6.93939565 -44.47526289     6    502    0    0    0
H 84.27154519 -8.59640551 -44.93359209     6    502    0    0    0
H 61.94695057 2.27746699 -45.55977395     6     507    0    0    0 
C 61.02817597 3.15753876 -43.98675622     1     506    508    509    510
H 58.97796050 2.73806379 -44.00641478     6     507    0    0    0
H 61.41975575 2.33024737 -42.16726343     6     507    0    0    0
C 61.49873638 5.98433460 -43.94605644     2     507    511    512    513
H 63.54404008 6.25724557 -43.89404025     6     510    0    0    0
H 61.01874783 7.07935788 -45.66515796     6     510    0    0    0
C 60.38479694 7.26779081 -41.59581678     2     510    514   515   516
H 58.33110417 6.71434477 -41.48946178     6     513    0    0    0
H 61.25781280 6.64793068 -39.73517628     6     513    0    0    0
C 60.05922029 10.23117350 -41.63016287     2     513   517   518   519
H 61.81624312 11.12705240 -42.03167040     6    516    0    0    0
H 58.82810420 10.83924537 -43.01861757     6    516    0    0    0
C 59.35399536 11.43525665 -39.09500333     2    516   520   521   522
H 57.68836924 10.34197203 -38.30207748     6    519    0    0    0
H 60.97795808 11.05708961 -37.86832898     6    519    0    0    0
C 58.89962686 14.28944702 -39.23870469     2    519   523   524   525
H 60.60673011 15.21402944 -39.85400544     6    522    0    0    0
H 57.46859183 14.52681824 -40.62330769     6    522    0    0    0
C 57.94835196 15.45255506 -36.91090002     2    522   526   527   528
H 55.96215627 15.31086118 -37.00249467     6    525    0    0    0
H 58.57095092 14.66737467 -35.18724138     6    525    0    0    0
C 58.87989270 18.19091245 -36.83773397     2    525   529   530   531
H 60.99728625 18.35484602 -36.24626925     6    528    0    0    0
H 58.96801607 18.86049789 -38.77206045     6    528    0    0    0
C 57.05985467 19.90042459 -35.28177575     2    528   532   533   534
H 55.16221966 19.50015920 -35.97984903     6    531    0    0    0
H 56.86470714 19.28770376 -33.34438592     6    531    0    0    0
C 57.76112748 22.57256074 -35.57313201     2    531   535   536   537
H 59.73452267 23.06017002 -34.96480080     6    534    0    0    0
H 57.65337263 22.89199372 -37.69380465     6    534    0    0    0
C 55.79964957 24.27796174 -34.23327985     2    534   538   539   540
H 53.95309908 23.80085544 -34.89015101     6    537    0    0    0
H 55.71983260 23.92863979 -32.25725767     6    537    0    0    0
C 56.11244764 27.05049001 -34.92118850     1    537   541   542   543
H 54.41666699 28.09910224 -34.44791801     6    540    0    0    0
H 56.48935243 27.35543569 -36.94170129     6    540    0    0    0
H 57.75436119 27.96134873 -34.17414005     6    540    0    0    0
H 68.71701696 39.71402443 -33.55430518     6     545    0    0    0 
C 70.00999757 41.10561786 -34.30205979     1     544    546    547    548
H 68.93136412 41.73293463 -35.94829987     6     545    0    0    0
H 70.25905288 42.66250102 -33.02659890     6     545    0    0    0
C 72.56695349 40.16326212 -35.17382250     2     545    549    550    551
H 73.51871703 39.64458697 -33.43154746     6     548    0    0    0
H 72.42801709 38.41436474 -36.26676205     6     548    0    0    0
C 74.03824807 42.16642490 -36.86048494     2     548    552   553   554
H 72.58688314 43.00308198 -38.21370680     6     551    0    0    0
H 74.71540794 43.48587692 -35.47577262     6     551    0    0    0
C 76.14811153 41.08265804 -38.42340935     2     551   555   556   557
H 77.48691271 40.19871358 -37.19774295     6    554    0    0    0
H 75.34869335 39.66803698 -39.55013748     6    554    0    0    0
C 77.14156106 43.15348951 -40.26755185     2    554   558   559   560
H 75.79191228 44.02875717 -41.62585057     6    557    0    0    0
H 78.21274190 44.61941275 -39.27491774     6    557    0    0    0
C 79.11869311 41.81555587 -41.96819317     2    557   561   562   563
H 80.75642035 41.35528026 -40.70520481     6    560    0    0    0
H 78.52014692 40.13480021 -42.93897116     6    560    0    0    0
C 79.85236556 43.57822783 -44.21379881     2    560   564   565   566
H 78.30027810 44.06449611 -45.47406798     6    563    0    0    0
H 80.56287368 45.20520128 -43.24479948     6    563    0    0    0
C 82.20501756 42.41694950 -45.76860333     2    563   567   568   569
H 83.71184257 41.77826624 -44.56358487     6    566    0    0    0
H 81.60444940 40.76711642 -46.82446851     6    566    0    0    0
C 83.42576870 44.36777949 -47.52687657     2    566   570   571   572
H 81.96848140 44.63420122 -49.10546971     6    569    0    0    0
H 83.57408171 46.22022446 -46.60108796     6    569    0    0    0
C 86.01315189 43.46298330 -48.55643628     2    569   573   574   575
H 87.30887436 43.42690162 -47.04372993     6    572    0    0    0
H 85.73701343 41.53576771 -49.19361417     6    572    0    0    0
C 87.15143604 44.85551880 -50.73570806     2    572   576   577   578
H 87.72146176 46.79407953 -50.30801958     6    575    0    0    0
H 88.95361077 43.82636727 -51.28369283     6    575    0    0    0
C 85.53559492 44.77091930 -53.18068939     1    575   579   580   581
H 84.86336081 42.86385999 -53.85112110     6    578    0    0    0
H 86.17979464 45.80582047 -54.83483753     6    578    0    0    0
H 83.80228132 45.75394070 -52.70559980     6    578    0    0    0
H 93.14059591 9.48349585 -49.79083474     6     583    0    0    0 
C 93.90591927 11.07484714 -50.71447883     1     582    584    585    586
H 95.40263574 10.42045599 -51.83688238     6     583    0    0    0
H 92.51851618 11.39517124 -52.12683923     6     583    0    0    0
C 94.41366740 13.42395976 -49.01582288     2     583    587    588    589
H 92.91039524 14.02775006 -47.94124276     6     586    0    0    0
H 95.91670034 13.16767963 -47.60498342     6     586    0    0    0
C 95.27852827 15.51750950 -50.71517912     2     586    590   591   592
H 96.64478977 14.77174667 -52.21347530     6     589    0    0    0
H 93.64276838 16.24853539 -51.79506100     6     589    0    0    0
C 96.28653072 17.79182167 -49.27227803     2     589   593   594   595
H 94.90919676 18.72603217 -48.12408941     6    592    0    0    0
H 97.70381029 17.16505366 -47.87417807     6    592    0    0    0
C 97.69988461 19.83053012 -50.84221813     2    592   596   597   598
H 99.65474053 19.47148132 -51.32791104     6    595    0    0    0
H 96.79359473 20.21780260 -52.54788026     6    595    0    0    0
C 97.83396553 22.19704820 -49.07482117     2    595   599   600   601
H 96.07425888 22.81659591 -48.46067033     6    598    0    0    0
H 98.83531934 21.63846253 -47.36659199     6    598    0    0    0
C 99.25078390 24.45785815 -50.35036693     2    598   602   603   604
H 101.34080052 23.99320066 -50.49880498     6    601    0    0    0
H 98.62250951 24.66033425 -52.25995954     6    601    0    0    0
C 98.79867922 27.05213117 -49.18725252     2    601   605   606   607
H 96.82174880 27.52110758 -49.16018027     6    604    0    0    0
H 99.45977214 26.98530779 -47.19225255     6    604    0    0    0
C 100.49255419 29.06877115 -50.54739741     2    604   608   609   610
H 102.46681668 28.77994996 -49.94534104     6    607    0    0    0
H 100.40963694 28.52141269 -52.52869733     6    607    0    0    0
C 99.96560879 31.84426647 -49.95908583     2    607   611   612   613
H 98.44777624 32.44054947 -51.23575533     6    610    0    0    0
H 99.20985291 32.22258562 -48.06255254     6    610    0    0    0
C 102.17130887 33.58613816 -50.57288062     2    610   614   615   616
H 103.72300287 33.28519207 -49.17664859     6    613    0    0    0
H 102.94208815 33.32714727 -52.31317862     6    613    0    0    0
C 101.21370374 36.32945389 -50.21330499     1    613   617   618   619
H 102.37865440 37.89339763 -50.84280879     6    616    0    0    0
H 100.36517152 36.93502967 -48.46554485     6    616    0    0    0
H 99.69910158 36.75099581 -51.62438621     6    616    0    0    0
H 58.76941672 34.74894141 -59.34030137     6     621    0    0    0 
C 60.20641862 34.14907810 -57.95472476     1     620    622    623    624
H 61.26512774 35.90298800 -57.45580426     6     621    0    0    0
H 59.05737841 33.52274934 -56.38412082     6     621    0    0    0
C 61.88529439 32.20923291 -59.14642761     2     621    625    626    627
H 63.21278983 31.59272098 -57.65446622     6     624    0    0    0
H 60.64091080 30.72433854 -59.72385500     6     624    0    0    0
C 63.29956265 33.39589069 -61.45604209     2     624    628   629   630
H 61.94656284 34.10552670 -62.93139080     6     627    0    0    0
H 64.49718397 34.87114186 -60.72767297     6     627    0    0    0
C 64.80289295 31.40169382 -62.93834714     2     627   631   632   633
H 66.35647883 31.00255933 -61.60559054     6    630    0    0    0
H 63.59576079 29.83643534 -63.13913544     6    630    0    0    0
C 65.61964626 32.38144696 -65.58838556     2    630   634   635   636
H 64.36409969 31.91021877 -67.11306295     6    633    0    0    0
H 65.86022558 34.31267458 -65.69219118     6    633    0    0    0
C 68.21091401 31.05486077 -66.43760254     2    633   637   638   639
H 69.57445536 31.38830329 -64.90735108     6    636    0    0    0
H 67.83561842 29.10810855 -66.65530173     6    636    0    0    0
C 69.05592821 32.34491573 -68.88527825     2    636   640   641   642
H 67.63367294 32.71304193 -70.17550120     6    639    0    0    0
H 69.70833394 34.10096296 -68.32183383     6    639    0    0    0
C 71.31174938 30.93281001 -70.02331197     2    639   643   644   645
H 72.94632603 31.17256192 -68.59912881     6    642    0    0    0
H 70.84747265 29.00290534 -70.42092489     6    642    0    0    0
C 72.20212963 32.19519014 -72.48683903     2    642   646   647   648
H 70.69765594 32.54152409 -73.88104988     6    645    0    0    0
H 72.83573770 34.07948496 -72.00774691     6    645    0    0    0
C 74.50688759 30.90947083 -73.65891870     2    645   649   650   651
H 76.03252299 31.23057166 -72.28976577     6    648    0    0    0
H 74.50333001 28.91260011 -73.60928270     6    648    0    0    0
C 75.37020731 31.75127823 -76.43301503     2    648   652   653   654
H 73.75501162 31.71588040 -77.71184817     6    651    0    0    0
H 75.75964070 33.77966388 -76.65382578     6    651    0    0    0
C 77.60651763 30.12025343 -77.44810026     1    651   655   656   657
H 79.09316129 30.10831886 -76.10151979     6    654    0    0    0
H 78.24699756 30.88939589 -79.31227306     6    654    0    0    0
H 76.86247946 28.06486303 -77.45195705     6    654    0    0    0
H 91.34666526 21.34873555 -47.28806253     6     659    0    0    0 
C 90.33592835 22.41386166 -48.90804980     1     658    660    661    662
H 88.26885023 22.04316734 -48.57995846     6     659    0    0    0
H 90.41566397 24.47954159 -48.47166033     6     659    0    0    0
C 91.10595405 22.04307258 -51.63121986     2     659    663    664    665
H 93.10136222 22.01901901 -51.39708950     6     662    0    0    0
H 90.44439431 20.27008517 -52.50518155     6     662    0    0    0
C 90.29553131 24.20919581 -53.36342415     2     662    666   667   668
H 89.76615288 23.43728052 -55.18138429     6     665    0    0    0
H 88.49918258 25.17582968 -52.85963662     6     665    0    0    0
C 92.50301258 26.15499373 -53.62147457     2     665   669   670   671
H 93.71416197 26.28324541 -51.82732752     6    668    0    0    0
H 93.68930557 25.37952329 -55.10344044     6    668    0    0    0
C 91.66956454 28.85634291 -54.04844900     2    668   672   673   674
H 89.92701082 28.81634101 -55.22703778     6    671    0    0    0
H 91.11023352 29.81066369 -52.28717145     6    671    0    0    0
C 93.64571150 30.38703431 -55.50807368     2    671   675   676   677
H 95.44493622 30.88533347 -54.43437872     6    674    0    0    0
H 94.39022859 29.40051004 -57.22471606     6    674    0    0    0
C 92.53600529 32.94999601 -56.67331903     2    674   678   679   680
H 93.83605824 33.37328674 -58.09684529     6    677    0    0    0
H 90.70587022 32.72480208 -57.61607829     6    677    0    0    0
C 92.45366672 35.11138066 -54.67110750     2    677   681   682   683
H 91.88549190 34.33615120 -52.80712976     6    680    0    0    0
H 94.32738159 35.81082517 -54.58333729     6    680    0    0    0
C 90.33558648 37.08987719 -55.54932451     2    680   684   685   686
H 88.71263758 35.96668165 -56.18890470     6    683    0    0    0
H 89.62085006 38.16181009 -53.92478311     6    683    0    0    0
C 91.34772069 39.03706678 -57.39933643     2    683   687   688   689
H 93.07878372 39.87471460 -56.44173313     6    686    0    0    0
H 92.00887150 38.03488797 -59.11790484     6    686    0    0    0
C 89.37878229 41.00088881 -58.31006382     2    686   690   691   692
H 87.93936430 40.13349304 -59.60870362     6    689    0    0    0
H 88.42557107 41.85594470 -56.75881489     6    689    0    0    0
C 90.41536695 43.33124216 -59.65769638     1    689   693   694   695
H 89.02280475 44.85758136 -59.65725689     6    692    0    0    0
H 91.29983589 42.82321503 -61.46888608     6    692    0    0    0
H 91.91323375 44.02607704 -58.39369785     6    692    0    0    0
H 75.09353491 57.70630359 -49.57421196     6     697    0    0    0 
C 76.16603590 57.99884220 -47.71118510     1     696    698    699    700
H 78.06036641 58.50587094 -48.23407933     6     697    0    0    0
H 75.23961262 59.73529672 -47.08428100     6     697    0    0    0
C 75.96947409 55.60199826 -46.04871593     2     697    701    702    703
H 74.01724074 55.56312008 -45.53663351     6     700    0    0    0
H 76.59560042 54.03686959 -47.24811818     6     700    0    0    0
C 77.64682677 55.87282750 -43.60952667     2     700    704   705   706
H 79.62005181 56.36735579 -44.11503258     6     703    0    0    0
H 77.06420209 57.65576815 -42.64166453     6     703    0    0    0
C 77.53770443 53.68175842 -41.74461312     2     703   707   708   709
H 75.62888604 53.08702983 -41.78499337     6    706    0    0    0
H 78.76401353 52.07063793 -42.47791549     6    706    0    0    0
C 78.17540165 54.37557672 -38.92773231     2    706   710   711   712
H 80.13549918 55.17983092 -39.05926868     6    709    0    0    0
H 77.17515254 56.00220499 -38.35860486     6    709    0    0    0
C 78.38586892 52.22842836 -36.96710999     2    709   713   714   715
H 79.57323365 50.74798024 -37.84003013     6    712    0    0    0
H 79.12753184 52.82186818 -35.09320317     6    712    0    0    0
C 75.68084714 51.09440479 -36.87899027     2    712   716   717   718
H 74.16758493 52.41871241 -36.40654619     6    715    0    0    0
H 75.15559487 50.31889493 -38.75993806     6    715    0    0    0
C 75.33953414 48.84277053 -35.20243609     2    715   719   720   721
H 73.59747630 47.87335280 -35.63541717     6    718    0    0    0
H 76.82958688 47.38285935 -35.66821892     6    718    0    0    0
C 75.32069344 49.10367984 -32.19559011     2    718   722   723   724
H 77.16001033 49.86948958 -31.65934123     6    721    0    0    0
H 73.92965038 50.30314272 -31.47977373     6    721    0    0    0
C 75.10771207 46.48953666 -30.80188992     2    721   725   726   727
H 73.22386281 45.51427615 -31.34605679     6    724    0    0    0
H 76.77650245 45.32146037 -31.50830784     6    724    0    0    0
C 74.88093984 46.83589779 -27.87221351     2    724   728   729   730
H 73.41344857 48.09830188 -27.29863361     6    727    0    0    0
H 74.31871801 44.97356321 -27.14701713     6    727    0    0    0
C 77.34764357 47.59993631 -26.54855419     1    727   731   732   733
H 77.11667094 47.50440508 -24.60504846     6    730    0    0    0
H 77.85261918 49.58299336 -26.99113949     6    730    0    0    0
H 78.90714717 46.28993607 -27.10746479     6    730    0    0    0
H 87.74559335 15.45051780 -31.14254287     6     735    0    0    0 
C 88.03500635 13.73323617 -30.03069303     1     734    736    737    738
H 89.90351411 13.73161139 -29.29143989     6     735    0    0    0
H 86.73538122 13.77534218 -28.40985090     6     735    0    0    0
C 87.75995503 11.34634776 -31.60208808     2     735    739    740    741
H 89.14606528 11.21738217 -33.07918117     6     738    0    0    0
H 88.33587639 9.86632923 -30.30161412     6     738    0    0    0
C 85.28879560 10.61840205 -32.71492615     2     738    742   743   744
H 83.74794984 10.87717224 -31.32972099     6     741    0    0    0
H 84.63530630 11.88283943 -34.12777879     6     741    0    0    0
C 85.27105574 7.85298741 -33.94729285     2     741   745   746   747
H 86.56869465 7.76106437 -35.58420580     6    744    0    0    0
H 86.14032372 6.50796767 -32.66447400     6    744    0    0    0
C 82.57363801 6.91846202 -34.46700634     2    744   748   749   750
H 81.36133146 7.06351753 -32.78247827     6    747    0    0    0
H 81.56583468 8.32654621 -35.76221026     6    747    0    0    0
C 82.65789672 4.26575141 -35.70188969     2    747   751   752   753
H 83.36521451 4.49076940 -37.57834002     6    750    0    0    0
H 84.01796789 3.01715169 -34.76431736     6    750    0    0    0
C 80.12678123 3.00535182 -35.62911019     2    750   754   755   756
H 79.47324388 2.66789145 -33.65868262     6    753    0    0    0
H 78.79299342 4.21846845 -36.40477425     6    753    0    0    0
C 80.30945299 0.49836942 -37.04309580     2    753   757   758   759
H 81.56224289 0.74634755 -38.66452939     6    756    0    0    0
H 81.35941406 -0.77843806 -35.83038046     6    756    0    0    0
C 77.71095601 -0.51878176 -37.75576888     2    756   760   761   762
H 76.69343077 0.90792199 -38.65735299     6    759    0    0    0
H 78.10405733 -2.00935335 -39.08226032     6    759    0    0    0
C 76.02775985 -1.40801576 -35.42386533     2    759   763   764   765
H 77.06260870 -2.41691912 -33.98280194     6    762    0    0    0
H 75.41491458 0.33708109 -34.61329103     6    762    0    0    0
C 73.74033814 -3.01648191 -36.31160940     2    762   766   767   768
H 72.57567018 -3.26935660 -34.64085420     6    765    0    0    0
H 72.67521953 -1.97819517 -37.78910970     6    765    0    0    0
C 74.40174873 -5.69746542 -37.18336564     1    765   769   770   771
H 75.03964250 -5.75203497 -39.09455680     6    768    0    0    0
H 72.80347680 -7.00714880 -37.30673662     6    768    0    0    0
H 75.75222666 -6.67443652 -36.01835331     6    768    0    0    0
H 57.74017126 23.78262683 -68.65755906     6     773    0    0    0 
C 55.85014828 24.20860537 -69.69648765     1     772    774    775    776
H 56.26746061 25.53875505 -71.22808078     6     773    0    0    0
H 55.37511433 22.29546504 -70.25260978     6     773    0    0    0
C 53.89572438 25.20604591 -67.85268113     2     773    777    778    779
H 52.18087794 25.69872209 -68.75192257     6     776    0    0    0
H 53.26084919 23.65267169 -66.60552921     6     776    0    0    0
C 54.87722107 27.52075144 -66.43644796     2     776    780   781   782
H 56.92466391 27.34613066 -65.98261428     6     779    0    0    0
H 54.62751266 29.17127521 -67.63651582     6     779    0    0    0
C 53.42150893 27.93678015 -64.03589787     2     779   783   784   785
H 51.49793871 28.37813506 -64.46807567     6    782    0    0    0
H 53.51700646 26.25595265 -63.08526752     6    782    0    0    0
C 54.56636532 30.00132408 -62.32247670     2    782   786   787   788
H 56.41053951 29.56901372 -61.59882526     6    785    0    0    0
H 54.72447436 31.83244208 -63.28136810     6    785    0    0    0
C 52.75984969 30.30694552 -60.21225648     2    785   789   790   791
H 50.93304735 31.08921341 -61.08480959     6    788    0    0    0
H 52.34465436 28.43733901 -59.30799330     6    788    0    0    0
C 53.76258227 31.97177496 -58.03263083     2    788   792   793   794
H 55.47215661 31.03848249 -57.31706042     6    791    0    0    0
H 54.45834110 33.71574565 -58.48281746     6    791    0    0    0
C 51.67994765 32.45390346 -56.13470649     2    791   795   796   797
H 50.01402121 33.11848287 -57.02498468     6    794    0    0    0
H 51.21372845 30.65633510 -55.22889401     6    794    0    0    0
C 52.73092123 34.11236993 -53.97697806     2    794   798   799   800
H 54.31324248 33.03707451 -53.22729453     6    797    0    0    0
H 53.51198128 35.87935216 -54.57765543     6    797    0    0    0
C 50.78990698 34.51134872 -51.83659812     2    797   801   802   803
H 49.02395744 35.21804687 -52.69279587     6    800    0    0    0
H 50.38822474 32.61554973 -50.92593803     6    800    0    0    0
C 51.82420505 36.50830954 -49.94991433     2    800   804   805   806
H 53.79951907 35.87423060 -49.41286726     6    803    0    0    0
H 52.01439783 38.33927546 -50.89078108     6    803    0    0    0
C 50.25203212 36.54404372 -47.46212460     1    803   807   808   809
H 50.93273327 37.82484000 -45.97409188     6    806    0    0    0
H 50.08013252 34.67553090 -46.53116450     6    806    0    0    0
H 48.23930980 37.20466426 -47.71407857     6    806    0    0    0
H 83.68961215 17.33007315 -49.02752352     6     811    0    0    0 
C 83.93473877 15.53773727 -48.17849390     1     810    812    813    814
H 86.02232255 15.41371904 -47.92828118     6     811    0    0    0
H 83.00273675 15.41728107 -46.35785271     6     811    0    0    0
C 82.87272354 13.39815639 -49.87514293     2     811    815    816    817
H 83.72448691 13.57229664 -51.71206119     6     814    0    0    0
H 83.55980726 11.67675614 -48.82390268     6     814    0    0    0
C 79.90637505 13.16485945 -49.79001169     2     814    818   819   820
H 79.35561504 12.68545428 -47.76903718     6     817    0    0    0
H 79.01887664 15.04656939 -50.08892645     6     817    0    0    0
C 78.92484368 11.07743938 -51.46470869     2     817   821   822   823
H 76.90370379 11.29243969 -51.53583819     6    820    0    0    0
H 79.39137527 11.23975380 -53.39247673     6    820    0    0    0
C 79.35106594 8.29802916 -50.60207374     2    820   824   825   826
H 81.19060250 7.61345613 -50.81638350     6    823    0    0    0
H 78.91655732 7.95393279 -48.69548728     6    823    0    0    0
C 77.71603901 6.39796964 -51.93895053     2    823   827   828   829
H 75.80619276 7.07823392 -51.82518023     6    826    0    0    0
H 78.17673672 6.19957637 -53.90916148     6    826    0    0    0
C 77.94670292 3.65304508 -51.01945017     2    826   830   831   832
H 79.81649526 2.86541228 -50.68887636     6    829    0    0    0
H 77.22198367 3.82836497 -49.22859048     6    829    0    0    0
C 76.43152549 1.91699208 -52.74184798     2    829   833   834   835
H 74.78520284 2.83571533 -53.65314044     6    832    0    0    0
H 77.81341747 1.66361423 -54.13775631     6    832    0    0    0
C 75.68782087 -0.70003732 -51.71445888     2    832   836   837   838
H 77.41527621 -1.71333725 -51.02240788     6    835    0    0    0
H 74.56145292 -0.61389529 -49.95429201     6    835    0    0    0
C 74.12442692 -2.09966285 -53.66975531     2    835   839   840   841
H 72.36788206 -1.16551067 -54.12518495     6    838    0    0    0
H 75.29294611 -2.51712511 -55.35933356     6    838    0    0    0
C 73.24330774 -4.55673277 -52.54295028     2    838   842   843   844
H 74.64548131 -5.45711048 -51.43409148     6    841    0    0    0
H 71.73766047 -4.16745820 -51.30661515     6    841    0    0    0
C 72.32669761 -6.29333058 -54.68808969     1    841   845   846   847
H 70.46486722 -5.87426061 -55.34400306     6    844    0    0    0
H 72.67495147 -8.23643842 -54.32845712     6    844    0    0    0
H 73.60165046 -5.97442123 -56.24963502     6    844    0    0    0
H 93.67965715 40.36501468 -65.10365336     6     849    0    0    0 
C 95.24120664 41.59634476 -65.43771749     1     848    850    851    852
H 95.54908560 42.09349030 -67.44083897     6     849    0    0    0
H 95.00090675 43.41489868 -64.57262443     6     849    0    0    0
C 97.52207813 40.20799272 -64.41835888     2     849    853    854    855
H 97.78551286 38.46377648 -65.54523846     6     852    0    0    0
H 99.38632338 41.27738744 -64.60456232     6     852    0    0    0
C 97.35200140 39.65397264 -61.60048389     2     852    856   857   858
H 99.17323509 39.85316505 -60.59989244     6     855    0    0    0
H 95.86745996 40.76549263 -60.54659245     6     855    0    0    0
C 96.80724061 36.79855060 -60.97578331     2     855   859   860   861
H 96.20211571 36.63430489 -58.94078468     6    858    0    0    0
H 95.02771225 36.13564608 -61.69862449     6    858    0    0    0
C 99.02402364 35.02742772 -61.88065574     2    858   862   863   864
H 99.30566709 35.16664175 -63.91560336     6    861    0    0    0
H 100.66085658 35.87855040 -61.05796314     6    861    0    0    0
C 98.67747455 32.24087165 -60.92778544     2    861   865   866   867
H 98.77879493 32.39855318 -58.92049708     6    864    0    0    0
H 96.79482224 31.49471260 -61.56629023     6    864    0    0    0
C 100.99084489 30.48200796 -61.46270733     2    864   868   869   870
H 101.26322292 30.37288761 -63.57514323     6    867    0    0    0
H 102.66531027 31.51229685 -60.69985328     6    867    0    0    0
C 100.65375600 27.65016375 -60.64966010     2    867   871   872   873
H 99.67108435 27.39540107 -58.82613119     6    870    0    0    0
H 99.46276823 26.92704153 -62.17335181     6    870    0    0    0
C 103.10507244 26.14126514 -60.64441209     2    870   874   875   876
H 102.98558520 24.32645735 -61.71502986     6    873    0    0    0
H 104.41772164 27.25469718 -61.78120117     6    873    0    0    0
C 103.95888677 25.80853467 -57.90256230     2    873   877   878   879
H 103.39121929 27.41151367 -56.90916488     6    876    0    0    0
H 102.84518894 24.27889714 -56.99107603     6    876    0    0    0
C 106.93843877 25.35041096 -57.70284553     2    876   880   881   882
H 107.43357447 24.18014397 -59.20788738     6    879    0    0    0
H 108.00451867 27.06399970 -58.01841684     6    879    0    0    0
C 107.59944610 24.39287893 -55.16494080     1    879   883   884   885
H 106.50734212 22.70333571 -54.66759452     6    882    0    0    0
H 107.18269222 25.45909318 -53.49481596     6    882    0    0    0
H 109.65408822 23.96367866 -55.06808578     6    882    0    0    0
H 69.60495808 20.14092354 -51.82511163     6     887    0    0    0 
C 71.30272034 20.45235899 -53.04297274     1     886    888    889    890
H 72.42346212 18.70739259 -53.18359891     6     887    0    0    0
H 70.59224873 21.03935076 -54.96904216     6     887    0    0    0
C 73.42899888 22.28330982 -52.23357383     2     887    891    892    893
H 74.61112510 22.64008030 -53.81891200     6     890    0    0    0
H 72.39963712 24.11633694 -51.84667621     6     890    0    0    0
C 74.73998263 21.52958628 -49.81388162     2     890    894   895   896
H 73.65694041 21.89300566 -48.14788342     6     893    0    0    0
H 74.88390013 19.55202592 -49.91183749     6     893    0    0    0
C 77.37940011 22.69648782 -49.43645997     2     893   897   898   899
H 78.66404568 22.25563069 -50.98670211     6    896    0    0    0
H 77.22344963 24.73537873 -49.50293178     6    896    0    0    0
C 78.99476754 22.19416089 -47.12174180     2    896   900   901   902
H 77.70166269 22.56895460 -45.54675495     6    899    0    0    0
H 79.52951989 20.15651946 -46.93551925     6    899    0    0    0
C 81.42886216 23.73915477 -46.64537280     2    899   903   904   905
H 82.44971786 24.08750712 -48.46278914     6    902    0    0    0
H 80.98664727 25.56924133 -45.91998252     6    902    0    0    0
C 83.15581306 22.34160708 -44.77681029     2    902   906   907   908
H 81.98789376 22.29347859 -43.14980458     6    905    0    0    0
H 83.50613911 20.42876037 -45.33903795     6    905    0    0    0
C 85.35081628 23.82574203 -44.05401077     2    905   909   910   911
H 86.46202608 24.51332719 -45.65206662     6    908    0    0    0
H 84.91431662 25.50403610 -42.94534399     6    908    0    0    0
C 87.36915040 22.29955113 -42.39000838     2    908   912   913   914
H 86.89122992 21.85417121 -40.47032479     6    911    0    0    0
H 88.00596403 20.52639468 -43.32660171     6    911    0    0    0
C 89.73929260 24.08894431 -42.13146786     2    911   915   916   917
H 90.38908464 24.70955391 -43.93891734     6    914    0    0    0
H 89.10167310 25.76854450 -41.02186746     6    914    0    0    0
C 91.77790990 22.80878547 -40.63363276     2    914   918   919   920
H 90.90341918 22.40853724 -38.94658767     6    917    0    0    0
H 92.58632346 21.09932553 -41.58612525     6    917    0    0    0
C 94.03174691 24.46521104 -39.78422828     1    917   921   922   923
H 93.56572467 26.42927915 -39.72436880     6    920    0    0    0
H 95.59062155 24.39434399 -41.05505873     6    920    0    0    0
H 94.71321555 23.92102929 -37.87227860     6    920    0    0    0
H 92.20163065 26.31215109 -72.70529832     6     925    0    0    0 
C 91.14220111 27.73189139 -71.78874599     1     924    926    927    928
H 90.17043078 28.87235584 -73.31842766     6     925    0    0    0
H 89.70530343 26.69821858 -70.81949886     6     925    0    0    0
C 92.59084299 29.62482137 -69.98085058     2     925    929    930    931
H 94.03033827 30.83573022 -70.83330654     6     928    0    0    0
H 91.24140765 30.92999318 -69.02275340     6     928    0    0    0
C 94.19232867 28.14528243 -67.93677504     2     928    932   933   934
H 95.62729716 26.88286660 -68.80969126     6     931    0    0    0
H 95.36568398 29.47805986 -66.80878868     6     931    0    0    0
C 92.56306284 26.86826814 -65.86620959     2     931   935   936   937
H 91.24738568 28.20470115 -64.97638108     6    934    0    0    0
H 91.34892502 25.36285191 -66.65818986     6    934    0    0    0
C 94.19346655 25.78033811 -63.77366444     2    934   938   939   940
H 95.81691066 24.79870000 -64.63152275     6    937    0    0    0
H 95.08571825 27.34253487 -62.79428614     6    937    0    0    0
C 92.78486682 23.86531790 -61.98706452     2    937   941   942   943
H 91.25875193 24.73235458 -60.99736714     6    940    0    0    0
H 91.80444992 22.39731951 -63.12598900     6    940    0    0    0
C 94.43447295 22.97632672 -59.83339658     2    940   944   945   946
H 95.26718835 24.48694356 -58.75452800     6    943    0    0    0
H 93.17652749 21.85706961 -58.44382377     6    943    0    0    0
C 96.48513467 21.05272517 -60.60721354     2    943   947   948   949
H 95.58709608 19.31831412 -61.23950609     6    946    0    0    0
H 97.39944906 21.54829273 -62.25060463     6    946    0    0    0
C 98.12654538 20.49956108 -58.34917542     2    946   950   951   952
H 98.84983339 22.34815159 -57.62138175     6    949    0    0    0
H 96.99316973 19.50199263 -56.93451771     6    949    0    0    0
C 100.47424590 19.01609674 -59.22408910     2    949   953   954   955
H 100.09209204 17.37733835 -60.39902189     6    952    0    0    0
H 101.17038174 20.26463036 -60.76486038     6    952    0    0    0
C 102.32306888 18.23361086 -57.05335373     2    952   956   957   958
H 102.20389409 19.55744481 -55.46752537     6    955    0    0    0
H 101.87274273 16.40782228 -56.10367979     6    955    0    0    0
C 105.08384779 18.03274337 -57.79748733     1    955   959   960   961
H 106.32105387 17.56948764 -56.27135674     6    958    0    0    0
H 105.62852763 19.99596773 -58.31822317     6    958    0    0    0
H 105.36997819 16.89211216 -59.45201961     6    958    0    0    0
H 70.42641943 21.83815716 -35.39863256     6     963    0    0    0 
C 71.68080309 20.47922029 -34.23828429     1     962    964    965    966
H 70.41782081 19.36344486 -33.04607069     6     963    0    0    0
H 72.57745867 19.23491659 -35.60246808     6     963    0    0    0
C 73.78407100 21.84342766 -32.79308642     2     963    967    968    969
H 75.06961342 20.36043929 -32.18034958     6     966    0    0    0
H 74.92032021 22.81664404 -34.18984415     6     966    0    0    0
C 72.52988846 23.69779863 -30.83603480     2     966    970   971   972
H 71.04723523 22.34719541 -29.99572945     6     969    0    0    0
H 73.89969191 24.24145094 -29.38259984     6     969    0    0    0
C 71.13624754 25.93601114 -32.11871159     2     969   973   974   975
H 72.51958779 26.96557026 -33.10649304     6    972    0    0    0
H 69.89431985 25.49193527 -33.46951777     6    972    0    0    0
C 69.85302073 27.58959636 -30.24346498     2    972   976   977   978
H 68.30344506 26.61471021 -29.44384998     6    975    0    0    0
H 71.19180841 28.00850524 -28.80706381     6    975    0    0    0
C 69.10856222 29.94211081 -31.73548686     2    975   979   980   981
H 70.89089566 30.55134449 -32.43376946     6    978    0    0    0
H 67.83280814 29.18071169 -33.19319553     6    978    0    0    0
C 67.79822791 32.00705247 -30.21505552     2    978   982   983   984
H 66.02031623 31.24607973 -29.42076504     6    981    0    0    0
H 69.10960335 32.83664566 -28.82853777     6    981    0    0    0
C 66.97084529 33.99254285 -32.02519575     2    981   985   986   987
H 68.61653501 35.08305511 -32.72436791     6    984    0    0    0
H 66.42470679 32.99811490 -33.88996410     6    984    0    0    0
C 64.96066687 35.71739333 -31.01420369     2    984   988   989   990
H 64.50024092 37.05697874 -32.38671712     6    987    0    0    0
H 63.17129018 34.68424642 -30.78056827     6    987    0    0    0
C 65.45007120 37.32756175 -28.60461991     2    987   991   992   993
H 65.64822750 36.06111954 -26.92510017     6    990    0    0    0
H 67.22281318 38.53943790 -28.61724090     6    990    0    0    0
C 63.07003422 38.82111950 -27.98209739     2    990   994   995   996
H 62.66543541 40.11384670 -29.56056496     6    993    0    0    0
H 61.44893085 37.55089264 -27.86367700     6    993    0    0    0
C 63.29289047 40.50244777 -25.59085144     1    993   997   998   999
H 64.08410664 39.06426960 -24.21016005     6    996    0    0    0
H 61.42602935 41.17299297 -24.92237280     6    996    0    0    0
H 64.68521284 42.00662914 -25.81864652     6    996    0    0    0
H 65.62851053 11.16502186 -33.18619761     6     1001    0    0    0 
C 64.83452491 13.04088053 -33.43451525     1     1000    1002    1003    1004
H 64.83113717 13.34657750 -35.48676377     6     1001    0    0    0
H 62.85799567 13.15555454 -32.81622981     6     1001    0    0    0
C 66.08260990 15.03082389 -31.95372466     2     1001    1005    1006    1007
H 68.21334597 14.66326827 -31.95264191     6     1004    0    0    0
H 66.04205951 16.75791281 -33.23326088     6     1004    0    0    0
C 64.78820564 15.35506821 -29.27343690     2     1004    1008   1009   1010
H 62.79845857 14.92535579 -28.92935071     6     1007    0    0    0
H 65.70428226 13.94275843 -28.00100511     6     1007    0    0    0
C 65.27368800 17.94083976 -28.50220048     2     1007   1011   1012   1013
H 67.26413209 18.31471785 -28.79100480     6    1010    0    0    0
H 64.14781599 19.27609481 -29.56330515     6    1010    0    0    0
C 64.88593330 18.17043046 -25.58011611     2    1010   1014   1015   1016
H 63.27591886 17.04818518 -24.90601951     6    1013    0    0    0
H 66.52027631 17.37362971 -24.76059220     6    1013    0    0    0
C 64.73263571 20.92354153 -24.67417300     2    1013   1017   1018   1019
H 66.46479739 21.92473405 -25.29876862     6    1016    0    0    0
H 63.12605520 21.62308984 -25.79061888     6    1016    0    0    0
C 64.19677710 21.21052041 -21.76807119     2    1016   1020   1021   1022
H 62.55890309 20.06183387 -21.46284687     6    1019    0    0    0
H 65.56201865 20.29544210 -20.70121352     6    1019    0    0    0
C 63.90224671 23.83141394 -20.76186380     2    1019   1023   1024   1025
H 62.30385770 24.71586881 -21.72540283     6    1022    0    0    0
H 63.57722412 23.88688719 -18.73085273     6    1022    0    0    0
C 66.37886938 25.41722264 -21.23874888     2    1022   1026   1027   1028
H 67.98597332 24.42655209 -20.30480682     6    1025    0    0    0
H 66.58656827 25.44277354 -23.20630792     6    1025    0    0    0
C 66.03180482 28.07302392 -19.93939270     2    1025   1029   1030   1031
H 64.02405543 28.81474586 -20.17462565     6    1028    0    0    0
H 66.50124760 27.87163601 -17.98405320     6    1028    0    0    0
C 67.64251494 30.18903761 -21.42798463     2    1028   1032   1033   1034
H 69.64609757 29.66315540 -21.64309126     6    1031    0    0    0
H 67.03075811 30.38770934 -23.35742161     6    1031    0    0    0
C 67.10822299 32.81267851 -20.33003104     1    1031   1035   1036   1037
H 67.71424049 34.18571089 -21.76445172     6    1034    0    0    0
H 68.30196568 33.09838634 -18.65520721     6    1034    0    0    0
H 65.03543054 33.14293938 -20.02048850     6    1034    0    0    0
H 57.25221519 23.31769965 -56.20694230     6     1039    0    0    0 
C 57.96785431 23.90174628 -58.10797841     1     1038    1040    1041    1042
H 56.24888481 23.82961552 -59.22253995     6     1039    0    0    0
H 58.81664012 25.75844605 -58.14284572     6     1039    0    0    0
C 59.81114206 21.86606260 -58.97638443     2     1039    1043    1044    1045
H 61.52925473 22.42350035 -57.95507798     6     1042    0    0    0
H 59.48814307 20.01714277 -58.25486326     6     1042    0    0    0
C 60.50092391 22.17479647 -61.68702108     2     1042    1046   1047   1048
H 58.94653865 21.67678538 -62.80487293     6     1045    0    0    0
H 61.13310682 24.12834786 -61.82156880     6     1045    0    0    0
C 62.91875565 20.62279546 -62.37212960     2     1045   1049   1050   1051
H 64.47004229 20.54059162 -60.98849275     6    1048    0    0    0
H 62.46282101 18.68732993 -62.37968234     6    1048    0    0    0
C 63.91501501 21.35979260 -65.05311779     2    1048   1052   1053   1054
H 62.26965577 21.61396354 -66.38327067     6    1051    0    0    0
H 64.91798763 23.12194931 -65.11209883     6    1051    0    0    0
C 65.52147749 19.17088156 -66.15474852     2    1051   1055   1056   1057
H 66.74369362 18.57731666 -64.62007233     6    1054    0    0    0
H 64.39290372 17.55488611 -66.60194117     6    1054    0    0    0
C 67.09493072 19.74451066 -68.43465564     2    1054   1058   1059   1060
H 66.14393640 20.82490711 -69.94734213     6    1057    0    0    0
H 68.36316454 21.18503115 -67.58024632     6    1057    0    0    0
C 68.77112049 17.55889792 -69.39026087     2    1057   1061   1062   1063
H 69.95825547 16.96764820 -67.93819763     6    1060    0    0    0
H 67.77570258 15.91253494 -69.76705115     6    1060    0    0    0
C 70.62183257 18.59492092 -71.44605136     2    1060   1064   1065   1066
H 69.34892454 19.48866948 -72.85142129     6    1063    0    0    0
H 71.61812167 20.16963285 -70.56423488     6    1063    0    0    0
C 72.62244965 16.88679173 -72.74277660     2    1063   1067   1068   1069
H 73.60424983 15.69198509 -71.27257613     6    1066    0    0    0
H 71.65624649 15.49647962 -73.90197279     6    1066    0    0    0
C 74.42336553 18.36203151 -74.44810546     2    1066   1070   1071   1072
H 73.36654247 19.18059901 -75.97998923     6    1069    0    0    0
H 75.51136543 20.04478911 -73.58794962     6    1069    0    0    0
C 76.41343646 16.62080374 -75.68100920     1    1069   1073   1074   1075
H 77.70452481 16.22320377 -73.97640814     6    1072    0    0    0
H 77.47779560 17.63795398 -77.14560941     6    1072    0    0    0
H 75.93849919 14.80165533 -76.34463940     6    1072    0    0    0
H 86.21015671 34.86459430 -72.64823569     6     1077    0    0    0 
C 84.18778887 34.99760297 -72.91954087     1     1076    1078    1079    1080
H 83.99752023 37.06910122 -72.39519303     6     1077    0    0    0
H 83.46553692 34.98017686 -74.86240481     6     1077    0    0    0
C 82.79917163 33.36672934 -71.05058275     2     1077    1081    1082    1083
H 82.43461856 34.14279705 -69.19315028     6     1080    0    0    0
H 80.85445628 33.29343175 -71.68226636     6     1080    0    0    0
C 83.98026130 30.67642875 -70.68258164     2     1080    1084   1085   1086
H 83.99010541 29.71766937 -72.40918653     6     1083    0    0    0
H 85.91651199 30.97119464 -70.25118384     6     1083    0    0    0
C 82.60413455 28.93281005 -68.67666918     2     1083   1087   1088   1089
[...]
 1619      H      44.8663256800    27.5262588700   -52.7081975600
 1620      H      45.3578298300    30.1997095300   -54.4471390800
 1621      C      42.0505833200    30.5551556500   -52.6242734700
 1622      H      41.5354370800    32.0372744700   -53.9370933600
 1623      H      40.1988493200    29.8228740000   -52.3154997300
 1624      C      43.0992206800    31.7088417300   -50.0250769900
 1625      H      43.2922167400    30.0967716100   -48.8053768100
 1626      H      45.0172925300    32.4659365000   -50.1992686100
 1627      C      41.1876347400    33.4090236100   -48.7436226600
 1628      H      41.0520557400    35.1002367100   -49.9873551900
 1629      H      39.2795235800    32.5684754500   -48.9735746300
 1630      C      41.9027219800    34.0152246500   -46.0233587300
 1631      H      42.6094978100    32.3427274900   -45.1429905500
 1632      H      43.4268697000    35.4409103100   -46.0274622000
 1633      C      39.7549834100    35.1240868400   -44.5123302600
 1634      H      38.6450572700    36.4809375400   -45.6984252200
 1635      H      38.4051732200    33.5569831600   -44.1985359900
 1636      C      40.5969450500    36.1260207800   -41.8854197800
 1637      H      41.1402325100    34.6575509600   -40.6801066700
 1638      H      42.2247294000    37.3531242900   -42.2713111000
 1639      C      38.5009244600    37.7134764100   -40.4406794100
 1640      H      37.7593284500    39.1576078500   -41.6395200300
 1641      H      37.1517846700    36.3558317400   -39.7766586900
 1642      C      39.5683326500    39.1026566200   -38.1457717300
 1643      H      39.9346987200    37.8729045400   -36.5723856500
 1644      H      38.2477786500    40.5085211100   -37.4325839600
 1645      H      41.4216259900    40.0166666000   -38.3454632200
 1646      H      39.3771853000     6.7856035800   -58.7774345200
 1647      C      38.3595060700     6.9334472300   -57.0724383000
 1648      H      36.9680562700     8.6553036900   -56.8223696600
 1649      H      36.9780071400     5.3797730000   -57.1099677400
 1650      C      40.2266153800     6.7507105400   -54.8751378600
 1651      H      39.2763838600     6.7471563700   -53.0591159800
 1652      H      41.3156636600     5.0953153700   -54.9180469200
 1653      C      41.9410750300     9.1581874300   -55.1748830400
 1654      H      43.2124380000     9.0975245900   -56.7059878100
 1655      H      40.8157752600    10.8992742200   -55.3438269800
 1656      C      43.7208273600     9.3457868000   -52.8553927200
 1657      H      44.9267535100     7.6874359700   -52.9107612700
 1658      H      44.9920903000    10.8334240100   -53.0661600400
 1659      C      42.5830107800     9.8675643800   -50.2363776100
 1660      H      40.5991128900    10.4189760200   -50.5624594400
 1661      H      42.7244882100     7.9487867400   -49.4992286400
 1662      C      44.2517916300    11.6708150500   -48.4586934800
 1663      H      45.9419199700    10.6502691700   -47.7843250800
 1664      H      44.7627898700    13.5031518100   -49.1440638800
 1665      C      42.7294191500    12.4240905000   -46.1480462700
 1666      H      41.0978684100    13.4158342400   -46.8856199100
 1667      H      41.8545566000    10.6218858200   -45.4442946600
 1668      C      44.0318778200    13.7209150100   -43.9355979900
 1669      H      45.5553476500    12.6034972800   -43.2720496400
 1670      H      45.1319506300    15.2422492100   -44.6839196600
 1671      C      42.2128306000    14.6433535800   -41.7961126900
 1672      H      40.6530179600    15.7003168300   -42.7226267400
 1673      H      41.5386950600    12.8778559900   -40.9278998100
 1674      C      43.7049046100    16.3572144200   -39.8057787300
 1675      H      42.7092230700    16.4833395300   -38.0880873300
 1676      H      45.6108066600    15.8588874800   -39.0718565200
 1677      C      43.9911943400    19.0064916200   -40.8888825800
 1678      H      44.7360599000    18.9981187600   -42.8352949200
 1679      H      42.2344092900    19.7383826100   -40.9521575100
 1680      C      45.4972924000    20.8299759400   -39.2212595400
 1681      H      45.7248571100    22.4745280200   -40.3474694500
 1682      H      47.4358307500    20.0107293700   -38.7572468700
 1683      H      44.6431127800    21.1809292400   -37.3896362800
 1684      H      69.2530540200    12.5725816900   -39.9558960500
 1685      C      67.4634207900    12.6254876700   -40.9632196500
 1686      H      67.6184830900    11.4895653300   -42.7628855500
 1687      H      66.0646691900    11.6837988000   -39.8281758500
 1688      C      66.3362893900    15.2547275800   -41.4856885900
 1689      H      65.0052412900    15.6308857300   -40.0927409700
 1690      H      67.9721020300    16.4658052400   -41.2963492000
 1691      C      65.2283169200    15.7040052800   -44.2026111500
 1692      H      66.5769835000    14.7921421000   -45.4334569600
 1693      H      63.7394759200    14.2537982000   -44.4497037900
 1694      C      64.8377096400    18.4845427500   -45.0003844500
 1695      H      66.6164183200    19.4086893100   -45.1566070900
 1696      H      63.9163313700    18.4457380500   -46.8320758200
 1697      C      63.2266714900    20.0768339200   -43.0664493000
 1698      H      61.6307649400    18.6912284500   -42.7152372500
 1699      H      64.1607396000    20.4584776200   -41.3048297600
 1700      C      62.2206829200    22.5173399200   -44.1132544300
 1701      H      61.0668293800    23.5554849800   -42.7159920500
 1702      H      63.8326113900    23.5519835800   -44.8685728800
 1703      C      60.1815963900    22.1635304100   -46.2703807600
 1704      H      60.8495428100    21.1725251900   -47.9841822600
 1705      H      58.7714643500    20.9637169700   -45.5244683100
 1706      C      58.7825313300    24.6298194300   -47.1811489100
 1707      H      58.1240059100    25.4628594000   -45.3234211700
 1708      H      60.0211646600    25.9076772700   -48.1017155400
 1709      C      56.6230040100    24.1219636800   -49.0207277000
 1710      H      57.4315663400    23.1422592600   -50.6154296200
 1711      H      55.3286563900    22.6822813800   -48.2224942400
 1712      C      55.1129646900    26.4514404500   -49.7923812700
 1713      H      53.9988421300    27.0896828600   -48.1940291500
 1714      H      56.4873650400    27.9661050200   -50.4247205600
 1715      C      53.4668583000    25.7801878200   -51.9987058700
 1716      H      53.3509212400    27.5015362600   -53.1198367800
 1717      H      54.5510811500    24.4976078000   -53.1957472800
 1718      C      50.7019576200    25.0121314300   -51.0906542000
 1719      H      49.8161543000    23.9415715000   -52.6779776700
 1720      H      49.6449275300    26.8007171900   -50.7206460700
 1721      H      50.5991808500    23.9528714100   -49.3460683800
 1722      H      73.3838195600    44.9133354400   -21.8491131300
 1723      C      71.8385725900    43.8100609900   -21.1269913000
 1724      H      72.6354170900    43.2579592800   -19.2963926200
 1725      H      70.2524343700    45.1516563900   -20.6053814300
 1726      C      71.1702076900    41.6513085900   -22.9343589100
 1727      H      69.5769609200    40.6314742700   -22.0938861300
 1728      H      70.3060059500    42.5130322200   -24.6192984400
 1729      C      73.3665843500    39.9294704700   -23.5014950100
 1730      H      74.9431212800    40.9957977500   -24.1561153900
 1731      H      74.0307721800    38.7570943000   -21.8064208100
 1732      C      72.7166301400    38.1378283800   -25.5790183400
 1733      H      70.9648732700    37.2040753900   -25.1507969100
 1734      H      72.4062103500    39.1058254400   -27.4793086200
 1735      C      74.6979875300    36.0534860400   -26.1405812300
 1736      H      76.5670443100    36.9088506800   -25.8564981100
 1737      H      74.5274991100    34.5946534800   -24.7260872500
 1738      C      74.5119588600    35.1076474000   -28.8541903300
 1739      H      72.5665944600    34.6407356400   -29.2262775900
 1740      H      74.9641726800    36.5546255700   -30.1056150100
 1741      C      76.2131950100    32.7684084500   -29.3782208600
 1742      H      78.0215507600    32.8048487200   -28.5574294200
 1743      H      75.4417341100    31.0072802400   -28.3783801800
 1744      C      76.5531142600    32.5605023800   -32.2146955300
 1745      H      74.8021443400    32.4384860200   -33.2784021400
 1746      H      77.5883727500    34.1900585500   -32.9632307100
 1747      C      78.1232700600    30.1996003700   -32.7871275600
 1748      H      79.9861985100    30.5542898800   -32.0761957800
 1749      H      77.2798874300    28.5199304100   -31.9057761700
 1750      C      78.2224859500    29.7751759700   -35.7204600600
 1751      H      76.3298054100    29.2368530300   -36.2946423700
 1752      H      78.7502147500    31.5634643600   -36.5786694400
 1753      C      79.9380257100    27.5184646300   -36.6210931200
 1754      H      81.7367874400    27.6860008800   -35.6258885600
 1755      H      79.0757828600    25.7605292000   -36.0585273500
 1756      C      80.2675685000    27.6836189800   -39.5377721800
 1757      H      81.2636798500    26.0091378700   -40.0623265700
 1758      H      80.6644806000    29.6562157600   -39.8604515700
 1759      H      78.4166554400    27.5134292500   -40.3525840500
 1760      H     100.3421693800    35.6951149800   -33.5274497300
 1761      C      99.0474789400    34.7536957000   -32.3400670700
 1762      H      98.7057856300    32.9208344300   -33.0736343100
 1763      H      99.8048293400    34.5615159200   -30.3690683900
 1764      C      96.2775239000    36.0063162700   -32.4749071100
 1765      H      96.0563703500    37.8600080500   -31.6031758100
 1766      H      95.4611923300    36.4116413500   -34.4466747500
 1767      C      94.3136991700    34.2581644200   -31.2784292800
 1768      H      94.0655340200    32.5752916600   -32.4298646100
 1769      H      94.8399591600    33.6865504600   -29.3955814000
 1770      C      91.5825286800    35.3941143000   -30.9967572800
 1771      H      91.8605726900    37.1129295700   -29.8933539400
 1772      H      90.7660026700    35.8828344700   -32.7840365700
 1773      C      89.7690438800    33.6474570600   -29.5586331800
 1774      H      89.3599572700    31.8232189400   -30.5986307200
 1775      H      90.6061507700    33.0586821200   -27.6945362400
 1776      C      87.1760229400    34.9801712400   -29.0028794800
 1777      H      87.5249757700    36.9988810200   -28.7893915300
 1778      H      85.7943844300    34.5714623300   -30.5004428900
 1779      C      86.0577331900    34.5571515900   -26.3580901200
 1780      H      85.3938371300    32.6421799200   -26.1336625900
 1781      H      87.3781500600    34.7981946100   -24.8660297800
 1782      C      83.5721062000    36.0659850600   -25.9144757800
 1783      H      83.7733338800    38.0913770300   -26.4618172300
 1784      H      82.2031424700    35.0550040500   -26.9637996000
 1785      C      82.7012918100    36.2816802400   -23.1863551900
 1786      H      81.8567546600    34.4994687700   -22.5651776000
 1787      H      84.3850165300    36.6404739400   -22.0691640900
 1788      C      81.1157935400    38.5219239900   -22.6793328200
 1789      H      82.0204229300    40.0936724500   -23.7360619500
 1790      H      79.3438185700    38.2503687500   -23.3578577400
 1791      C      81.1783080800    39.3017830800   -19.8428761900
 1792      H      80.6796910000    37.7275283800   -18.7308154200
 1793      H      83.2332309700    39.6603505800   -19.6092438700
 1794      C      79.5244273000    41.6615624400   -19.2962267800
 1795      H      77.5984823700    40.9983983800   -19.0655978200
 1796      H      79.5675582800    43.1848585500   -20.7556443000
 1797      H      80.2382010700    42.3857038300   -17.4171792700
 1798      H      76.0841546600    41.0535260300   -69.2655073900
 1799      C      74.9864303000    39.2949362600   -68.6504593900
 1800      H      73.0842776800    39.8302296900   -68.1148921000
 1801      H      74.6437478200    38.1125975400   -70.1976782300
 1802      C      76.4553869500    38.1806705400   -66.4982933700
 1803      H      78.4063282800    37.8584412100   -67.1256628100
 1804      H      76.3685209800    39.4883311900   -65.0628841700
 1805      C      75.0600544900    35.7205479600   -65.7109342200
 1806      H      73.1017863000    36.1048373700   -65.4495918900
 1807      H      75.1073496200    34.2810498400   -67.2430374400
 1808      C      76.2366939700    34.5699237200   -63.3314503400
 1809      H      78.1358184300    34.2355720700   -64.0290430600
 1810      H      76.3273858600    35.7798976500   -61.6873922000
 1811      C      75.1001762400    32.0790723900   -62.5703781500
 1812      H      73.3587193600    32.5417703500   -61.6455826200
 1813      H      74.8815711300    30.9733575200   -64.2507946700
 1814      C      76.9737347500    30.4718684700   -60.9848576400
 1815      H      78.6568047100    30.5302716700   -62.0882228800
 1816      H      77.3871570800    31.1794014600   -59.0644704800
 1817      C      76.1703131000    27.7769246900   -60.6933166100
 1818      H      74.4147940200    27.9216467900   -59.7077868100
 1819      H      76.1324066400    26.9175772800   -62.5420223200
 1820      C      78.2646070200    26.2939992100   -59.3071539400
 1821      H      80.0008407500    26.2855600600   -60.2943280600
 1822      H      78.8577163300    27.1380804700   -57.4534567100
 1823      C      77.5729130600    23.5646522100   -58.5077355400
 1824      H      75.8382576700    23.4961441700   -57.3296243400
 1825      H      77.1674815600    22.4769145900   -60.2182981200
 1826      C      79.6738065400    22.2246338200   -57.0140264800
 1827      H      81.3237208400    22.2142664200   -58.1790521000
 1828      H      80.1282223800    23.4810883000   -55.3636829000
 1829      C      79.2857340800    19.4608817000   -56.0566194400
 1830      H      77.6541735400    19.5732351700   -54.9443013400
 1831      H      78.7897672000    18.3237331700   -57.6408749300
 1832      C      81.5866566700    18.4101331300   -54.8441702500
 1833      H      82.4681572000    19.8817040800   -53.6481570800
 1834      H      82.9611529300    17.7518652800   -56.2830205200
 1835      H      81.2264855500    16.6190146300   -53.8595167900
 1836      H      82.8335754900    29.4869942900   -53.5514174200
 1837      C      84.4384186800    28.1979872600   -53.6135497500
 1838      H      86.0187498100    28.9202779500   -52.5597061800
 1839      H      84.0283156000    26.4555612800   -52.6036465000
 1840      C      84.9676578300    27.8026747200   -56.3882559000
 1841      H      86.5994485600    26.6255552100   -56.8833102700
 1842      H      83.2829749600    26.8369098100   -57.3849638000
 1843      C      85.4421547700    30.2125383300   -57.7912868200
 1844      H      83.6901154300    31.3618538100   -57.7255809500
 1845      H      86.9840146500    31.0989933800   -56.6929585000
 1846      C      86.2357324500    30.1587881800   -60.5411548100
 1847      H      88.0847746700    29.3221791000   -60.7837707900
 1848      H      84.9376445500    29.0085730200   -61.7047363600
 1849      C      86.2871572600    32.7812142700   -61.5764741300
 1850      H      84.3287966800    33.3660689800   -62.0434193500
 1851      H      87.1411943100    34.1097250800   -60.2921931700
 1852      C      87.6399511300    33.2167377600   -63.9565270100
 1853      H      89.4982683400    32.2276620700   -63.8640323700
 1854      H      86.7476881800    32.2006106100   -65.4013905100
 1855      C      87.9156639400    35.9637717900   -64.9670072400
 1856      H      86.0876515300    36.6944276700   -65.3927353600
 1857      H      88.5737183000    37.2009611100   -63.6920028500
 1858      C      89.4451161700    36.4371868800   -67.3159099500
 1859      H      91.4026825400    35.8566656100   -67.1035861200
 1860      H      88.7761017100    35.1938308900   -68.8705390200
 1861      C      89.1451546200    39.0745042600   -68.3664757400
 1862      H      87.2346870400    39.1159034900   -68.8893775600
 1863      H      89.3094407800    40.5163820700   -66.9817515100
 1864      C      90.7997309100    39.7261494100   -70.6968710400
 1865      H      92.7615952500    39.0454094300   -70.2747681100
 1866      H      90.1513607100    38.7699066300   -72.4643842600
 1867      C      90.9569570100    42.6134828200   -71.2500873000
 1868      H      89.0997747000    43.3492261700   -71.8500842200
 1869      H      91.5737329700    43.8277135500   -69.5883006300
 1870      C      92.9598422900    43.0232737800   -73.4160786300
 1871      H      92.9991999700    45.0087441800   -74.0882734300
 1872      H      92.9258748300    41.6910194200   -74.8698385200
 1873      H      94.8030080700    42.7613588900   -72.5345389400
 1874      H      69.4446700700    54.6839856400   -46.2214821900
 1875      C      69.0400976600    52.7448875800   -46.8654968300
 1876      H      67.2089284500    52.8917076500   -47.6708281700
 1877      H      70.4337030600    52.5821893700   -48.3114193600
 1878      C      69.3701558800    50.9994077100   -44.5395803000
 1879      H      71.2119505300    50.8264909400   -43.8345854500
 1880      H      68.1736078200    51.7384234500   -43.0135363300
 1881      C      68.3118433200    48.3592037400   -45.2723533900
 1882      H      66.4473957300    48.6374899700   -46.1450912000
 1883      H      69.5524263800    47.5601822700   -46.6720937500
 1884      C      68.0417279500    46.5253295600   -42.9902357700
 1885      H      69.8100617900    46.1608903200   -42.2331383800
 1886      H      66.9694619200    47.5062285800   -41.4905489100
 1887      C      66.8826187100    43.9784130900   -43.7573019900
 1888      H      64.8566288200    44.0519645500   -44.0932515000
 1889      H      67.9009502200    43.4422431400   -45.4315835600
 1890      C      67.0826570300    42.0584694300   -41.6340409800
 1891      H      68.8920934800    42.2124226500   -40.5362609300
 1892      H      65.5635335600    42.5142289600   -40.3657089100
 1893      C      66.7340743700    39.2447080000   -42.4101089100
 1894      H      65.1745778500    39.0013280400   -43.8397880700
 1895      H      68.5409094200    38.7806412600   -43.4315980800
 1896      C      66.0468715500    37.5731404700   -40.2258858400
 1897      H      67.7414088800    36.8076486900   -39.5158058600
 1898      H      64.8952881900    38.4648709700   -38.7134038900
 1899      C      64.8825754500    35.1401473700   -41.1769946500
 1900      H      62.9113317200    35.6018472600   -41.8553395600
 1901      H      65.9314412300    34.3938696900   -42.8502623000
 1902      C      64.4620805500    33.1584079800   -38.9913203500
 1903      H      66.3586997200    32.5523944900   -38.4103585100
 1904      H      63.8113507100    34.0858327200   -37.2518442500
 1905      C      62.7869768400    30.8280441200   -39.8767991500
 1906      H      61.0688676600    31.4567761400   -40.8878275900
 1907      H      63.6736415900    29.8265704000   -41.5224321600
 1908      C      62.3407950500    28.8575068400   -37.9850945200
 1909      H      61.2946956800    29.5769061900   -36.4214192400
 1910      H      64.0463890800    27.9803962900   -37.4226173000
 1911      H      61.1255781400    27.4633926400   -38.7572640000
 ----------------------------------------------------------------
 Nuclear Repulsion Energy =           0.00000000 hartrees
 There are       48 alpha and       48 beta electrons
 Total job time:  122.79s(wall), 242.11s(cpu) 
 Wed Jun 22 08:07:44 2022

        *************************************************************
        *                                                           *
        *  Thank you very much for using Q-Chem.  Have a nice day.  *
        *                                                           *
        *************************************************************


