                  Welcome to Q-Chem
     A Quantum Leap Into The Future Of Chemistry


 Q-Chem 5.4 (devel), Q-Chem, Inc., Pleasanton, CA (2021)

 E. Epifanovsky,  A. T. B. Gilbert,  Xintian Feng,  Joonho Lee,  Yuezhi Mao,  
 N. Mardirossian,  P. Pokhilko,  A. White,  M. Wormit,  M. P. Coons,  
 A. L. Dempwolff,  Zhengting Gan,  D. Hait,  P. R. Horn,  L. D. Jacobson,  
 I. Kaliman,  J. Kussmann,  A. W. Lange,  Ka Un Lao,  D. S. Levine,  Jie Liu,  
 S. C. McKenzie,  A. F. Morrison,  K. Nanda,  F. Plasser,  D. R. Rehn,  
 M. L. Vidal,  Zhi-Qiang You,  Ying Zhu,  B. Alam,  B. Albrecht,  
 A. Aldossary,  E. Alguire,  J. H. Andersen,  D. Barton,  K. Begam,  A. Behn,  
 Y. A. Bernard,  E. J. Berquist,  H. Burton,  A. Carreras,  K. Carter-Fenk,  
 R. Chakraborty,  A. D. Chien,  K. D. Closser,  V. Cofer-Shabica,  
 S. Dasgupta,  Jia Deng,  M. de Wergifosse,  M. Diedenhofen,  Hainam Do,  
 S. Ehlert,  Po-Tung Fang,  S. Fatehi,  Qingguo Feng,  T. Friedhoff,  
 J. Gayvert,  Qinghui Ge,  G. Gidofalvi,  M. Goldey,  J. Gomes,  
 C. Gonzalez-Espinoza,  S. Gulania,  A. Gunina,  M. W. D. Hanson-Heine,  
 P. H. P. Harbach,  A. W. Hauser,  M. F. Herbst,  M. Hernandez Vera,  
 M. Hodecker,  Z. C. Holden,  S. Houck,  Xunkun Huang,  Kerwin Hui,  
 B. C. Huynh,  M. Ivanov,  Hyunjun Ji,  Hanjie Jiang,  B. Kaduk,  S. Kaehler,  
 K. Khistyaev,  Jaehoon Kim,  P. Klunzinger,  Z. Koczor-Benda,  
 Joong Hoon Koh,  D. Kosenkov,  L. Koulias,  T. Kowalczyk,  C. M. Krauter,  
 K. Kue,  A. Kunitsa,  T. Kus,  A. Landau,  K. V. Lawler,  D. Lefrancois,  
 S. Lehtola,  Rain Li,  Yi-Pei Li,  Jiashu Liang,  M. Liebenthal,  
 Hung-Hsuan Lin,  You-Sheng Lin,  Fenglai Liu,  Kuan-Yu Liu,  
 M. Loipersberger,  A. Luenser,  A. Manjanath,  P. Manohar,  E. Mansoor,  
 S. F. Manzer,  Shan-Ping Mao,  A. V. Marenich,  T. Markovich,  S. Mason,  
 S. A. Maurer,  P. F. McLaughlin,  M. F. S. J. Menger,  J.-M. Mewes,  
 S. A. Mewes,  P. Morgante,  J. W. Mullinax,  K. J. Oosterbaan,  G. Paran,  
 Alexander C. Paul,  Suranjan K. Paul,  F. Pavosevic,  Zheng Pei,  S. Prager,  
 E. I. Proynov,  E. Ramos,  B. Rana,  A. E. Rask,  A. Rettig,  R. M. Richard,  
 F. Rob,  E. Rossomme,  T. Scheele,  M. Scheurer,  M. Schneider,  
 N. Sergueev,  S. M. Sharada,  W. Skomorowski,  D. W. Small,  C. J. Stein,  
 Yu-Chuan Su,  E. J. Sundstrom,  Zhen Tao,  J. Thirman,  T. Tsuchimochi,  
 N. M. Tubman,  S. P. Veccham,  O. Vydrov,  J. Wenzel,  J. Witte,  A. Yamada,  
 Kun Yao,  S. Yeganeh,  S. R. Yost,  A. Zech,  Igor Ying Zhang,  Xing Zhang,  
 Yu Zhang,  D. Zuev,  A. Aspuru-Guzik,  A. T. Bell,  N. A. Besley,  
 K. B. Bravaya,  B. R. Brooks,  D. Casanova,  Jeng-Da Chai,  S. Coriani,  
 C. J. Cramer,  A. E. DePrince, III,  R. A. DiStasio Jr.,  A. Dreuw,  
 B. D. Dunietz,  T. R. Furlani,  W. A. Goddard III,  S. Grimme,  
 S. Hammes-Schiffer,  T. Head-Gordon,  W. J. Hehre,  Chao-Ping Hsu,  
 T.-C. Jagau,  Yousung Jung,  A. Klamt,  Jing Kong,  D. S. Lambrecht,  
 WanZhen Liang,  N. J. Mayhall,  C. W. McCurdy,  J. B. Neaton,  
 C. Ochsenfeld,  J. A. Parkhill,  R. Peverati,  V. A. Rassolov,  Yihan Shao,  
 L. V. Slipchenko,  T. Stauch,  R. P. Steele,  J. E. Subotnik,  
 A. J. W. Thom,  A. Tkatchenko,  D. G. Truhlar,  T. Van Voorhis,  
 T. A. Wesolowski,  K. B. Whaley,  H. L. Woodcock III,  P. M. Zimmerman,  
 S. Faraji,  P. M. W. Gill,  M. Head-Gordon,  J. M. Herbert,  A. I. Krylov

 Additional authors for Version 5.4.1: 
 S. Kotaru,  Shaozhi Li,  Xiangyuan Li,  F. Matz,  A. Molle,  Haisheng Ren,  
 Yingli Su,  Hung-Yi Tsai,  C. Utku,  Fang Wang

 Contributors to earlier versions of Q-Chem not listed above: 
 R. D. Adamson,  B. Austin,  R. Baer,  J. Baker,  G. J. O. Beran,  
 K. Brandhorst,  S. T. Brown,  E. F. C. Byrd,  A. K. Chakraborty,  
 G. K. L. Chan,  Chun-Min Chang,  Yunqing Chen,  C.-L. Cheng,  
 Siu Hung Chien,  D. M. Chipman,  D. L. Crittenden,  H. Dachsel,  
 R. J. Doerksen,  A. D. Dutoi,  R. G. Edgar,  J. Fosso-Tande,  
 L. Fusti-Molnar,  D. Ghosh,  A. Ghysels,  A. Golubeva-Zadorozhnaya,  
 J. Gonthier,  M. S. Gordon,  S. R. Gwaltney,  G. Hawkins,  J. E. Herr,  
 A. Heyden,  S. Hirata,  E. G. Hohenstein,  G. Kedziora,  F. J. Keil,  
 C. Kelley,  Jihan Kim,  R. A. King,  R. Z. Khaliullin,  P. P. Korambath,  
 W. Kurlancheek,  A. Laurent,  A. M. Lee,  M. S. Lee,  S. V. Levchenko,  
 Ching Yeh Lin,  D. Liotard,  E. Livshits,  R. C. Lochan,  I. Lotan,  
 L. A. Martinez-Martinez,  P. E. Maslen,  N. Nair,  D. P. O'Neill,  
 D. Neuhauser,  E. Neuscamman,  C. M. Oana,  R. Olivares-Amaya,  R. Olson,  
 T. M. Perrine,  B. Peters,  P. A. Pieniazek,  A. Prociuk,  Y. M. Rhee,  
 J. Ritchie,  M. A. Rohrdanz,  E. Rosta,  N. J. Russ,  H. F. Schaefer III,  
 M. W. Schmidt,  N. E. Schultz,  S. Sharma,  N. Shenvi,  C. D. Sherrill,  
 A. C. Simmonett,  A. Sodt,  T. Stein,  D. Stuck,  K. S. Thanthiriwatte,  
 V. Vanovschi,  L. Vogt,  Tao Wang,  A. Warshel,  M. A. Watson,  
 C. F. Williams,  Q. Wu,  X. Xu,  Jun Yang,  W. Zhang,  Yan Zhao

 Please cite Q-Chem as follows:
 Y. Shao et al., Mol. Phys. 113, 184-215 (2015)
 DOI: 10.1080/00268976.2014.952696

 Q-Chem 5.4.1 for Intel X86 EM64T Linux

 Parts of Q-Chem use Armadillo 9.900.5 (Nocturnal Misbehaviour).
 http://arma.sourceforge.net/

 Q-Chem begins on Fri Jul  1 20:00:03 2022  

 Host: p09r14n09.grace.hpc.yale.internal
0

     Scratch files written to /home/tl686/scratch60/qchem_dev/scratch/qchem8909//
 Processing $rem in /home/tl686/qchem_dev/qchem/config/preferences:
 Processing $rem in /home/tl686/.qchemrc:
Applying user defined connections for MM calculations

 Checking the input file for inconsistencies... 	...done.

--------------------------------------------------------------
User input:
--------------------------------------------------------------
$molecule
0   1
 Fe 841.96617004 -63.92800761 50.93302965    -1  0   0   0   0
C 842.26015071 -67.12081935 51.91758042    -2  0   0   0   0 
C 841.68630525 -60.75994025 49.60890277    -2  0   0   0   0
C 838.59465010 -63.84969621 50.99181625    -2  0   0   0   0
C 843.37683531 -62.85067131 53.86450538    -2  0   0   0   0
C 844.00129374 -65.04421613 48.29099213    -2  0   0   0   0
O 842.32779735 -69.18235823 52.42602743    -3  0   0   0   0
O 841.64624583 -58.71508731 48.76887280    -3  0   0   0   0 
O 836.34520639 -64.05185242 51.12607494    -3  0   0   0   0
O 844.05378265 -62.14894488 55.84971983    -3  0   0   0   0 
O 845.17108692 -65.88527252 46.62438607    -3  0   0   0   0
H 815.52187888 -81.20379021 65.06493541      6     13    0    0    0 
C 815.50878194 -79.16817370 64.85794200     1     12    14    15    16
H 814.39522116 -79.02347116 63.18269955     6     13    0    0    0
H 814.64884920 -78.22992951 66.52097343     6     13    0    0    0
C 818.38742561 -78.46675876 64.46814386     2     13    17    18    19
H 819.19984140 -79.53193067 62.93284398     6     16    0    0    0
H 818.13344351 -76.39871328 64.01717447     6     16    0    0    0
C 819.93153236 -78.70522867 66.96632379     2     16    20   21   22
H 819.06632874 -77.65468942 68.57951370     6     19    0    0    0
H 819.85056545 -80.64553438 67.63991439     6     19    0    0    0
C 822.69676524 -77.82905387 66.62448917     2     19   23   24   25
H 823.48592312 -78.89935444 65.10355854     6    22    0    0    0
H 822.74779223 -75.77097813 66.08798203     6    22    0    0    0
C 824.21263578 -78.22151453 69.10490648     2    22   26   27   28
H 823.81948575 -76.72548779 70.48938492     6    25    0    0    0
H 823.78850841 -79.90850246 70.09343116     6    25    0    0    0
C 827.04118239 -78.34192310 68.39350680     2    25   29   30   31
H 827.05025012 -79.28489952 66.55211388     6    28    0    0    0
H 827.88340419 -76.38276777 68.05920313     6    28    0    0    0
C 828.54965687 -79.77859602 70.38678682     2    28   32   33   34
H 827.94520054 -79.43552722 72.18337454     6    31    0    0    0
H 828.27899860 -81.90594458 70.24980175     6    31    0    0    0
C 831.40253366 -78.97262488 70.09774589     2    31   35   36   37
H 831.85795734 -79.17612693 68.13448889     6    34    0    0    0
H 831.44690306 -77.09793603 70.59438779     6    34    0    0    0
C 833.09173223 -80.63918089 71.62159097     2    34   38   39   40
H 832.60751655 -80.26617747 73.62136630     6    37    0    0    0
H 832.67863859 -82.67491286 71.34972715     6    37    0    0    0
C 835.88698868 -80.06535417 71.17037018     2    37   41   42   43
H 836.30656547 -81.02146034 69.47170806     6    40    0    0    0
H 836.07177959 -78.02507793 70.71859158     6    40    0    0    0
C 837.52292638 -80.66131055 73.28938393     2    40   44   45   46
H 836.91185925 -79.64781362 75.07977585     6    43    0    0    0
H 837.38204091 -82.68506819 73.72816389     6    43    0    0    0
C 840.28783029 -80.16635900 72.97888713     1    43   47   48   49
H 841.26210544 -81.89139841 72.58659224     6    46    0    0    0
H 841.56621139 -79.69078930 74.50809477     6    46    0    0    0
H 840.48329436 -78.72002430 71.60246585     6    46    0    0    0
H 848.90661694 -70.78669537 57.90972649     6     51    0    0    0 
C 846.89270735 -70.71973847 57.21047048     1     50    52    53    54
H 846.21365347 -68.75828422 57.26787025     6     51    0    0    0
H 846.91319788 -71.42187405 55.25520469     6     51    0    0    0
C 845.30422595 -72.06630142 59.18024489     2     51    55    56    57
H 843.45710281 -71.81768343 58.48904270     6     54    0    0    0
H 845.94315650 -74.03118809 59.00089062     6     54    0    0    0
C 845.44496243 -71.08873034 61.92152425     2     54    58   59   60
H 845.76462874 -69.06165453 61.97837576     6     57    0    0    0
H 843.44130111 -71.24937388 62.76019663     6     57    0    0    0
C 847.40571013 -72.44866693 63.56213728     2     57   61   62   63
H 846.86501789 -74.54012322 63.51892101     6    60    0    0    0
H 849.24044431 -72.39917460 62.70880397     6    60    0    0    0
C 847.58389566 -71.43392946 66.33552590     2    60   64   65   66
H 848.08220476 -69.54790789 66.35943306     6    63    0    0    0
H 845.62866937 -71.55379864 66.96669534     6    63    0    0    0
C 849.16739448 -73.30797487 67.92722798     2    63   67   68   69
H 849.07675695 -72.71538899 69.81622206     6    66    0    0    0
H 848.39420925 -75.24149507 67.90557566     6    66    0    0    0
C 851.99379565 -73.26267740 67.26841929     2    66   70   71   72
H 852.34860587 -73.87849466 65.31382688     6    69    0    0    0
H 852.67655800 -71.31924199 67.17900255     6    69    0    0    0
C 853.82317414 -74.89178543 68.89041311     2    69   73   74   75
H 854.18036662 -73.77482346 70.63871233     6    72    0    0    0
H 852.79999286 -76.59938558 69.41203755     6    72    0    0    0
C 856.39043761 -75.28534902 67.95274993     2    72   76   77   78
H 856.16012136 -76.20718039 66.14428008     6    75    0    0    0
H 857.08912456 -73.46153407 67.62751908     6    75    0    0    0
C 858.07867924 -76.83272410 69.82546790     2    75   79   80   81
H 857.26667545 -76.87334172 71.63926647     6    78    0    0    0
H 858.23857603 -78.73529346 69.25608330     6    78    0    0    0
C 860.91326151 -76.14288934 69.85248801     2    78   82   83   84
H 861.64852616 -76.15020542 68.02469388     6    81    0    0    0
H 861.05350634 -74.09157989 70.35990528     6    81    0    0    0
C 862.51958791 -77.81517645 71.68266918     1    81   85   86   87
H 864.44650904 -77.23922206 71.72141711     6    84    0    0    0
H 862.76301587 -79.71086841 71.09684696     6    84    0    0    0
H 861.85531849 -77.46640307 73.67330725     6    84    0    0    0
H 831.50371462 -61.59909971 82.63047541     6     89    0    0    0 
C 833.05019932 -62.31616505 81.49906579     1     88    90    91    92
H 832.07282872 -63.46830264 80.10303487     6     89    0    0    0
H 833.96217513 -60.80285445 80.57663224     6     89    0    0    0
C 834.74558498 -64.07163059 82.94859038     2     89    93    94    95
H 835.81521938 -62.80576644 84.27226831     6     92    0    0    0
H 833.72864910 -65.16928261 84.17625622     6     92    0    0    0
C 836.56119840 -65.44100092 81.15396211     2     92    96   97   98
H 835.13500648 -66.56333278 80.05556248     6     95    0    0    0
H 837.42244782 -64.01846020 79.90771915     6     95    0    0    0
C 838.26112104 -67.18936381 82.53582692     2     95   99   100   101
H 838.74535003 -65.95087537 84.16227093     6    98    0    0    0
H 837.23170230 -68.84325329 83.15089602     6    98    0    0    0
C 840.61957993 -67.62462479 80.90765613     2    98   102   103   104
H 840.25847578 -68.31752360 79.13130366     6    101    0    0    0
H 841.83149638 -65.98608150 80.70068292     6    101    0    0    0
C 842.29204026 -69.76335096 82.20000144     2    101   105   106   107
H 841.24323473 -71.46479641 81.97192532     6    104    0    0    0
H 844.14020691 -69.98641131 81.24223937     6    104    0    0    0
C 842.99148023 -69.25295627 84.95902098     2    104   108   109   110
H 843.31462942 -67.30341202 85.27549843     6    107    0    0    0
H 841.29589925 -69.52781236 86.24475893     6    107    0    0    0
C 845.34086662 -70.64532628 85.81030904     2    107   111   112   113
H 844.92808370 -72.63348038 85.54405258     6    110    0    0    0
H 846.91745013 -69.98373132 84.63317072     6    110    0    0    0
C 845.76855951 -70.25469478 88.59177501     2    110   114   115   116
H 845.75901956 -68.23560349 88.81623206     6    113    0    0    0
H 844.11958832 -70.87140936 89.50515042     6    113    0    0    0
C 848.16482197 -71.47606710 89.82440033     2    113   117   118   119
H 848.27185682 -73.48594836 89.20320980     6    116    0    0    0
H 849.68303666 -70.77448491 88.64092608     6    116    0    0    0
C 848.39815941 -71.35560142 92.66932675     2    116   120   121   122
H 850.43224876 -71.52383230 93.16047874     6    119    0    0    0
H 847.83912101 -69.56828780 93.30943867     6    119    0    0    0
C 846.79166654 -73.22594358 94.26746577     1    119   123   124   125
H 847.26841976 -73.24206838 96.33740008     6    122    0    0    0
H 847.20832603 -75.06058025 93.59677184     6    122    0    0    0
H 844.78738228 -73.14303893 94.13853331     6    122    0    0    0
H 832.84358992 -47.08097072 75.73513264     6     127    0    0    0 
C 832.30113580 -46.23591669 73.76872419     1     126    128    129    130
H 831.21635005 -44.49950008 73.89752691     6     127    0    0    0
H 834.06684828 -45.67401055 72.84256005     6     127    0    0    0
C 830.81108010 -48.30128700 72.28689981     2     127    131    132    133
H 831.72446652 -50.11685073 72.47172427     6     130    0    0    0
H 828.87963925 -48.51442425 73.03999509     6     130    0    0    0
C 830.39524150 -47.51628187 69.56687909     2     130    134   135   136
H 829.72954405 -45.61122334 69.45493967     6     133    0    0    0
H 832.23103057 -47.22930758 68.75636544     6     133    0    0    0
C 828.79708928 -49.09272630 67.86923569     2     133   137   138   139
H 829.39781207 -50.99469902 68.24828590     6    136    0    0    0
H 826.73030794 -48.90082739 68.47632496     6    136    0    0    0
C 829.39982821 -48.42981971 65.11336218     2    136   140   141   142
H 828.84640171 -46.51752675 64.66511677     6    139    0    0    0
H 831.37461891 -48.41373688 64.73781234     6    139    0    0    0
C 827.98923632 -50.25624430 63.34719681     2    139   143   144   145
H 828.39614861 -52.21935903 64.03405546     6    142    0    0    0
H 826.00998384 -49.90132675 64.03453325     6    142    0    0    0
C 828.71710525 -50.13955061 60.53530663     2    142   146   147   148
H 828.76856591 -48.21901675 59.75262695     6    145    0    0    0
H 830.67369383 -50.63106782 60.37445107     6    145    0    0    0
C 827.22850816 -51.98645893 59.02374345     2    145   149   150   151
H 827.48515300 -53.88315992 59.62638103     6    148    0    0    0
H 825.31355214 -51.29843262 59.21129846     6    148    0    0    0
C 828.22129890 -52.12097820 56.20388864     2    148   152   153   154
H 827.90981534 -50.35445126 55.18493827     6    151    0    0    0
H 830.20767072 -52.32292835 56.27923438     6    151    0    0    0
C 826.98765914 -54.28665377 54.52401649     2    151   155   156   157
H 827.79411344 -54.17594364 52.67148318     6    154    0    0    0
H 827.06761601 -56.22711295 55.34104161     6    154    0    0    0
C 824.24653749 -53.94300612 53.80077559     2    154   158   159   160
H 823.24788140 -53.59015651 55.52106803     6    157    0    0    0
H 823.83570954 -52.39808571 52.61539352     6    157    0    0    0
C 822.84295685 -56.19262781 52.49062518     1    157   161   162   163
H 820.79982346 -55.87064617 52.17652169     6    160    0    0    0
H 822.79160812 -57.94155486 53.48198810     6    160    0    0    0
H 823.81737103 -56.49539915 50.70614585     6    160    0    0    0
H 837.81883350 -48.03715225 84.58229537     6     165    0    0    0 
C 837.22399846 -47.56702534 82.66972773     1     164    166    167    168
H 838.30270700 -48.89212211 81.63331718     6     165    0    0    0
H 835.13495700 -47.97490407 82.75120420     6     165    0    0    0
C 837.80154399 -44.71021927 82.09053056     2     165    169    170    171
H 837.07909275 -43.37776351 83.46441475     6     168    0    0    0
H 839.91117505 -44.63232042 82.41775774     6     168    0    0    0
C 837.17014334 -43.97240675 79.27770567     2     168    172   173   174
H 838.38147913 -45.02091328 78.00753729     6     171    0    0    0
H 835.32501846 -44.73251900 79.00724682     6     171    0    0    0
C 837.39989130 -41.17041000 78.46728838     2     171   175   176   177
H 836.37779734 -40.02016114 79.85869122     6    174    0    0    0
H 839.45265735 -40.69376815 78.52179050     6    174    0    0    0
C 836.14310416 -40.87842778 75.73487732     2    174   178   179   180
H 836.50717753 -42.20395451 74.32325585     6    177    0    0    0
H 834.06667155 -40.84311620 75.82639060     6    177    0    0    0
C 837.30839973 -38.47676991 74.49658378     2    177   181   182   183
H 837.36780776 -36.83829291 75.72981534     6    180    0    0    0
H 839.31960362 -38.92699853 74.19456104     6    180    0    0    0
C 835.84463653 -37.95911375 72.07847406     2    180   184   185   186
H 836.43151192 -39.36040785 70.61845098     6    183    0    0    0
H 833.88022794 -38.38123762 72.35405481     6    183    0    0    0
C 836.77856651 -35.51936048 70.89796496     2    183   187   188   189
H 835.98457183 -34.16610828 72.12469434     6    186    0    0    0
H 838.86330652 -35.49184126 71.01652599     6    186    0    0    0
C 835.63043159 -35.15317388 68.19839699     2    186   190   191   192
H 836.43615373 -36.62388429 66.94234816     6    189    0    0    0
H 833.58116512 -35.47269052 68.39417836     6    189    0    0    0
C 836.18800057 -32.57010612 66.97802122     2    189   193   194   195
H 835.52468900 -31.07449031 68.22162039     6    192    0    0    0
H 838.11919883 -32.06575713 66.66664182     6    192    0    0    0
C 834.63869730 -32.19117486 64.41400073     2    192   196   197   198
H 835.63247680 -33.04424817 62.81094931     6    195    0    0    0
H 832.63953611 -32.94399116 64.49827001     6    195    0    0    0
C 834.49576847 -29.47266957 63.58334534     1    195   199   200   201
H 833.61781045 -29.14249858 61.69468942     6    198    0    0    0
H 836.44159403 -28.82723554 63.66374586     6    198    0    0    0
H 833.56284974 -28.21496747 64.97395795     6    198    0    0    0
H 851.07318683 -54.68460469 67.44946672     6     203    0    0    0 
C 850.84365480 -52.71834298 67.75217678     1     202    204    205    206
H 852.21129501 -51.65410375 66.68560776     6     203    0    0    0
H 848.88787706 -52.37262502 67.31564661     6     203    0    0    0
C 851.42966379 -51.82586451 70.36640150     2     203    207    208    209
H 850.91700463 -49.85251515 70.52148028     6     206    0    0    0
H 850.05249638 -52.83465537 71.49233468     6     206    0    0    0
C 854.24083044 -52.03801361 71.14117298     2     206    210   211   212
H 853.93674844 -51.98752887 73.14815948     6     209    0    0    0
H 855.05828844 -53.90303431 70.81056530     6     209    0    0    0
C 855.98445819 -49.80993386 70.57331894     2     209   213   214   215
H 856.04421857 -49.56269778 68.53139572     6    212    0    0    0
H 855.31487810 -48.14306932 71.39100074     6    212    0    0    0
C 858.83765533 -50.34136028 71.46866578     2    212   216   217   218
H 858.67690717 -50.70746387 73.46719110     6    215    0    0    0
H 859.37332828 -52.08532497 70.53437480     6    215    0    0    0
C 860.55504435 -48.06757699 70.74808062     2    215   219   220   221
H 860.46307295 -47.72508198 68.68589656     6    218    0    0    0
H 859.79329462 -46.33025997 71.72606826     6    218    0    0    0
C 863.29071447 -48.48497060 71.66370198     2    218   222   223   224
H 863.21972425 -48.84860041 73.66068324     6    221    0    0    0
H 864.13567389 -49.99688457 70.50834086     6    221    0    0    0
C 864.97882291 -46.18006793 71.33806101     2    221   225   226   227
H 865.09580186 -45.79281861 69.17530737     6    224    0    0    0
H 863.95011657 -44.56551607 72.10900726     6    224    0    0    0
C 867.52283349 -46.34929718 72.34903394     2    224   228   229   230
H 867.58547171 -46.48501283 74.40351601     6    227    0    0    0
H 868.36611197 -48.11785632 71.61470140     6    227    0    0    0
C 869.33485593 -44.04753012 71.83381204     2    227   231   232   233
H 869.59431816 -43.39374653 69.89603198     6    230    0    0    0
H 868.23595676 -42.64384507 72.80235840     6    230    0    0    0
C 871.99682543 -44.41118136 72.92512066     2    230   234   235   236
H 872.12826122 -45.64353757 74.66605032     6    233    0    0    0
H 873.08777189 -45.38262128 71.56677691     6    233    0    0    0
C 873.28948939 -41.91430688 73.63882542     1    233   237   238   239
H 875.06362450 -42.43414384 74.47542669     6    236    0    0    0
H 872.24398813 -40.76450144 75.00498405     6    236    0    0    0
H 873.57847899 -40.81109136 71.91253188     6    236    0    0    0
H 848.11668337 -84.86200033 67.80515896     6     241    0    0    0 
C 846.84899755 -83.27760932 68.10316005     1     240    242    243    244
H 845.83454450 -82.85182916 66.46324172     6     241    0    0    0
H 845.40568102 -83.95187395 69.31392251     6     241    0    0    0
C 847.93656147 -80.95020873 69.49930418     2     241    245    246    247
H 849.45018396 -80.27896512 68.36768010     6     244    0    0    0
H 846.57331091 -79.54756809 69.60197190     6     244    0    0    0
C 848.84347458 -81.38188306 72.20325892     2     244    248   249   250
H 849.38526008 -79.59968664 73.23540314     6     247    0    0    0
H 847.36491561 -82.27148184 73.36598497     6     247    0    0    0
C 851.16026454 -83.28236658 72.35040782     2     247   251   252   253
H 851.50410833 -83.96284268 74.35487460     6    250    0    0    0
H 850.91337559 -84.86510282 70.99335237     6    250    0    0    0
C 853.56866120 -81.90010190 71.66622149     2    250   254   255   256
H 853.33188068 -80.72871308 69.97463787     6    253    0    0    0
H 853.96981895 -80.65467541 73.26470549     6    253    0    0    0
C 856.16770401 -83.45911141 71.70885924     2    253   257   258   259
H 857.65038491 -82.10978853 71.91482721     6    256    0    0    0
H 856.20824282 -84.47072612 73.39746359     6    256    0    0    0
C 856.41251338 -85.15103266 69.55926273     2    256   260   261   262
H 854.94861943 -86.38502577 69.56945544     6    259    0    0    0
H 856.14493044 -83.81628471 68.05455841     6    259    0    0    0
C 858.99647833 -86.55558733 69.39182778     2    259   263   264   265
H 860.59724866 -85.37363906 70.04295686     6    262    0    0    0
H 859.18822032 -88.16981918 70.65373413     6    262    0    0    0
C 859.59280988 -87.54379316 66.66821150     2    262   266   267   268
H 858.50491868 -89.27396609 66.34790297     6    265    0    0    0
H 859.00072763 -86.05387823 65.17459842     6    265    0    0    0
C 862.43162867 -88.07446592 66.35206400     2    265   269   270   271
H 863.70538496 -86.69876623 67.27123970     6    268    0    0    0
H 862.68131199 -89.89521322 67.41604663     6    268    0    0    0
C 863.26233461 -88.36717686 63.46939929     2    268   272   273   274
H 862.08411803 -89.96048969 62.73911358     6    271    0    0    0
H 862.62357368 -86.81904354 62.35115913     6    271    0    0    0
C 866.08664239 -89.02878431 63.04541144     1    271   275   276   277
H 867.24147387 -87.53024277 64.06062080     6    274    0    0    0
H 866.52627958 -89.33505771 60.96230760     6    274    0    0    0
H 866.36432293 -90.74629632 64.05864670     6    274    0    0    0
H 847.29717907 -53.37699084 79.41718408     6     279    0    0    0 
C 848.48140170 -55.04301603 79.53076532     1     278    280    281    282
H 849.05769877 -55.47926692 81.47509157     6     279    0    0    0
H 847.27171609 -56.77769250 79.15258550     6     279    0    0    0
C 850.88481096 -54.99629340 77.79037310     2     279    283    284    285
H 850.29803252 -55.32491590 75.85209075     6     282    0    0    0
H 851.67547312 -53.11391647 77.59277888     6     282    0    0    0
C 852.82684521 -56.99918227 78.49898602     2     282    286   287   288
H 853.44742924 -56.51841774 80.39415264     6     285    0    0    0
H 852.21112234 -58.97927958 78.44335795     6     285    0    0    0
C 854.93243604 -56.90764750 76.63636470     2     285   289   290   291
H 854.26076700 -57.44569159 74.69408608     6    288    0    0    0
H 855.69490889 -54.92234459 76.48032622     6    288    0    0    0
C 857.16972909 -58.58735124 77.25630967     2    288   292   293   294
H 857.99520574 -58.17041756 79.19964113     6    291    0    0    0
H 856.40072453 -60.40828378 77.37746652     6    291    0    0    0
C 859.12078621 -58.56076562 75.05911711     2    291   295   296   297
H 858.00962841 -58.96065565 73.20490457     6    294    0    0    0
H 859.87813938 -56.55331886 74.85071254     6    294    0    0    0
C 861.42383915 -60.31149385 75.34755020     2    294   298   299   300
H 862.44320485 -59.61606266 76.94369344     6    297    0    0    0
H 860.91607194 -62.24979867 75.93867937     6    297    0    0    0
C 863.13460152 -60.32172481 73.00871961     2    297   301   302   303
H 862.10195097 -61.62799784 71.77181786     6    300    0    0    0
H 863.18502703 -58.46578586 72.07035328     6    300    0    0    0
C 865.81743733 -61.43702163 73.52307769     2    300   304   305   306
H 866.85274950 -60.02049779 74.48601407     6    303    0    0    0
H 865.42404521 -62.92336766 75.02286958     6    303    0    0    0
C 867.12422248 -62.09514866 71.04816094     2    303   307   308   309
H 866.01720544 -63.60396957 70.07242261     6    306    0    0    0
H 867.19671543 -60.45241980 69.82566713     6    306    0    0    0
C 869.68787067 -63.32985603 71.33740034     2    306   310   311   312
H 870.81933893 -62.00847912 72.53391523     6    309    0    0    0
H 869.36938482 -65.17996288 72.20395195     6    309    0    0    0
C 871.03471242 -63.76270513 68.87929770     1    309   313   314   315
H 871.24184409 -62.02812600 67.88802357     6    312    0    0    0
H 870.16843272 -65.36928727 67.91987142     6    312    0    0    0
H 872.95401208 -64.32936273 69.28993879     6    312    0    0    0
H 830.22221465 -60.11864421 74.99958919     6     317    0    0    0 
C 831.65479054 -61.37081970 74.27963829     1     316    318    319    320
H 833.42495431 -60.43453314 73.87653124     6     317    0    0    0
H 831.83104365 -62.70606510 75.92837284     6     317    0    0    0
C 830.92117569 -62.74006746 71.84919010     2     317    321    322    323
H 832.34099689 -64.17998191 71.29095659     6     320    0    0    0
H 829.21655499 -63.78870017 72.02778797     6     320    0    0    0
C 830.67146501 -60.88278681 69.70194136     2     320    324   325   326
H 829.25296382 -59.43758791 70.25894675     6     323    0    0    0
H 832.42481938 -59.86859793 69.49534603     6     323    0    0    0
C 829.86984705 -62.27172481 67.25657424     2     323   327   328   329
H 831.24343316 -63.56535965 66.61840522     6    326    0    0    0
H 828.31809450 -63.43514276 67.66007195     6    326    0    0    0
C 828.99590481 -60.44511668 65.11683215     2    326   330   331   332
H 827.37909740 -59.38743131 65.72577292     6    329    0    0    0
H 830.39179477 -58.95675266 64.98375791     6    329    0    0    0
C 828.79401169 -61.88869044 62.61618196     2    329   333   334   335
H 827.66193530 -63.56114181 62.82974964     6    332    0    0    0
H 827.65052456 -60.58944331 61.52478558     6    332    0    0    0
C 831.20887817 -62.71063327 61.28948463     2    332   336   337   338
H 832.29780892 -61.12537618 60.79204343     6    335    0    0    0
H 832.38505672 -63.66113706 62.46393082     6    335    0    0    0
C 830.58800091 -64.24197896 58.86940811     2    335   339   340   341
H 832.33578243 -65.20262217 58.70632068     6    338    0    0    0
H 829.14274921 -65.69120351 58.98901989     6    338    0    0    0
C 829.81105540 -62.48041789 56.58978829     2    338   342   343   344
H 828.26797712 -61.24599616 57.08487175     6    341    0    0    0
H 831.34579023 -61.15091875 56.08775527     6    341    0    0    0
C 829.23458405 -63.86252754 54.01471880     2    341   345   346   347
H 829.19661822 -62.55061998 52.59714241     6    344    0    0    0
H 830.90747135 -64.94071905 53.75156590     6    344    0    0    0
C 826.77586059 -65.44872279 53.89882824     2    344   348   349   350
H 827.09298663 -67.20355317 55.04720209     6    347    0    0    0
H 825.14832091 -64.66374062 54.74839251     6    347    0    0    0
C 826.06084716 -66.33775440 51.27143721     1    347   351   352   353
H 824.28879938 -67.35969259 51.17545737     6    350    0    0    0
H 827.55534296 -67.77113203 50.73281366     6    350    0    0    0
H 825.82302919 -64.76944526 49.90933818     6    350    0    0    0
H 852.69136440 -72.36572988 74.63612941     6     355    0    0    0 
C 850.76824288 -72.17436323 75.29952103     1     354    356    357    358
H 849.55176972 -73.01189655 73.80408656     6     355    0    0    0
H 850.47572148 -73.42895164 76.92027503     6     355    0    0    0
C 850.20245050 -69.44967654 75.85980795     2     355    359    360    361
H 850.91101431 -68.79485056 77.61051867     6     358    0    0    0
H 851.26790607 -68.32510254 74.41445151     6     358    0    0    0
C 847.40555580 -68.80017439 75.59385691     2     358    362   363   364
H 846.74427766 -69.07795330 73.60208928     6     361    0    0    0
H 846.38884534 -70.13919761 76.79290374     6     361    0    0    0
C 846.97468217 -66.16040889 76.30173147     2     361   365   366   367
H 847.06297178 -65.89105270 78.36641051     6    364    0    0    0
H 848.63769724 -64.84845698 75.77168654     6    364    0    0    0
C 844.46921996 -65.03824999 75.33600214     2    364   368   369   370
H 844.12004035 -64.89920279 73.33880210     6    367    0    0    0
H 842.96567248 -66.42363340 75.62453839     6    367    0    0    0
C 843.71362005 -62.45751117 76.72380210     2    367   371   372   373
H 843.19816404 -62.77334780 78.74767702     6    370    0    0    0
H 845.45980232 -61.47700419 76.79919640     6    370    0    0    0
C 841.53574344 -60.91277219 75.41066315     2    370   374   375   376
H 842.11973016 -60.18460266 73.65057663     6    373    0    0    0
H 839.88772507 -62.14180169 75.05933324     6    373    0    0    0
C 840.73949574 -58.82786636 77.20217983     2    373   377   378   379
H 840.09960377 -59.40625849 79.05190352     6    376    0    0    0
H 842.58552329 -57.89865533 77.57871797     6    376    0    0    0
C 838.90572696 -56.92026843 76.24866006     2    376   380   381   382
H 837.35601802 -57.95366297 75.70196579     6    379    0    0    0
H 838.13907417 -55.79932628 77.79058004     6    379    0    0    0
C 839.79531687 -55.25292821 73.92823520     2    379   383   384   385
H 841.56471228 -54.59002837 74.25857596     6    382    0    0    0
H 840.02263990 -56.57292626 72.23485878     6    382    0    0    0
C 838.04301774 -52.95091267 73.19231434     2    382   386   387   388
H 838.90739777 -52.16632911 71.45248898     6    385    0    0    0
H 836.21518106 -53.65545318 72.73071455     6    385    0    0    0
C 837.84101482 -51.09399934 75.54991809     1    385   389   390   391
H 836.84959234 -49.43949503 74.78507499     6    388    0    0    0
H 839.65366202 -50.77341906 76.29396427     6    388    0    0    0
H 836.64600240 -51.93012965 77.03758151     6    388    0    0    0
H 828.43163814 -77.81627544 32.75879352     6     393    0    0    0 
C 830.37644410 -78.27813154 32.26440640     1     392    394    395    396
H 830.39501810 -79.90216442 30.96080698     6     393    0    0    0
H 831.01967626 -76.67418286 31.19668049     6     393    0    0    0
C 832.01223293 -78.95239406 34.51210217     2     393    397    398    399
H 831.81669570 -77.59203846 35.95190161     6     396    0    0    0
H 831.47306748 -80.69193190 35.36217757     6     396    0    0    0
C 834.74629951 -78.92729754 33.92165915     2     396    400   401   402
H 835.26430103 -80.48106657 32.60009594     6     399    0    0    0
H 835.00761566 -77.13864005 32.96097253     6     399    0    0    0
C 836.36115778 -79.30502984 36.34509947     2     399   403   404   405
H 835.82016566 -77.86079687 37.75475461     6    402    0    0    0
H 835.84746387 -81.09861694 37.32193403     6    402    0    0    0
C 839.06268299 -79.22591877 35.59541977     2    402   406   407   408
H 839.58974147 -80.80948461 34.26581390     6    405    0    0    0
H 839.56026627 -77.51059431 34.59526898     6    405    0    0    0
C 840.79092506 -79.65125482 38.08268072     2    405   409   410   411
H 840.18019682 -78.10674998 39.37611099     6    408    0    0    0
H 840.23290081 -81.44678305 38.99723859     6    408    0    0    0
C 843.64714433 -79.65625465 37.50827579     2    408   412   413   414
H 844.11731009 -81.12920887 36.20224842     6    411    0    0    0
H 843.80052462 -77.76135038 36.63361083     6    411    0    0    0
C 845.03542853 -79.59950301 40.03945918     2    411   415   416   417
H 843.87095359 -78.56963870 41.39250690     6    414    0    0    0
H 844.87185907 -81.47551542 40.72896183     6    414    0    0    0
C 847.74517501 -78.77478204 39.64590307     2    414   418   419   420
H 848.62181915 -80.05150082 38.15293299     6    417    0    0    0
H 847.87396655 -76.71347840 39.17874475     6    417    0    0    0
C 849.47934116 -78.77353600 41.96700939     2    417   421   422   423
H 848.98044326 -77.26893817 43.33379009     6    420    0    0    0
H 849.19636225 -80.53679894 43.10314105     6    420    0    0    0
C 852.32148982 -78.80868134 41.44473092     2    420   424   425   426
H 853.27860882 -79.06824244 43.32147871     6    423    0    0    0
H 853.03533076 -80.32193783 40.21154697     6    423    0    0    0
C 853.11243226 -76.08866662 40.87326843     1    423   427   428   429
H 855.15400481 -75.66805141 41.16035604     6    426    0    0    0
H 852.27672978 -74.67419131 42.02803689     6    426    0    0    0
H 852.71112045 -75.47139389 38.90015964     6    426    0    0    0
H 837.40284616 -89.21099151 57.71405683     6     431    0    0    0 
C 835.79752359 -90.03222139 56.69824225     1     430    432    433    434
H 836.61755900 -91.71423529 55.84364802     6     431    0    0    0
H 834.36716000 -90.82805127 57.96204721     6     431    0    0    0
C 834.42203044 -88.51589150 54.77797147     2     431    435    436    437
H 832.61279511 -88.19689967 55.55040120     6     434    0    0    0
H 835.28693353 -86.63619848 54.64087891     6     434    0    0    0
C 834.30440430 -89.98855734 52.30131490     2     434    438   439   440
H 836.11859680 -89.96161949 51.43755050     6     437    0    0    0
H 833.96226952 -91.94169029 52.77002326     6     437    0    0    0
C 832.47578941 -88.90064160 50.35006792     2     437   441   442   443
H 832.46191808 -90.06042322 48.66005305     6    440    0    0    0
H 830.51209270 -88.85573860 51.01249839     6    440    0    0    0
C 833.45975219 -86.25387362 49.45081799     2    440   444   445   446
H 833.15461243 -84.77547122 50.81901460     6    443    0    0    0
H 835.36540195 -86.29405627 48.91414074     6    443    0    0    0
C 832.41916093 -84.93390573 47.21657701     2    443   447   448   449
H 830.42874716 -84.62510162 47.50169979     6    446    0    0    0
H 832.79721103 -82.76313619 47.30071460     6    446    0    0    0
C 833.08509589 -86.13289949 44.65498557     2    446   450   451   452
H 834.70295678 -85.26873031 43.74201655     6    449    0    0    0
H 833.89840954 -88.05970513 45.03627694     6    449    0    0    0
C 831.06249072 -86.46346673 42.62898760     2    449   453   454   455
H 831.71447443 -87.18555233 40.86423273     6    452    0    0    0
H 829.51096578 -87.59232397 43.47267615     6    452    0    0    0
C 829.91872871 -83.91988949 41.48390731     2    452   456   457   458
H 829.30884960 -82.62250126 42.93840904     6    455    0    0    0
H 831.56403636 -83.10785881 40.51551857     6    455    0    0    0
C 827.56641469 -84.50162741 39.72508372     2    455   459   460   461
H 828.20452005 -85.45383583 37.96504245     6    458    0    0    0
H 826.17996748 -85.79873563 40.59397243     6    458    0    0    0
C 826.35182953 -81.90557545 38.75675903     2    458   462   463   464
H 825.39137252 -81.16815485 40.46804117     6    461    0    0    0
H 827.74568920 -80.43527579 38.39163725     6    461    0    0    0
C 824.42003870 -82.26525292 36.73835070     1    461   465   466   467
H 823.56839377 -83.96481132 37.13458451     6    464    0    0    0
H 825.18915390 -82.24822433 34.81030390     6    464    0    0    0
H 823.10353425 -80.67112204 36.76543816     6    464    0    0    0
H 837.65299591 -53.76209320 83.20311048     6     469    0    0    0 
C 838.18746866 -54.02646553 85.22991271     1     468    470    471    472
H 839.62928689 -52.58422844 85.61585527     6     469    0    0    0
H 836.47075944 -53.80259363 86.36295056     6     469    0    0    0
C 839.09731557 -56.70517184 85.58980266     2     469    473    474    475
H 838.83504219 -57.10341048 87.53792877     6     472    0    0    0
H 837.81729671 -58.13769322 84.61978087     6     472    0    0    0
C 841.92783122 -57.07582394 84.89768399     2     472    476   477   478
H 842.38970072 -56.02034795 83.16416918     6     475    0    0    0
H 843.01313160 -56.34464583 86.58143131     6     475    0    0    0
C 842.66592088 -59.94932981 84.78148256     2     475   479   480   481
H 842.37677182 -60.91029774 86.54183675     6    478    0    0    0
H 841.45641111 -60.80532557 83.36434467     6    478    0    0    0
C 845.52022603 -60.11697647 84.37926063     2    478   482   483   484
H 846.05250692 -59.01217502 82.68506967     6    481    0    0    0
H 846.44083716 -59.37300697 85.99794141     6    481    0    0    0
C 846.31709335 -63.00245756 84.07449601     2    481   485   486   487
H 846.31398253 -63.68289955 86.03864457     6    484    0    0    0
H 845.02951573 -64.09216754 82.93831043     6    484    0    0    0
C 849.00304487 -63.15154181 83.07267576     2    484   488   489   490
H 848.98733492 -62.49086660 81.06381394     6    487    0    0    0
H 850.22056186 -61.93577968 84.09796682     6    487    0    0    0
C 850.10726212 -65.88382483 83.21213322     2    487   491   492   493
H 849.59546119 -66.73086786 85.13012622     6    490    0    0    0
H 849.09740602 -66.90658558 81.73966619     6    490    0    0    0
C 852.82533803 -66.12172459 82.79062908     2    490   494   495   496
H 853.37042239 -65.46422873 80.99422023     6    493    0    0    0
H 853.72672508 -64.89551668 84.19521062     6    493    0    0    0
C 853.66237706 -68.95995003 83.00404555     2    493   497   498   499
H 853.93571825 -69.57266598 84.96503770     6    496    0    0    0
H 852.14931395 -70.19614414 82.32396596     6    496    0    0    0
C 856.10800782 -69.64476012 81.72441067     2    496   500   501   502
H 856.23477176 -68.90888400 79.70420399     6    499    0    0    0
H 857.40757217 -68.46850794 82.85324407     6    499    0    0    0
C 856.98249533 -72.35266952 81.46014537     1    499   503   504   505
H 858.92077522 -72.54863982 80.64748050     6    502    0    0    0
H 855.51032664 -73.35020724 80.40128157     6    502    0    0    0
H 856.94615176 -73.06402591 83.24979879     6    502    0    0    0
H 863.06431729 -91.75266172 57.60314823     6     507    0    0    0 
C 862.12357234 -90.79167403 56.16472907     1     506    508    509    510
H 862.23897355 -88.76841784 56.63996226     6     507    0    0    0
H 863.20321419 -90.97813848 54.32717622     6     507    0    0    0
C 859.30635211 -91.36202552 55.88776720     2     507    511    512    513
H 859.02596096 -93.36359406 55.40276908     6     510    0    0    0
H 858.26900273 -91.24257185 57.68911385     6     510    0    0    0
C 858.23809020 -89.48271610 53.97682718     2     510    514   515   516
H 858.72126846 -87.60097733 54.62472302     6     513    0    0    0
H 859.03237814 -89.85013727 52.07844357     6     513    0    0    0
C 855.42757205 -89.52937021 53.69318803     2     513   517   518   519
H 854.75712772 -91.43863576 53.66486055     6    516    0    0    0
H 854.57783938 -88.81569965 55.37876156     6    516    0    0    0
C 854.47382217 -87.81310543 51.48312530     2    516   520   521   522
H 855.16526116 -85.85667013 51.55114368     6    519    0    0    0
H 855.08286338 -88.49225284 49.53897622     6    519    0    0    0
C 851.69776732 -88.05809264 51.37145468     2    519   523   524   525
H 851.08125578 -90.02661350 51.05394840     6    522    0    0    0
H 850.67837685 -87.51950964 53.04039378     6    522    0    0    0
C 850.47153583 -86.29689869 49.29841637     2    522   526   527   528
H 850.90502646 -84.24216879 49.61517377     6    525    0    0    0
H 851.49497841 -86.58055227 47.51688327     6    525    0    0    0
C 847.58771674 -86.81727818 49.02544445     2    525   529   530   531
H 847.41294912 -88.95787231 48.86872999     6    528    0    0    0
H 846.59519376 -86.50332102 50.79668099     6    528    0    0    0
C 846.23401143 -85.22050918 46.95970807     2    528   532   533   534
H 846.50242618 -83.13568182 47.24176973     6    531    0    0    0
H 847.24851686 -85.51793011 45.25570788     6    531    0    0    0
C 843.60680888 -86.08421779 46.59313017     2    531   535   536   537
H 843.57388629 -88.04327656 45.95731850     6    534    0    0    0
H 842.41132621 -86.03921686 48.31832659     6    534    0    0    0
C 842.34501396 -84.49855840 44.63939600     2    534   538   539   540
H 842.68953051 -82.51141549 44.89110090     6    537    0    0    0
H 843.09735924 -84.99944067 42.80941694     6    537    0    0    0
C 839.50819578 -84.92746457 44.76311087     1    537   541   542   543
H 838.60410233 -84.46881105 43.09791321     6    540    0    0    0
H 838.89940696 -83.85453252 46.49363736     6    540    0    0    0
H 839.03541674 -86.85196992 45.31809900     6    540    0    0    0
H 834.03487315 -70.57221169 47.83362375     6     545    0    0    0 
C 834.18068474 -69.06433439 46.49501099     1     544    546    547    548
H 836.03001745 -68.29129616 46.53320789     6     545    0    0    0
H 833.77132232 -69.68797708 44.49299414     6     545    0    0    0
C 832.42108777 -66.96835647 47.42929452     2     545    549    550    551
H 830.31559439 -67.34679686 47.17352531     6     548    0    0    0
H 832.61465585 -66.76175473 49.41074621     6     548    0    0    0
C 832.90712564 -64.51077101 46.11136113     2     548    552   553   554
H 834.96694784 -64.16555933 46.19298109     6     551    0    0    0
H 832.44110375 -64.62940430 44.06585029     6     551    0    0    0
C 831.22828378 -62.36753710 47.18476726     2     551   555   556   557
H 829.17091558 -62.51109810 46.91889476     6    554    0    0    0
H 831.59410134 -62.29396854 49.31071595     6    554    0    0    0
C 831.75477600 -59.70434771 46.00695592     2    554   558   559   560
H 833.60925941 -59.12273061 46.52355657     6    557    0    0    0
H 831.75429036 -60.23220367 44.09440356     6    557    0    0    0
C 829.88657808 -57.67184106 46.90848977     2    557   561   562   563
H 828.05031141 -58.44500059 46.35300818     6    560    0    0    0
H 830.03725353 -57.47885807 48.94947135     6    560    0    0    0
C 830.33050335 -55.11473387 45.68347887     2    560   564   565   566
H 832.19498035 -54.89916986 46.15606336     6    563    0    0    0
H 830.15729128 -55.45726732 43.65926431     6    563    0    0    0
C 828.36766668 -52.94784207 45.98740353     2    563   567   568   569
H 826.57455164 -53.78132531 45.55358803     6    566    0    0    0
H 828.42858582 -52.30604522 47.94276967     6    566    0    0    0
C 828.63481711 -50.78982392 44.01761750     2    566   570   571   572
H 828.27406294 -51.56414859 42.12027537     6    569    0    0    0
H 827.17897526 -49.52201763 44.12115965     6    569    0    0    0
C 831.27197278 -49.51227266 44.15370244     2    569   573   574   575
H 831.69681426 -48.86647563 46.03275595     6    572    0    0    0
H 832.57333171 -50.97288449 43.72576986     6    572    0    0    0
C 831.83609379 -47.44693224 42.11128648     2    572   576   577   578
H 830.09787320 -46.34856796 41.57447688     6    575    0    0    0
H 833.18640384 -46.22805458 42.87616493     6    575    0    0    0
C 833.06328069 -48.57488012 39.72173399     1    575   579   580   581
H 831.93416188 -50.25658712 38.93122598     6    578    0    0    0
H 834.97499694 -49.38900376 39.97181409     6    578    0    0    0
H 833.06500136 -47.17286096 38.27855155     6    578    0    0    0
H 846.65830370 -49.55338916 78.14948559     6     583    0    0    0 
C 846.81083619 -48.48182775 76.38898454     1     582    584    585    586
H 847.15497987 -46.60860818 76.86469512     6     583    0    0    0
H 848.47283437 -49.09570323 75.37504098     6     583    0    0    0
C 844.52178732 -48.37802966 74.69797711     2     583    587    588    589
H 844.09888705 -50.05720516 73.62118415     6     586    0    0    0
H 842.97259444 -48.07198561 75.96382580     6     586    0    0    0
C 844.40176691 -46.38164337 72.55427085     2     586    590   591   592
H 845.55708941 -44.80122831 73.00073431     6     589    0    0    0
H 845.27598447 -47.26775841 70.93095468     6     589    0    0    0
C 841.64390934 -45.76453022 71.92256770     2     589   593   594   595
H 840.64083867 -47.32093714 71.14644358     6    592    0    0    0
H 840.54715300 -45.07142697 73.51967268     6    592    0    0    0
C 841.18757917 -43.69963165 69.90660390     2    592   596   597   598
H 840.90225771 -41.94160048 70.68353884     6    595    0    0    0
H 842.77347241 -43.58819378 68.69799311     6    595    0    0    0
C 838.76189320 -44.15190829 68.31082573     2    595   599   600   601
H 838.52427651 -46.09745037 67.43162255     6    598    0    0    0
H 837.22792921 -44.14863659 69.54019259     6    598    0    0    0
C 838.20263938 -42.22351979 66.11534254     2    598   602   603   604
H 838.43464845 -40.29861471 66.76576616     6    601    0    0    0
H 839.63961034 -42.38061557 64.72103472     6    601    0    0    0
C 835.43772351 -42.47012794 65.22786039     2    601   605   606   607
H 835.10926746 -44.47831356 64.91152664     6    604    0    0    0
H 834.15678977 -41.97120102 66.85796250     6    604    0    0    0
C 834.61434484 -40.92080201 62.89435286     2    604   608   609   610
H 834.96091660 -38.80905805 63.15119642     6    607    0    0    0
H 835.66892798 -41.39419744 61.17443635     6    607    0    0    0
C 831.78652938 -41.03762875 62.20836979     2    607   611   612   613
H 830.97075903 -42.92810738 62.17199655     6    610    0    0    0
H 830.83762674 -40.29777609 63.93769990     6    610    0    0    0
C 831.13402535 -39.55785979 59.78456218     2    610   614   615   616
H 831.64090957 -37.64510985 60.11032659     6    613    0    0    0
H 832.13592667 -40.15544884 58.16192672     6    613    0    0    0
C 828.31135195 -39.61923027 59.27752985     1    613   617   618   619
H 827.86543183 -38.31398233 57.76939959     6    616    0    0    0
H 827.05405532 -39.10788463 60.81913665     6    616    0    0    0
H 827.69606761 -41.44529942 58.38709238     6    616    0    0    0
H 855.31617943 -63.18691039 40.76514110     6     621    0    0    0 
C 855.31909408 -63.87678965 42.71060271     1     620    622    623    624
H 853.57434485 -62.97963712 43.35998244     6     621    0    0    0
H 854.95228255 -65.92407875 42.45026398     6     621    0    0    0
C 857.73366756 -63.55275098 44.43585534     2     621    625    626    627
H 857.49777875 -64.36014583 46.26730684     6     624    0    0    0
H 859.32186284 -64.35666144 43.61833850     6     624    0    0    0
C 858.27652082 -60.81202202 44.90347271     2     624    628   629   630
H 858.15692105 -59.97598015 42.99262257     6     627    0    0    0
H 856.67579432 -59.97946970 45.80266378     6     627    0    0    0
C 860.63928087 -60.23508262 46.50887291     2     627   631   632   633
H 860.17882096 -61.04467218 48.35601611     6    630    0    0    0
H 862.34120602 -60.91517711 45.69559729     6    630    0    0    0
C 860.72428407 -57.38787370 46.96388901     2    630   634   635   636
H 860.17345658 -56.31462526 45.27656193     6    633    0    0    0
H 859.16816043 -56.82932660 48.20982749     6    633    0    0    0
C 863.02655765 -56.36889756 48.14929703     2    633   637   638   639
H 863.57661353 -57.13430213 49.92615112     6    636    0    0    0
H 864.61398638 -56.99396044 46.88252018     6    636    0    0    0
C 863.05736581 -53.48532655 48.28603149     2    636   640   641   642
H 862.48969255 -52.75520819 46.39521508     6    639    0    0    0
H 862.05834968 -52.62922216 49.88571211     6    639    0    0    0
C 865.81584731 -52.60650837 48.60362010     2    639   643   644   645
H 866.81612679 -53.51884861 50.17975821     6    642    0    0    0
H 867.07989818 -53.32992256 47.01876280     6    642    0    0    0
C 866.25757002 -49.81864564 49.03071656     2    642   646   647   648
H 865.44190964 -48.69029468 47.40558951     6    645    0    0    0
H 865.19343489 -49.02448015 50.67966876     6    645    0    0    0
C 869.02240224 -49.03987183 49.47503408     2    645   649   650   651
H 870.05223140 -50.34632253 50.62072287     6    648    0    0    0
H 869.67070422 -49.20211089 47.51686175     6    648    0    0    0
C 869.59192355 -46.31303247 50.21698419     2    648   652   653   654
H 869.76482222 -46.05545170 52.33611242     6    651    0    0    0
H 871.57896542 -46.12421595 49.46029611     6    651    0    0    0
C 868.24810180 -44.06499002 48.83686635     1    651   655   656   657
H 868.49899490 -44.37213647 46.78126785     6    654    0    0    0
H 868.90124215 -42.15111898 49.22162169     6    654    0    0    0
H 866.23891285 -44.29143115 48.92324449     6    654    0    0    0
H 845.18222471 -53.46842721 63.77367402     6     659    0    0    0 
C 843.84778221 -52.26424734 62.51021722     1     658    660    661    662
H 844.93872480 -51.98712414 60.87534730     6     659    0    0    0
H 842.09205565 -53.23526602 62.26160799     6     659    0    0    0
C 843.43440087 -49.55711636 63.59278813     2     659    663    664    665
H 842.45473124 -49.67563843 65.46586504     6     662    0    0    0
H 845.25305177 -48.78176251 63.99408694     6     662    0    0    0
C 841.95510671 -47.78033134 61.98143189     2     662    666   667   668
H 841.90825888 -45.82525959 62.49991043     6     665    0    0    0
H 842.84866302 -47.70957508 60.05686198     6     665    0    0    0
C 839.28128056 -48.80549663 61.61116335     2     665   669   670   671
H 839.31390652 -50.60163869 60.42888057     6    668    0    0    0
H 838.64024083 -49.38248413 63.53387095     6    668    0    0    0
C 837.62242706 -47.18317493 59.87905426     2    668   672   673   674
H 836.79604269 -45.63383486 60.81099703     6    671    0    0    0
H 838.74046670 -46.57440785 58.23543205     6    671    0    0    0
C 835.55876305 -48.71739488 58.56647826     2    671   675   676   677
H 836.17102103 -50.03147152 57.10553253     6    674    0    0    0
H 834.48930249 -49.87400075 59.90408465     6    674    0    0    0
C 833.85278226 -46.79616174 57.06400209     2    674   678   679   680
H 832.09784429 -47.68703483 56.42756863     6    677    0    0    0
H 833.01796593 -45.13049592 58.11887192     6    677    0    0    0
C 834.87219221 -45.69128455 54.62457731     2    677   681   682   683
H 836.36911875 -44.28284066 55.01996496     6    680    0    0    0
H 835.82069175 -47.00707533 53.41330113     6    680    0    0    0
C 832.88422896 -44.17984605 53.11070310     2    680   684   685   686
H 831.41034331 -43.21222835 54.21115806     6    683    0    0    0
H 833.92743344 -42.64154857 52.13344895     6    683    0    0    0
C 831.82690905 -45.79596813 50.83326575     2    683   687   688   689
H 833.35181389 -46.58044609 49.66756874     6    686    0    0    0
H 830.74777329 -47.33646209 51.72218237     6    686    0    0    0
C 829.76154162 -44.46852500 49.23950653     2    686   690   691   692
H 830.35837253 -42.44234241 48.86543645     6    689    0    0    0
H 829.47682630 -45.45800491 47.44091010     6    689    0    0    0
C 827.13847221 -44.38396525 50.62202047     1    689   693   694   695
H 825.83163549 -43.21044182 49.39671015     6    692    0    0    0
H 827.53156170 -43.66919504 52.57478901     6    692    0    0    0
H 826.40649547 -46.26755322 50.72688715     6    692    0    0    0
H 833.61966933 -60.30066645 34.10544764     6     697    0    0    0 
C 833.78643039 -62.32138124 34.05012019     1     696    698    699    700
H 834.51276787 -63.02913943 32.28788498     6     697    0    0    0
H 835.34312382 -62.54700121 35.58897114     6     697    0    0    0
C 831.16697440 -63.54041413 34.74142672     2     697    701    702    703
H 830.67950340 -62.79357541 36.52293362     6     700    0    0    0
H 829.83359324 -62.65233248 33.49257391     6     700    0    0    0
C 830.65442216 -66.30366952 34.45243927     2     700    704   705   706
H 830.05948003 -66.83891342 32.49535509     6     703    0    0    0
H 832.24256932 -67.51684226 35.18722404     6     703    0    0    0
C 828.24502443 -66.82781469 36.06005441     2     703   707   708   709
H 828.59381560 -66.24746046 37.96929682     6    706    0    0    0
H 826.52259666 -65.68059427 35.40081388     6    706    0    0    0
C 827.35450079 -69.64350380 36.11647305     2    706   710   711   712
H 826.96811856 -70.23636517 34.27150484     6    709    0    0    0
H 828.91656127 -70.78206571 36.93162303     6    709    0    0    0
C 824.96791144 -70.01390701 37.76494039     2    709   713   714   715
H 825.26483092 -69.28615069 39.67499071     6    712    0    0    0
H 823.45545909 -68.79036579 36.83239959     6    712    0    0    0
C 824.02976468 -72.68510849 37.82485274     2    712   716   717   718
H 823.95591423 -73.49317353 35.87103016     6    715    0    0    0
H 825.41770181 -73.85745240 38.57578291     6    715    0    0    0
C 821.33728576 -73.00077434 39.09227488     2    715   719   720   721
H 821.34961581 -72.72026146 41.07277414     6    718    0    0    0
H 820.11866208 -71.66852968 38.27253911     6    718    0    0    0
C 819.99712259 -75.40459122 38.69877024     2    718   722   723   724
H 820.06925573 -75.96404830 36.71441920     6    721    0    0    0
H 820.93943755 -76.89126544 39.58209005     6    721    0    0    0
C 817.27450124 -75.03286524 39.62829438     2    721   725   726   727
H 817.07032008 -74.16756955 41.51043797     6    724    0    0    0
H 816.06662379 -73.78415317 38.37222026     6    724    0    0    0
C 815.87153990 -77.47580223 39.72005608     2    724   728   729   730
H 815.97754237 -78.53417283 37.84670611     6    727    0    0    0
H 816.73795689 -78.88177431 40.98715118     6    727    0    0    0
C 813.21903652 -77.28168348 40.70424792     1    727   731   732   733
H 812.06157387 -78.95810773 40.20703582     6    730    0    0    0
H 812.23609458 -75.67566623 39.90309079     6    730    0    0    0
H 813.32940915 -77.22003412 42.81770801     6    730    0    0    0
H 822.34814567 -65.54339153 68.55935592     6     735    0    0    0 
C 822.88697648 -67.30623383 67.78059243     1     734    736    737    738
H 821.12899903 -68.08206622 66.68594258     6     735    0    0    0
H 824.37940100 -66.94330281 66.31931701     6     735    0    0    0
C 823.68513233 -69.26108627 69.89959950     2     735    739    740    741
H 822.08656481 -69.15369993 71.08838531     6     738    0    0    0
H 824.07437075 -71.11123899 69.04420131     6     738    0    0    0
C 825.95464312 -68.37820163 71.49196047     2     738    742   743   744
H 827.75421731 -68.47606726 70.30383692     6     741    0    0    0
H 825.83440118 -66.42634531 71.97413599     6     741    0    0    0
C 826.17324659 -69.80840940 73.89735534     2     741   745   746   747
H 824.65566014 -69.30591191 75.22178491     6    744    0    0    0
H 826.08645921 -71.81422137 73.48391725     6    744    0    0    0
C 828.48994740 -69.22124418 75.61486013     2    744   748   749   750
H 828.60405918 -67.23008255 75.84662175     6    747    0    0    0
H 828.14017499 -70.07382949 77.44386483     6    747    0    0    0
C 830.92425967 -70.22551757 74.46600156     2    747   751   752   753
H 830.64264268 -71.15782874 72.57407172     6    750    0    0    0
H 831.93069770 -68.54597976 73.98652365     6    750    0    0    0
C 832.46915649 -71.78213201 76.29264175     2    750   754   755   756
H 832.80567684 -70.57744162 77.99726406     6    753    0    0    0
H 831.79561867 -73.59309238 76.68048365     6    753    0    0    0
C 835.10031700 -72.16863787 75.39268585     2    753   757   758   759
H 835.27495177 -72.66348530 73.40529237     6    756    0    0    0
H 836.10500785 -70.46522177 75.49231806     6    756    0    0    0
C 836.66677887 -73.98938152 77.10665041     2    756   760   761   762
H 836.22834431 -73.96702437 79.09904290     6    759    0    0    0
H 835.85713944 -75.89293669 76.47339330     6    759    0    0    0
C 839.53297477 -74.00305252 76.77542720     2    759   763   764   765
H 840.04534427 -74.53974083 74.76049877     6    762    0    0    0
H 840.18486338 -71.94251519 76.92258886     6    762    0    0    0
C 840.87873984 -76.02651029 78.42719634     2    762   766   767   768
H 840.32612690 -75.93591051 80.47024408     6    765    0    0    0
H 840.10352513 -77.85321247 77.86740437     6    765    0    0    0
C 843.72109121 -75.89078448 78.04500718     1    765   769   770   771
H 844.11544443 -75.92330348 76.01121486     6    768    0    0    0
H 844.53260341 -77.52068660 79.19909086     6    768    0    0    0
H 844.61830608 -74.02010934 78.56725517     6    768    0    0    0
H 873.79549229 -68.41238867 50.42746862     6     773    0    0    0 
C 872.54665933 -67.23149367 49.17929383     1     772    774    775    776
H 872.21643383 -65.44397316 49.96984892     6     773    0    0    0
H 873.67817648 -66.94051966 47.43759588     6     773    0    0    0
C 870.10463981 -68.68476906 48.43074950     2     773    777    778    779
H 870.78928856 -70.45295427 47.62751296     6     776    0    0    0
H 868.76493421 -68.96565331 49.96299053     6     776    0    0    0
C 868.70304579 -67.56036195 46.08042443     2     776    780   781   782
H 867.64576286 -65.86637037 46.78356174     6     779    0    0    0
H 869.92027115 -66.79217838 44.72455733     6     779    0    0    0
C 867.01458092 -69.47534105 44.74525607     2     779   783   784   785
H 868.22171230 -71.09791719 44.16644812     6    782    0    0    0
H 865.46726524 -70.28894219 45.91592888     6    782    0    0    0
C 865.79824400 -68.38113034 42.38880440     2    782   786   787   788
H 864.44309776 -66.77335119 42.69335592     6    785    0    0    0
H 867.36492833 -67.50094818 41.37009637     6    785    0    0    0
C 864.35384823 -70.39343235 40.73825459     2    785   789   790   791
H 865.59483502 -71.84007977 40.14125337     6    788    0    0    0
H 862.88752351 -71.20713103 41.71747469     6    788    0    0    0
C 863.11105451 -68.90092197 38.59772119     2    788   792   793   794
H 862.19190645 -67.16865914 39.18354435     6    791    0    0    0
H 864.55854503 -68.37812568 37.20984485     6    791    0    0    0
C 861.29506884 -70.78885164 37.32750367     2    791   795   796   797
H 862.36676084 -72.51102540 36.91988796     6    794    0    0    0
H 859.69653468 -71.20977709 38.70535529     6    794    0    0    0
C 859.88306704 -69.83720220 34.93339898     2    794   798   799   800
H 858.34527541 -68.52497210 35.46408022     6    797    0    0    0
H 861.33216982 -68.91908347 33.77831331     6    797    0    0    0
C 858.48768023 -72.05899915 33.56306132     2    797   801   802   803
H 859.97828773 -73.40507580 32.80383008     6    800    0    0    0
H 857.27500907 -72.76718833 35.15070724     6    800    0    0    0
C 856.68732193 -71.02709243 31.68847936     2    800   804   805   806
H 855.59189831 -69.58202736 32.65406911     6    803    0    0    0
H 857.82405782 -70.20330847 30.18313268     6    803    0    0    0
C 855.01818065 -73.09884719 30.55681881     1    803   807   808   809
H 853.63343353 -73.76735030 31.92462873     6    806    0    0    0
H 855.86783499 -74.77989127 29.71485658     6    806    0    0    0
H 854.04230302 -72.35176452 28.87636726     6    806    0    0    0
H 845.62782707 -57.13410029 72.77607258     6     811    0    0    0 
C 845.79007400 -57.50326510 70.85885039     1     810    812    813    814
H 843.99676593 -57.50487356 70.01641880     6     811    0    0    0
H 846.76237048 -55.90899664 69.77372903     6     811    0    0    0
C 847.18347056 -59.95835892 70.36693928     2     811    815    816    817
H 846.06804782 -61.46732966 70.99468159     6     814    0    0    0
H 847.30886193 -60.30321919 68.41670013     6     814    0    0    0
C 849.74688165 -60.12331074 71.46442157     2     814    818   819   820
H 850.87704414 -58.53316652 70.93695075     6     817    0    0    0
H 849.55475505 -60.30663761 73.53010327     6     817    0    0    0
C 851.08392515 -62.42872231 70.45717372     2     817   821   822   823
H 849.89691220 -64.11103118 70.59281771     6    820    0    0    0
H 851.68916405 -62.13290271 68.48376012     6    820    0    0    0
C 853.30332554 -62.94952198 72.21895849     2    820   824   825   826
H 854.39384464 -61.27611923 72.55955182     6    823    0    0    0
H 852.24506692 -63.58918878 73.87004737     6    823    0    0    0
C 855.13424670 -64.98172592 71.27672614     2    823   827   828   829
H 853.98927040 -66.41252699 70.59637632     6    826    0    0    0
H 855.85733938 -64.15162844 69.58467098     6    826    0    0    0
C 857.59078133 -65.48651944 72.72901981     2    826   830   831   832
H 858.67821778 -63.77062868 72.95605942     6    829    0    0    0
H 856.89917974 -66.28096267 74.55739354     6    829    0    0    0
C 859.26853143 -67.43747967 71.48716101     2    829   833   834   835
H 858.24703317 -69.19705539 71.15857264     6    832    0    0    0
H 860.15281827 -66.75602558 69.70257646     6    832    0    0    0
C 861.54670511 -68.07981858 73.32338430     2    832   836   837   838
H 862.07436269 -66.34856189 74.32771099     6    835    0    0    0
H 860.89807594 -69.32198198 74.75694239     6    835    0    0    0
C 863.92138132 -69.34359796 72.05467307     2    835   839   840   841
H 863.69085835 -71.15904628 70.91962555     6    838    0    0    0
H 864.90754236 -67.86724273 70.89085447     6    838    0    0    0
C 866.00921958 -70.45401469 73.80304296     2    838   842   843   844
H 866.99097135 -68.89113703 74.68101046     6    841    0    0    0
H 864.91191929 -71.70643236 75.18979838     6    841    0    0    0
C 867.92148348 -71.93454520 72.25029772     1    841   845   846   847
H 869.08021539 -70.69040461 71.09311312     6    844    0    0    0
H 867.01994662 -73.33639743 71.10865988     6    844    0    0    0
H 869.31937758 -72.91829956 73.47282202     6    844    0    0    0
H 830.50167668 -33.40108930 45.35328850     6     849    0    0    0 
C 832.25528527 -34.06487184 44.54214741     1     848    850    851    852
H 831.95844334 -34.93873796 42.74150894     6     849    0    0    0
H 833.70504946 -32.53759864 44.52579111     6     849    0    0    0
C 833.18581451 -36.35028506 46.13721702     2     849    853    854    855
H 831.63668336 -37.48464724 46.91009715     6     852    0    0    0
H 834.42030425 -37.52197965 44.94855981     6     852    0    0    0
C 834.45576185 -35.29137499 48.46860839     2     852    856   857   858
H 836.08725705 -34.32539085 47.70309034     6     855    0    0    0
H 833.17399609 -34.09162692 49.76130643     6     855    0    0    0
C 835.27739840 -37.55689915 49.89853799     2     855   859   860   861
H 833.68206847 -38.70487181 50.62251007     6    858    0    0    0
H 836.58665232 -38.71137993 48.88196472     6    858    0    0    0
C 836.57940320 -36.55586247 52.32102503     2    858   862   863   864
H 837.78245763 -34.96502368 51.84513288     6    861    0    0    0
H 835.26383133 -35.76734375 53.77683966     6    861    0    0    0
C 838.15458444 -38.59979727 53.50151573     2    861   865   866   867
H 837.17707928 -40.30919044 53.55220453     6    864    0    0    0
H 839.79617853 -39.04644993 52.25869504     6    864    0    0    0
C 839.52507632 -37.91320203 55.98564320     2    864   868   869   870
H 841.12418881 -36.81926515 55.37371770     6    867    0    0    0
H 838.50014032 -36.73309035 57.16041269     6    867    0    0    0
C 840.43357825 -40.17888337 57.50934605     2    867   871   872   873
H 838.94598110 -41.33781121 58.14764450     6    870    0    0    0
H 841.25631661 -41.39089776 56.08782360     6    870    0    0    0
C 842.49197300 -39.29445824 59.35315554     2    870   874   875   876
H 843.41681518 -41.06879381 60.00253540     6    873    0    0    0
H 844.10723138 -38.48227447 58.44543313     6    873    0    0    0
C 841.67979914 -37.54192488 61.57655282     2    873   877   878   879
H 842.08349705 -35.59085279 60.92855739     6    876    0    0    0
H 839.69253587 -37.51377004 61.99624322     6    876    0    0    0
C 843.19768699 -37.75179092 64.00037072     2    876   880   881   882
H 843.21832728 -39.56787402 65.13563149     6    879    0    0    0
H 845.07487602 -37.42770382 63.40519561     6    879    0    0    0
C 842.52294527 -35.61304016 65.71735830     1    879   883   884   885
H 843.55178189 -36.11286396 67.52959595     6    882    0    0    0
H 840.53655895 -35.40168729 66.01302596     6    882    0    0    0
H 843.22344627 -33.93057394 64.98600543     6    882    0    0    0
H 855.28266752 -69.85600236 63.70170499     6     887    0    0    0 
C 855.91234855 -67.85808604 63.79341149     1     886    888    889    890
H 856.07410045 -67.54832122 65.86405351     6     887    0    0    0
H 857.85484775 -68.06177413 63.05299279     6     887    0    0    0
C 854.39617604 -66.17915793 62.07417871     2     887    891    892    893
H 855.34796731 -64.33237332 61.60946810     6     890    0    0    0
H 854.10173129 -67.28577252 60.23250731     6     890    0    0    0
C 851.80978091 -65.39685200 63.33853108     2     890    894   895   896
H 851.15167003 -67.22916457 64.03169178     6     893    0    0    0
H 851.93061043 -64.31487119 65.05702368     6     893    0    0    0
C 849.83594183 -63.95519045 61.58247716     2     893   897   898   899
H 851.00747108 -62.79342502 60.43597699     6    896    0    0    0
H 848.74793367 -65.26715010 60.43104437     6    896    0    0    0
C 848.12495650 -62.33345630 63.32242455     2    896   900   901   902
H 847.64490395 -63.52622886 65.01979229     6    899    0    0    0
H 849.14261806 -60.65536301 63.76698255     6    899    0    0    0
C 845.61185540 -61.32886875 62.16556671     2    899   903   904   905
H 845.83504952 -59.73339388 60.89672777     6    902    0    0    0
H 844.82675508 -62.74815616 60.91661645     6    902    0    0    0
C 843.72373683 -60.65599232 64.18269579     2    902   906   907   908
H 843.08014339 -62.48369002 65.02307309     6    905    0    0    0
H 844.35402948 -59.37973041 65.71732221     6    905    0    0    0
C 841.40458029 -59.38976284 62.86976005     2    905   909   910   911
H 842.05434652 -57.83228043 61.62092436     6    908    0    0    0
H 840.61936908 -60.76244410 61.68183610     6    908    0    0    0
C 839.27812287 -58.60461169 64.77281691     2    908   912   913   914
H 838.58327740 -60.10673785 66.04736921     6    911    0    0    0
H 840.34440047 -57.43758762 66.10069249     6    911    0    0    0
C 837.04599948 -57.21264352 63.66361003     2    911   915   916   917
H 837.70728466 -55.60997999 62.64969237     6    914    0    0    0
H 835.98728258 -58.59042519 62.73141104     6    914    0    0    0
C 835.30169556 -55.99779287 65.69265564     2    914   918   919   920
H 834.64370117 -57.67054906 66.60912067     6    917    0    0    0
H 836.45226649 -54.73633442 66.86376499     6    917    0    0    0
C 833.24562286 -54.42790150 64.31724324     1    917   921   922   923
H 831.77827568 -55.68026420 63.41910728     6    920    0    0    0
H 834.06703044 -53.23136629 62.87855419     6    920    0    0    0
H 832.30365566 -53.23254859 65.59549934     6    920    0    0    0
H 850.04462218 -44.34281414 53.87329172     6     925    0    0    0 
C 851.80576462 -43.40471292 53.64856000     1     924    926    927    928
H 852.51357376 -44.13900344 51.90922748     6     925    0    0    0
H 851.51813811 -41.35600025 53.39201525     6     925    0    0    0
C 853.40343104 -44.01107639 56.02059711     2     925    929    930    931
H 853.82395618 -46.05449380 56.18642949     6     928    0    0    0
H 855.32796349 -43.19920724 55.81565992     6     928    0    0    0
C 852.06212906 -43.21076852 58.46098782     2     928    932   933   934
H 851.74292189 -41.21219291 58.84637355     6     931    0    0    0
H 850.09404555 -43.95929650 58.35660550     6     931    0    0    0
C 853.24223276 -44.48730112 60.74710947     2     931   935   936   937
H 853.38775727 -46.61204783 60.39984585     6    934    0    0    0
H 855.17412530 -43.87609701 61.06903877     6    934    0    0    0
C 851.99355006 -43.87951460 63.25783762     2    934   938   939   940
H 852.02279008 -41.83876555 63.41324696     6    937    0    0    0
H 850.01404087 -44.35492518 63.21956382     6    937    0    0    0
C 853.11456680 -45.17227601 65.60216468     2    937   941   942   943
H 852.84207969 -47.20188563 65.47506031     6    940    0    0    0
H 855.19590151 -45.10246432 65.65864922     6    940    0    0    0
C 851.73941396 -44.51167593 68.09168360     2    940   944   945   946
H 849.74666042 -45.17626696 68.06624846     6    943    0    0    0
H 852.62904922 -45.42999119 69.70619663     6    943    0    0    0
C 851.74782778 -41.72060884 68.78857464     2    943   947   948   949
H 853.71595106 -40.81364406 68.86957939     6    946    0    0    0
H 851.10236883 -40.62697467 67.15795030     6    946    0    0    0
C 850.31016626 -41.46375898 71.24227790     2    946   950   951   952
H 848.48819128 -42.35018605 70.92351323     6    949    0    0    0
H 851.18262404 -42.79134497 72.58118993     6    949    0    0    0
C 850.04400385 -38.69429360 72.15087689     2    949   953   954   955
H 851.76035178 -38.06663775 73.00089172     6    952    0    0    0
H 849.73996704 -37.29593503 70.73115621     6    952    0    0    0
C 847.68882167 -38.52234323 73.95951150     2    952   956   957   958
H 848.03865886 -36.50318359 74.40082477     6    955    0    0    0
H 845.81107882 -38.67086115 72.90379265     6    955    0    0    0
C 847.86894725 -40.14703622 76.41813196     1    955   959   960   961
H 846.13680936 -39.98624537 77.57433596     6    958    0    0    0
H 849.62118921 -39.49583658 77.55949526     6    958    0    0    0
H 848.17944795 -42.13334335 75.95726322     6    958    0    0    0
H 839.72184351 -79.23322135 63.65980947     6     963    0    0    0 
C 839.07583407 -77.44911982 62.87385144     1     962    964    965    966
H 837.05886813 -77.66148573 62.93375561     6     963    0    0    0
H 839.68767222 -75.76360942 63.93452141     6     963    0    0    0
C 840.01563534 -77.26115561 60.14631567     2     963    967    968    969
H 840.38347480 -75.35779936 59.60492500     6     966    0    0    0
H 841.86875158 -77.95118257 60.37359172     6     966    0    0    0
C 838.57110323 -78.56914217 58.01554324     2     966    970   971   972
H 838.54502526 -80.70244999 58.05450278     6     969    0    0    0
H 836.63196499 -78.00487931 58.35684386     6     969    0    0    0
C 839.46669642 -77.73204813 55.39663922     2     969   973   974   975
H 839.86858570 -75.73476954 55.35854294     6    972    0    0    0
H 841.26912620 -78.58647611 55.05861422     6    972    0    0    0
C 837.53486713 -78.27935984 53.42829208     2    972   976   977   978
H 837.18106621 -80.31117535 53.06668531     6    975    0    0    0
H 835.78846295 -77.32980811 54.09796856     6    975    0    0    0
C 838.37138532 -77.53730234 50.71262236     2    975   979   980   981
H 838.42355089 -75.45515037 50.63985319     6    978    0    0    0
H 840.31054994 -78.01043522 50.39656542     6    978    0    0    0
C 836.70310194 -78.61404833 48.63124775     2    978   982   983   984
H 836.38080418 -80.68489193 49.05110523     6    981    0    0    0
H 834.74570344 -77.94473144 49.07179378     6    981    0    0    0
C 837.58764664 -77.98257352 45.89072225     2    981   985   986   987
H 838.71253471 -76.24670750 45.90058153     6    984    0    0    0
H 838.82916590 -79.49564453 45.37349065     6    984    0    0    0
C 835.54550286 -77.94998116 43.90070754     2    984   988   989   990
H 836.50804322 -77.81976722 42.05419384     6    987    0    0    0
H 834.21257495 -79.61404814 44.01101052     6    987    0    0    0
C 833.90251500 -75.57994581 44.31973145     2    987   991   992   993
H 832.97942640 -75.62224006 46.05319423     6    990    0    0    0
H 834.86904606 -73.79827146 43.98296206     6    990    0    0    0
C 831.79688831 -75.68891421 42.45171529     2    990   994   995   996
H 832.51885166 -76.18609015 40.63573311     6    993    0    0    0
H 830.47485486 -77.03199934 42.94002777     6    993    0    0    0
C 830.36850840 -73.18128905 42.25424421     1    993   997   998   999
H 829.72885451 -72.26481978 44.12990634     6    996    0    0    0
H 828.73006861 -73.51533386 41.07799429     6    996    0    0    0
H 831.39530636 -71.85152940 41.20111143     6    996    0    0    0
H 850.63113684 -89.59591346 69.42612509     6     1001    0    0    0 
C 849.76892156 -90.90931732 70.65787867     1     1000    1002    1003    1004
H 849.83913900 -92.78961013 69.60842976     6     1001    0    0    0
H 850.55555904 -91.30668122 72.53650572     6     1001    0    0    0
C 846.98184295 -90.10233840 70.84153920     2     1001    1005    1006    1007
H 845.79448280 -91.05521315 72.10993525     6     1004    0    0    0
H 846.68413766 -88.22050509 71.60817866     6     1004    0    0    0
C 845.83544158 -89.86917684 68.22055437     2     1004    1008   1009   1010
H 846.97175330 -88.69576710 67.10678007     6     1007    0    0    0
H 846.24809444 -91.59451348 67.23830224     6     1007    0    0    0
C 843.02311109 -89.03418079 67.92533185     2     1007   1011   1012   1013
H 841.83664928 -90.32912088 68.97583789     6    1010    0    0    0
H 842.87584878 -87.31542578 68.93132913     6    1010    0    0    0
C 842.36174750 -88.53092793 65.24003281     2    1010   1014   1015   1016
H 843.98175353 -87.65849176 64.33728444     6    1013    0    0    0
H 842.00606471 -90.28166281 64.15201377     6    1013    0    0    0
C 839.92216428 -86.81608817 64.96073597     2    1013   1017   1018   1019
H 840.35042107 -85.02188849 65.87536534     6    1016    0    0    0
H 840.27286844 -86.44018763 62.92149872     6    1016    0    0    0
C 837.47582307 -87.91254485 65.94191115     2    1016   1020   1021   1022
H 837.27430170 -89.99160646 65.66247574     6    1019    0    0    0
H 837.23246268 -87.62348727 67.89758502     6    1019    0    0    0
C 835.06604375 -86.82003488 64.60116432     2    1019   1023   1024   1025
H 834.76566461 -87.51115158 62.68148004     6    1022    0    0    0
H 833.44860450 -87.51646395 65.65217623     6    1022    0    0    0
C 835.06945043 -83.91530395 64.23394997     2    1022   1026   1027   1028
H 835.02054995 -83.08855083 66.13739539     6    1025    0    0    0
H 836.76682149 -83.45399685 63.26063131     6    1025    0    0    0
C 832.82303678 -82.82672391 62.84182401     2    1025   1029   1030   1031
H 830.97189403 -83.62002589 63.16382501     6    1028    0    0    0
H 832.69697895 -80.81869586 63.55172630     6    1028    0    0    0
C 833.08197237 -82.89872931 59.87566379     2    1028   1032   1033   1034
H 833.60569817 -81.03640100 59.26364624     6    1031    0    0    0
H 834.71683443 -83.96726032 59.33129228     6    1031    0    0    0
C 830.66255700 -83.51862056 58.50622701     1    1031   1035   1036   1037
H 830.78746265 -82.85021391 56.56112409     6    1034    0    0    0
H 829.02211763 -82.43200738 59.29750453     6    1034    0    0    0
H 830.14559960 -85.48565299 58.60472110     6    1034    0    0    0
H 859.19402823 -65.86783131 49.39717580     6     1039    0    0    0 
C 860.50645127 -67.21612237 48.59665903     1     1038    1040    1041    1042
H 859.44918136 -69.04919360 48.29969640     6     1039    0    0    0
H 861.45125482 -66.72861805 46.81591834     6     1039    0    0    0
C 862.37133485 -67.72147965 50.75639229     2     1039    1043    1044    1045
H 861.35054530 -68.74084874 52.35539155     6     1042    0    0    0
H 863.76831175 -69.13476604 50.33739681     6     1042    0    0    0
C 863.51674924 -65.20280860 51.82625287     2     1042    1046   1047   1048
H 863.84687015 -63.90375182 50.44233864     6     1045    0    0    0
H 862.08656714 -64.11121323 52.89250649     6     1045    0    0    0
C 865.65369895 -65.53095524 53.67571432     2     1045   1049   1050   1051
H 864.87811220 -66.15501747 55.40957753     6    1048    0    0    0
H 866.77584946 -67.16656476 53.28090066     6    1048    0    0    0
C 867.25322479 -63.13924707 54.16208425     2    1048   1052   1053   1054
H 868.75948275 -63.25548550 52.71980068     6    1051    0    0    0
H 866.19516855 -61.46461504 54.22906536     6    1051    0    0    0
C 868.49724405 -63.34928821 56.70323877     2    1051   1055   1056   1057
H 867.03445044 -63.44398275 58.11870617     6    1054    0    0    0
H 869.60640872 -65.11436493 56.79623711     6    1054    0    0    0
C 870.07275980 -61.10469722 57.77922312     2    1054   1058   1059   1060
H 868.90839193 -59.30312773 58.03735010     6    1057    0    0    0
H 870.48234428 -61.79028573 59.68462628     6    1057    0    0    0
C 872.59662412 -60.69170410 56.15750836     2    1057   1061   1062   1063
H 873.96772726 -62.22110264 56.19685987     6    1060    0    0    0
H 872.04009659 -60.25015452 54.22337274     6    1060    0    0    0
C 873.84729498 -58.27225873 56.87483366     2    1060   1064   1065   1066
H 875.41513483 -57.90133898 55.66790784     6    1063    0    0    0
H 872.67651817 -56.60894296 56.77501493     6    1063    0    0    0
C 874.81935907 -58.30303451 59.68156723     2    1063   1067   1068   1069
H 873.26555487 -58.65516910 60.91610690     6    1066    0    0    0
H 876.28430075 -59.81165249 59.89781709     6    1066    0    0    0
C 876.00898685 -55.89052847 60.44066644     2    1066   1070   1071   1072
H 878.03228823 -55.92221683 59.92170254     6    1069    0    0    0
[...]
 1803      H     861.1709499900   -45.9372447700    41.8960706900
 1804      H     858.3370963500   -46.0784696500    40.0557046800
 1805      C     859.0845467700   -49.3069315200    42.4569647400
 1806      H     857.8911091400   -50.6789427100    41.3461572200
 1807      H     860.8233505900   -50.1811429800    43.0880077600
 1808      C     857.5520807900   -48.4545520200    44.6842237100
 1809      H     858.5623258300   -47.2428592900    46.0090085100
 1810      H     855.8153454500   -47.3891735400    44.0477008900
 1811      C     856.5426029600   -50.6533977100    46.2095022900
 1812      H     855.3958037200   -51.9882858500    45.2399871600
 1813      H     858.1483265300   -51.7284703000    46.7338159700
 1814      C     855.1079837900   -50.1104217600    48.6427858300
 1815      H     856.1481565300   -48.6365963000    49.7399631800
 1816      H     853.3775253700   -49.2106271800    47.8965755400
 1817      C     854.3459397900   -52.4445426800    50.3196825600
 1818      H     853.2134113600   -53.8215244800    49.3345948700
 1819      H     856.1598805800   -53.4054554600    50.8440992400
 1820      C     852.5275023700   -51.4984734900    52.3888355500
 1821      H     853.5953562200   -50.0452757600    53.4102041700
 1822      H     850.9046696700   -50.7700749300    51.5923775100
 1823      C     851.9911031300   -53.7379526200    54.0957214000
 1824      H     850.4264092100   -54.9702404100    53.1990942800
 1825      H     853.5736809400   -55.0634545500    54.0038708000
 1826      C     851.3098477400   -52.9933289700    56.8432917300
 1827      H     853.2129894700   -52.4491951100    57.7515580900
 1828      H     850.1399700500   -51.2610597500    57.1346953400
 1829      C     849.9449994800   -54.9730635700    58.2527572100
 1830      H     847.9308084300   -54.7183302700    57.6471950200
 1831      H     850.7321348200   -56.9730455500    57.8727909200
 1832      C     849.9887974400   -54.4855120500    61.1605763200
 1833      H     848.8766873500   -52.7536380900    61.7649273500
 1834      H     851.9274804800   -54.3574957900    61.9724246100
 1835      H     849.0349248100   -56.0310494000    62.0876480700
 1836      H     844.6795257900   -56.0846507800    54.3396425800
 1837      C     842.8741953500   -54.8638192400    54.9257683100
 1838      H     841.1685375700   -55.3844183700    53.9795069100
 1839      H     842.5795074200   -55.2151877100    56.9454928300
 1840      C     843.3049543200   -51.8877278100    54.6649548800
 1841      H     841.4565955300   -51.0208466200    54.9817211300
 1842      H     844.2588332000   -51.2849899700    56.2482845400
 1843      C     844.5244737700   -51.2098196900    52.0344503100
 1844      H     846.3504332000   -52.0829565900    51.7615369600
 1845      H     843.4833870200   -52.1040771800    50.4573192400
 1846      C     844.8149360500   -48.4561107600    51.3464837600
 1847      H     843.2076827600   -47.5013173500    52.2281838800
 1848      H     846.4538795700   -47.7840946600    52.2629699200
 1849      C     844.7033335300   -47.9430342100    48.4677084200
 1850      H     846.2113596800   -49.0303656200    47.4615173000
 1851      H     842.9011506600   -48.7027372700    47.6309464400
 1852      C     844.6031422800   -45.1411653500    47.7830086600
 1853      H     842.7678441200   -44.4048710500    48.4372408300
 1854      H     846.0511568500   -43.9209361300    48.7467024100
 1855      C     844.8345592900   -44.8183792300    44.7914449300
 1856      H     846.9029736400   -44.9917270600    44.3506674100
 1857      H     843.8352430300   -46.2982088900    43.8784227600
 1858      C     844.1201716600   -42.0739202800    43.8377214500
 1859      H     842.4213512400   -41.4791998300    44.7869897000
 1860      H     845.6631942700   -40.8941867100    44.5110879800
 1861      C     843.5364567200   -41.8660489200    41.0889383600
 1862      H     841.8743167800   -43.1232200100    40.8938938900
 1863      H     842.7789486300   -40.0227204400    40.7754407200
 1864      C     845.6364731600   -42.5770347900    39.1642451500
 1865      H     846.9132248400   -41.0274952700    38.7424254200
 1866      H     846.7504247200   -44.1087779000    39.9221649500
 1867      C     844.5255308600   -43.3941265800    36.7302627900
 1868      H     843.0465150000   -44.6925716600    36.9468938200
 1869      H     843.7651539100   -41.7340680400    35.8688949400
 1870      C     846.6348283300   -44.4244268400    34.9352570600
 1871      H     845.7814171100   -45.4414031100    33.4022559400
 1872      H     847.6659898800   -45.9517826900    35.8631816200
 1873      H     847.8346714100   -43.0049207100    34.2986594300
 1874      H     836.3693894500   -66.7794215300    33.2258838400
 1875      C     836.8280303900   -68.7392272200    33.6089775700
 1876      H     835.1119949900   -69.9044571900    33.3171121900
 1877      H     838.1220195000   -69.3966176900    32.1991498000
 1878      C     837.9622999600   -68.8691248100    36.1871591400
 1879      H     839.6517667100   -67.8386546700    36.3990490700
 1880      H     836.4556307100   -67.9465242100    37.1962299800
 1881      C     838.3749709900   -71.6762733700    37.2781990400
 1882      H     836.5084357300   -72.7701795400    37.0845570100
 1883      H     839.8544758700   -72.7748588000    36.4649115100
 1884      C     838.5158343800   -71.5990515300    40.1674894200
 1885      H     837.7854429800   -69.8208215600    40.9705132200
 1886      H     837.3033817000   -73.0499168000    41.0980699600
 1887      C     841.3693234900   -71.6560976500    40.9512548400
 1888      H     841.9348810500   -73.5217435100    40.2096066200
 1889      H     842.5317992100   -70.1686125100    39.9278590500
 1890      C     841.8233206100   -71.5001480100    43.8248755200
 1891      H     841.9756022900   -69.6090352900    44.5461425900
 1892      H     840.2602517200   -72.5037841000    44.6901550600
 1893      C     844.2511540700   -72.7142099900    44.7660089700
 1894      H     844.4674806700   -74.4924582000    43.6619023400
 1895      H     845.8269176400   -71.5757252900    44.2099463000
 1896      C     844.3523615800   -73.1430096600    47.6997859600
 1897      H     844.6975808200   -71.2994032400    48.6048534800
 1898      H     842.4444554600   -73.8041326700    48.3594164200
 1899      C     846.3280778100   -75.2227265600    48.3226507500
 1900      H     845.7483627600   -76.9606439500    47.2718794300
 1901      H     848.0700564400   -74.6360197100    47.5077970900
 1902      C     846.5046063700   -75.9673795900    51.0216445500
 1903      H     846.8131366200   -74.3738127500    52.1986721500
 1904      H     844.5981391500   -76.6255791600    51.5396368600
 1905      C     848.6482916200   -77.8565416200    51.5934975200
 1906      H     848.6668847900   -79.5831256300    50.3192473300
 1907      H     850.6178660500   -77.0706296100    51.2318051200
 1908      C     848.3939793600   -78.7804122600    54.3021542000
 1909      H     846.5924051500   -79.6447131900    54.7013326700
 1910      H     848.5873665800   -77.3038887100    55.7662723500
 1911      H     849.7924654100   -80.2430848700    54.7074038000
 ----------------------------------------------------------------
 Nuclear Repulsion Energy =           0.00000000 hartrees
 There are     2498 alpha and     2498 beta electrons

 Total QAlloc Memory Limit   2000 MB
 Mega-Array Size       204 MB
 MEM_STATIC part       192 MB
   **** Step 1: MM calculation on the entire system **** 
 OPLSAA force field loaded.
Reading user-defined FF parameters...
 Reading user defined atom types.
 Found 3 user defined AtomTypes
finished.
Determining angles, torsions, etc. from user defined input
Determining VDW/Coulomb pairs... (useList = 0)

 Time req'd to get MM system information: 0.2 s (CPU) 0.5 s (wall)

 ------ MM Energies ------
   Ebond:           534.805715151327
   Eangle:          882.019568131512
   EUreyBrad:         0.000000000000
   Eimptors:          0.000000000000
   Etorsion:        236.399327810285
   Evdw:        1143157.206017337507
   Ecoulomb:        182.800298140802
   Etot:        1144993.230926571414 Kcal/mol (   1824.662867800080 hartree)
 -------------------------
 Time req'd to calc MM energy: 0.1 s (CPU) 0.1 s (wall)
 OPLSAA force field loaded.
Reading user-defined FF parameters...
 Reading user defined atom types.
 Found 3 user defined AtomTypes
finished.
 Time req'd to get MM system information: 0.0 s (CPU) 0.0 s (wall)
 Time req'd to calc MM gradient: 0.2 s (CPU) 0.2 s (wall)
   **** Step 2: MM calculation on the model system **** 
 Reading user defined atom types.
 Found 3 user defined AtomTypes
 ----------------------------------------------------------------
             Standard Nuclear Orientation (Bohr)
    I     Atom           X                Y                Z
 ----------------------------------------------------------------
    1      Fe    841.9661700400   -63.9280076100    50.9330296500
    2      C     842.2601507100   -67.1208193500    51.9175804200
    3      C     841.6863052500   -60.7599402500    49.6089027700
    4      C     838.5946501000   -63.8496962100    50.9918162500
    5      C     843.3768353100   -62.8506713100    53.8645053800
    6      C     844.0012937400   -65.0442161300    48.2909921300
    7      O     842.3277973500   -69.1823582300    52.4260274300
    8      O     841.6462458300   -58.7150873100    48.7688728000
    9      O     836.3452063900   -64.0518524200    51.1260749400
   10      O     844.0537826500   -62.1489448800    55.8497198300
   11      O     845.1710869200   -65.8852725200    46.6243860700
 ----------------------------------------------------------------
 Nuclear Repulsion Energy =         798.92933670 hartrees
 There are       48 alpha and       48 beta electrons
 OPLSAA force field loaded.
Reading user-defined FF parameters...
 Reading user defined atom types.
 Found 3 user defined AtomTypes
finished.
Determining VDW/Coulomb pairs... (useList = 0)

 No MM bonds in system. Return all possible pairs.
 Time req'd to get MM system information: 0.0 s (CPU) 0.0 s (wall)

 ------ MM Energies ------
   Ebond:             0.000000000000
   Eangle:            0.000000000000
   EUreyBrad:         0.000000000000
   Eimptors:          0.000000000000
   Etorsion:          0.000000000000
   Evdw:        1143582.921743746381
   Ecoulomb:         -6.490923559956
   Etot:        1143576.430820186390 Kcal/mol (   1822.405053102675 hartree)
 -------------------------
 Eold: 1824.6628678 mm_energy: 1822.4050531 Enew:    2.2578147
 Time req'd to calc MM energy: 0.0 s (CPU) 0.0 s (wall)
 OPLSAA force field loaded.
Reading user-defined FF parameters...
 Reading user defined atom types.
 Found 3 user defined AtomTypes
finished.
Determining VDW/Coulomb pairs... (useList = 0)

 No MM bonds in system. Return all possible pairs.
 Time req'd to get MM system information: 0.0 s (CPU) 0.0 s (wall)
 Number of fixed atoms: 0
 Time req'd to calc MM gradient: 0.0 s (CPU) 0.0 s (wall)
   **** Step 3: QM calculation on the model system **** 
 Requested basis set is def2-mSVP
 There are 80 shells and 174 basis functions

                       Distance Matrix (Bohrs)
             Fe(  1)   C (  2)   C (  3)   C (  4)   C (  5)   C (  6)
   C (  2)  3.354074
   C (  3)  3.445038  6.791176
   C (  4)  3.372942  4.999318  4.584471
   C (  5)  3.426978  4.824071  5.033806  5.667423
   C (  6)  3.516818  4.527251  5.044906  6.160611  6.022096
   O (  7)  5.474305  2.124391  8.904203  6.665631  6.577230  6.084680
   O (  8)  5.653359  8.997087  2.211036  6.373219  6.787007  6.769970
   O (  9)  5.625641  6.710559  6.454908  2.262496  7.641050  8.224242
   O ( 10)  5.630012  6.587744  6.817777  7.502927  2.211731  8.094425
   O ( 11)  5.715487  6.165876  6.878959  8.152763  8.052793  2.203036
             O (  7)   O (  8)   O (  9)   O ( 10)
   O (  8) 11.108693
   O (  9)  7.987701  7.882797
   O ( 10)  8.010593  8.229581  9.238833
   O ( 11)  7.253559  8.272538 10.075852 10.015752

 A cutoff of  1.0D-11 yielded   2488 shell pairs
 There are     12780 function pairs (     14611 Cartesian)
 Smallest overlap matrix eigenvalue = 2.52E-03
 Guess MOs from SCF MO coefficient file
 Reading MOs from coefficient file
 Reading MOs from coefficient file
 A restricted Kohn-Sham SCF calculation will be
 performed using Pulay DIIS extrapolation
 Exchange:  B88      Correlation:  P86
 Using SG-1 standard quadrature grid
 SCF converges when DIIS error is below 1.0E-08
 Using Q-Chem read-in guess as SCF_GUESS READ specified.

 using 2 threads for integral computing
 -------------------------------------------------------
 OpenMP Integral computing Module                
 Release: version 1.0, May 2013, Q-Chem Inc. Pittsburgh 
 -------------------------------------------------------
 ---------------------------------------
  Cycle       Energy         DIIS Error
 ---------------------------------------
    1   -1830.5187597137      1.76E-09
    2   -1830.5187597137      1.50E-08
    3   -1830.5187597135      3.64E-09 Convergence criterion met
 ---------------------------------------
 SCF time:  CPU 3.92 s  wall 2.10 s
 E(QM + QM/MM):    -1830.5187597135 E(MM):    2.2578147 E(Tot): -1828.260945016126 
 SCF   energy in the final basis set = -1828.26094502
 Total energy in the final basis set = -1828.26094502

 --------------------------------------------------------------

                    Orbital Energies (a.u.)
 --------------------------------------------------------------

 Alpha MOs
 -- Occupied --
******** -29.6354 -25.5952 -25.5822 -25.5789 -18.8889 -18.8884 -18.8838
-18.8753 -18.8666 -10.0585 -10.0503 -10.0501 -10.0423 -10.0405  -3.3198
 -2.1563  -2.1299  -2.1232  -1.0846  -1.0576  -1.0544  -1.0441  -1.0221
 -0.5752  -0.5308  -0.5203  -0.5154  -0.5123  -0.4614  -0.4528  -0.4474
 -0.4353  -0.4326  -0.4313  -0.4211  -0.4200  -0.4118  -0.4109  -0.4030
 -0.4008  -0.3977  -0.3933  -0.3741  -0.2768  -0.2726  -0.2330  -0.2221
 -- Virtual --
 -0.0955  -0.0915  -0.0866  -0.0806  -0.0720  -0.0688  -0.0680  -0.0606
 -0.0523  -0.0308  -0.0212   0.0098   0.1860   0.2157   0.2222   0.2538
  0.2968   0.3169   0.3557   0.3989   0.4014   0.4238   0.4302   0.4403
  0.4496   0.4749   0.4975   0.4999   0.5260   0.5605   0.5648   0.5867
  0.6015   0.6091   0.6329   0.6711   0.7366   0.7525   0.7601   0.7632
  0.7875   0.8287   0.8363   0.8736   0.8828   0.8943   0.9475   0.9519
  0.9711   0.9843   0.9911   1.0005   1.0170   1.0210   1.0284   1.0600
  1.2291   1.2495   1.2654   1.3242   1.3980   1.4015   1.4099   1.4121
  1.4163   1.4231   1.4299   1.4348   1.4423   1.4615   1.4757   1.4905
  1.5068   1.5219   1.5512   1.5779   1.6065   1.6347   1.6535   1.6840
  1.6934   1.8201   1.8315   1.8334   1.8392   1.8457   1.8495   1.8530
  1.8585   1.8637   1.8692   1.8764   1.8904   1.9043   1.9191   1.9484
  2.3823   2.4058   2.4160   2.4508   2.4551   2.4698   2.4819   2.4885
  2.5054   2.5142   2.6274   2.6364   2.6641   2.6755   2.6893   2.8135
  2.8311   2.8896   2.9063   2.9856  13.2699  13.2893  13.3231  13.3500
 13.4532  24.9241  24.9316  24.9522  24.9566  25.0316
 --------------------------------------------------------------

          Ground-State Mulliken Net Atomic Charges

     Atom                 Charge (a.u.)
  ----------------------------------------
      1 Fe                   -0.468511
      2 C                     0.169584
      3 C                     0.209459
      4 C                     0.217241
      5 C                     0.230951
      6 C                     0.208201
      7 O                    -0.075137
      8 O                    -0.111349
      9 O                    -0.150829
     10 O                    -0.120960
     11 O                    -0.108649
  ----------------------------------------
  Sum of atomic charges =     0.000000

 -----------------------------------------------------------------
                    Cartesian Multipole Moments
 -----------------------------------------------------------------
    Charge (ESU x 10^10)
                -0.0000
    Dipole Moment (Debye)
         X       0.5709545855      Y      -0.1126507656      Z      -0.1362560678
       Tot       0.5976997990
    Quadrupole Moments (Debye-Ang)
        XX     438.1485     XY     -69.8974     YY     -60.9603
        XZ     -45.1534     YZ       0.7152     ZZ     -77.0751
    Octopole Moments (Debye-Ang^2)
       XXX  245637.7351    XXY  -37531.4524    XYY  -26481.6229
       YYY    6574.6460    XXZ  -15090.6595    XYZ    -221.1478
       YYZ   -1739.7088    XZZ  -33923.1382    YZZ    2478.1112
       ZZZ   -5939.4969
    Hexadecapole Moments (Debye-Ang^3)
      XXXX ************   XXXY ************   XXYY ************
      XYYY 2905987.6023   YYYY -454459.3611   XXXZ ************
      XXYZ -274607.3801   XYYZ -756418.0280   YYYZ  179443.5472
      XXZZ ************   XYZZ 1089558.3726   YYZZ -129461.6240
      XZZZ ************   YZZZ  196751.5236   ZZZZ -315744.7031
 -----------------------------------------------------------------
 Calculating MO derivatives via CPSCF
 Full subspace dimension requested for CIS/TDDFT
 MAX_CIS_SUBSPACE fits in available memory
    1     0    36    0.0398102  
    2     0    36    0.0067890  
    3     0    36    0.0007376  
    4     1    35    0.0000483  
    5    35     1    0.0000012  
    6    36     0    0.0000000  Converged
 Time for AOints: 6.4 s (CPU) 3.3 s (wall)
 ------------------------------------------------------------------------------
                     AOints        : Timing summary (seconds)
 ------------------------------------------------------------------------------
     job step          cpu (% of tot)      sys (% of tot)     wall (% of tot)
 ------------------------------------------------------------------------------
  AOints            0.6437E+01 ( 3.5)   0.8000E-05 ( 6.5)   0.3279E+01 ( 3.6)
 ------------------------------------------------------------------------------
   Grand Totals     0.1815E+03          0.1230E-03          0.9144E+02
 ------------------------------------------------------------------------------
 Polarizability Matrix (a.u.)
            1           2           3
    1 -87.8228953   5.5585446   3.3082955
    2   5.5585446 -98.0708819   1.1719433
    3   3.3082955   1.1719433 -89.2877006
 Derivative of Dipole Moment Matrix (a.u.)
            1           2           3
    1  -1.8677243  -0.0189955   0.0377069
    2  -0.0326644  -1.8918195  -0.0050091
    3   0.0422400   0.0185294  -1.8949610
    4   0.4540283  -0.0970057   0.0548944
    5  -0.0679092   2.1529448  -0.5151318
    6   0.0357133  -0.4638030   0.5687910
    7   0.4270390  -0.0879569   0.0524201
    8  -0.0438768   1.9751348  -0.6399859
    9   0.0311930  -0.6364650   0.7057728
   10   2.3266897   0.1093386  -0.0667361
   11   0.1192700   0.3695024   0.0094323
   12  -0.1475728   0.0004495   0.4113149
   13   0.6838421   0.2050134   0.5136477
   14   0.2325809   0.6056286   0.5425407
   15   0.6911263   0.5851721   1.9553392
   16   1.0103388  -0.3500088  -0.8304339
   17  -0.4186036   0.5822436   0.5928403
   18  -0.8224985   0.5019553   1.5587516
   19  -0.1510667   0.0751224  -0.0303164
   20   0.1046107  -1.5483440   0.4192867
   21  -0.0317047   0.3428229  -0.2463730
   22  -0.1552616   0.0506114  -0.0245711
   23   0.0712741  -1.4138035   0.5222992
   24  -0.0337019   0.5237261  -0.3744856
   25  -1.7057641  -0.0265272   0.0412974
   26  -0.1305247  -0.1673503  -0.0078325
   27   0.1105908  -0.0066607  -0.1929681
   28  -0.3674202  -0.1446131  -0.3917746
   29  -0.1909136  -0.3174660  -0.4325174
   30  -0.5573479  -0.4525198  -1.4123275
   31  -0.6547010   0.2850215   0.6438656
   32   0.3567566  -0.3466710  -0.4859225
   33   0.6819623  -0.4132067  -1.0788545
 -----------------------------------------
 Net:  -0.00000  -0.00000  -0.00000
 -----------------------------------------

 Calculating analytic Hessian of the SCF energy
