                  Welcome to Q-Chem
     A Quantum Leap Into The Future Of Chemistry


 Q-Chem 5.4 (devel), Q-Chem, Inc., Pleasanton, CA (2021)

 E. Epifanovsky,  A. T. B. Gilbert,  Xintian Feng,  Joonho Lee,  Yuezhi Mao,  
 N. Mardirossian,  P. Pokhilko,  A. White,  M. Wormit,  M. P. Coons,  
 A. L. Dempwolff,  Zhengting Gan,  D. Hait,  P. R. Horn,  L. D. Jacobson,  
 I. Kaliman,  J. Kussmann,  A. W. Lange,  Ka Un Lao,  D. S. Levine,  Jie Liu,  
 S. C. McKenzie,  A. F. Morrison,  K. Nanda,  F. Plasser,  D. R. Rehn,  
 M. L. Vidal,  Zhi-Qiang You,  Ying Zhu,  B. Alam,  B. Albrecht,  
 A. Aldossary,  E. Alguire,  J. H. Andersen,  D. Barton,  K. Begam,  A. Behn,  
 Y. A. Bernard,  E. J. Berquist,  H. Burton,  A. Carreras,  K. Carter-Fenk,  
 R. Chakraborty,  A. D. Chien,  K. D. Closser,  V. Cofer-Shabica,  
 S. Dasgupta,  Jia Deng,  M. de Wergifosse,  M. Diedenhofen,  Hainam Do,  
 S. Ehlert,  Po-Tung Fang,  S. Fatehi,  Qingguo Feng,  T. Friedhoff,  
 J. Gayvert,  Qinghui Ge,  G. Gidofalvi,  M. Goldey,  J. Gomes,  
 C. Gonzalez-Espinoza,  S. Gulania,  A. Gunina,  M. W. D. Hanson-Heine,  
 P. H. P. Harbach,  A. W. Hauser,  M. F. Herbst,  M. Hernandez Vera,  
 M. Hodecker,  Z. C. Holden,  S. Houck,  Xunkun Huang,  Kerwin Hui,  
 B. C. Huynh,  M. Ivanov,  Hyunjun Ji,  Hanjie Jiang,  B. Kaduk,  S. Kaehler,  
 K. Khistyaev,  Jaehoon Kim,  P. Klunzinger,  Z. Koczor-Benda,  
 Joong Hoon Koh,  D. Kosenkov,  L. Koulias,  T. Kowalczyk,  C. M. Krauter,  
 K. Kue,  A. Kunitsa,  T. Kus,  A. Landau,  K. V. Lawler,  D. Lefrancois,  
 S. Lehtola,  Rain Li,  Yi-Pei Li,  Jiashu Liang,  M. Liebenthal,  
 Hung-Hsuan Lin,  You-Sheng Lin,  Fenglai Liu,  Kuan-Yu Liu,  
 M. Loipersberger,  A. Luenser,  A. Manjanath,  P. Manohar,  E. Mansoor,  
 S. F. Manzer,  Shan-Ping Mao,  A. V. Marenich,  T. Markovich,  S. Mason,  
 S. A. Maurer,  P. F. McLaughlin,  M. F. S. J. Menger,  J.-M. Mewes,  
 S. A. Mewes,  P. Morgante,  J. W. Mullinax,  K. J. Oosterbaan,  G. Paran,  
 Alexander C. Paul,  Suranjan K. Paul,  F. Pavosevic,  Zheng Pei,  S. Prager,  
 E. I. Proynov,  E. Ramos,  B. Rana,  A. E. Rask,  A. Rettig,  R. M. Richard,  
 F. Rob,  E. Rossomme,  T. Scheele,  M. Scheurer,  M. Schneider,  
 N. Sergueev,  S. M. Sharada,  W. Skomorowski,  D. W. Small,  C. J. Stein,  
 Yu-Chuan Su,  E. J. Sundstrom,  Zhen Tao,  J. Thirman,  T. Tsuchimochi,  
 N. M. Tubman,  S. P. Veccham,  O. Vydrov,  J. Wenzel,  J. Witte,  A. Yamada,  
 Kun Yao,  S. Yeganeh,  S. R. Yost,  A. Zech,  Igor Ying Zhang,  Xing Zhang,  
 Yu Zhang,  D. Zuev,  A. Aspuru-Guzik,  A. T. Bell,  N. A. Besley,  
 K. B. Bravaya,  B. R. Brooks,  D. Casanova,  Jeng-Da Chai,  S. Coriani,  
 C. J. Cramer,  A. E. DePrince, III,  R. A. DiStasio Jr.,  A. Dreuw,  
 B. D. Dunietz,  T. R. Furlani,  W. A. Goddard III,  S. Grimme,  
 S. Hammes-Schiffer,  T. Head-Gordon,  W. J. Hehre,  Chao-Ping Hsu,  
 T.-C. Jagau,  Yousung Jung,  A. Klamt,  Jing Kong,  D. S. Lambrecht,  
 WanZhen Liang,  N. J. Mayhall,  C. W. McCurdy,  J. B. Neaton,  
 C. Ochsenfeld,  J. A. Parkhill,  R. Peverati,  V. A. Rassolov,  Yihan Shao,  
 L. V. Slipchenko,  T. Stauch,  R. P. Steele,  J. E. Subotnik,  
 A. J. W. Thom,  A. Tkatchenko,  D. G. Truhlar,  T. Van Voorhis,  
 T. A. Wesolowski,  K. B. Whaley,  H. L. Woodcock III,  P. M. Zimmerman,  
 S. Faraji,  P. M. W. Gill,  M. Head-Gordon,  J. M. Herbert,  A. I. Krylov

 Additional authors for Version 5.4.1: 
 S. Kotaru,  Shaozhi Li,  Xiangyuan Li,  F. Matz,  A. Molle,  Haisheng Ren,  
 Yingli Su,  Hung-Yi Tsai,  C. Utku,  Fang Wang

 Contributors to earlier versions of Q-Chem not listed above: 
 R. D. Adamson,  B. Austin,  R. Baer,  J. Baker,  G. J. O. Beran,  
 K. Brandhorst,  S. T. Brown,  E. F. C. Byrd,  A. K. Chakraborty,  
 G. K. L. Chan,  Chun-Min Chang,  Yunqing Chen,  C.-L. Cheng,  
 Siu Hung Chien,  D. M. Chipman,  D. L. Crittenden,  H. Dachsel,  
 R. J. Doerksen,  A. D. Dutoi,  R. G. Edgar,  J. Fosso-Tande,  
 L. Fusti-Molnar,  D. Ghosh,  A. Ghysels,  A. Golubeva-Zadorozhnaya,  
 J. Gonthier,  M. S. Gordon,  S. R. Gwaltney,  G. Hawkins,  J. E. Herr,  
 A. Heyden,  S. Hirata,  E. G. Hohenstein,  G. Kedziora,  F. J. Keil,  
 C. Kelley,  Jihan Kim,  R. A. King,  R. Z. Khaliullin,  P. P. Korambath,  
 W. Kurlancheek,  A. Laurent,  A. M. Lee,  M. S. Lee,  S. V. Levchenko,  
 Ching Yeh Lin,  D. Liotard,  E. Livshits,  R. C. Lochan,  I. Lotan,  
 L. A. Martinez-Martinez,  P. E. Maslen,  N. Nair,  D. P. O'Neill,  
 D. Neuhauser,  E. Neuscamman,  C. M. Oana,  R. Olivares-Amaya,  R. Olson,  
 T. M. Perrine,  B. Peters,  P. A. Pieniazek,  A. Prociuk,  Y. M. Rhee,  
 J. Ritchie,  M. A. Rohrdanz,  E. Rosta,  N. J. Russ,  H. F. Schaefer III,  
 M. W. Schmidt,  N. E. Schultz,  S. Sharma,  N. Shenvi,  C. D. Sherrill,  
 A. C. Simmonett,  A. Sodt,  T. Stein,  D. Stuck,  K. S. Thanthiriwatte,  
 V. Vanovschi,  L. Vogt,  Tao Wang,  A. Warshel,  M. A. Watson,  
 C. F. Williams,  Q. Wu,  X. Xu,  Jun Yang,  W. Zhang,  Yan Zhao

 Please cite Q-Chem as follows:
 Y. Shao et al., Mol. Phys. 113, 184-215 (2015)
 DOI: 10.1080/00268976.2014.952696

 Q-Chem 5.4.1 for Intel X86 EM64T Linux

 Parts of Q-Chem use Armadillo 9.900.5 (Nocturnal Misbehaviour).
 http://arma.sourceforge.net/

 Q-Chem begins on Fri Jul  1 20:00:03 2022  

 Host: p09r14n09.grace.hpc.yale.internal
0

     Scratch files written to /home/tl686/scratch60/qchem_dev/scratch/qchem8598//
 Processing $rem in /home/tl686/qchem_dev/qchem/config/preferences:
 Processing $rem in /home/tl686/.qchemrc:
Applying user defined connections for MM calculations

 Checking the input file for inconsistencies... 	...done.

--------------------------------------------------------------
User input:
--------------------------------------------------------------
$molecule
0   1
 Fe -633.34355398 -48.15049195 -27.83257462    -1  0   0   0   0
C -633.64543889 -51.51448771 -27.88717551    -2  0   0   0   0 
C -631.72869820 -45.06854400 -28.05831471    -2  0   0   0   0
C -633.43427142 -48.28943411 -31.26490225    -2  0   0   0   0
C -636.55188280 -47.46088688 -27.16284916    -2  0   0   0   0
C -631.70660424 -48.41555564 -24.85191713    -2  0   0   0   0
O -633.98593085 -53.68139784 -27.81949064    -3  0   0   0   0
O -631.02387162 -43.00093096 -27.74125332    -3  0   0   0   0 
O -633.25623973 -48.37373633 -33.45642661    -3  0   0   0   0
O -638.80278945 -47.39004476 -26.98310943    -3  0   0   0   0 
O -630.29329887 -48.52558461 -23.13857868    -3  0   0   0   0
H -645.32395474 -66.99295204 -47.51324356      6     13    0    0    0 
C -645.76370299 -68.97558201 -47.30310059     1     12    14    15    16
H -646.17109989 -70.17051923 -48.92757977     6     13    0    0    0
H -644.04909362 -69.95195799 -46.47672503     6     13    0    0    0
C -647.80437822 -69.15916046 -45.31707752     2     13    17    18    19
H -649.61939082 -68.31159619 -45.92098324     6     16    0    0    0
H -648.20917407 -71.13316890 -44.60803149     6     16    0    0    0
C -647.01347077 -67.66546706 -42.94155697     2     16    20   21   22
H -645.15805989 -68.08942207 -42.15322575     6     19    0    0    0
H -646.92913511 -65.65416754 -43.55569502     6     19    0    0    0
C -649.04377965 -67.74881250 -40.85016787     2     19   23   24   25
H -650.50682221 -66.51658050 -41.57541406     6    22    0    0    0
H -649.82905296 -69.68170130 -40.52433827     6    22    0    0    0
C -648.18509856 -66.50549894 -38.38046659     2    22   26   27   28
H -646.31700580 -67.39097018 -38.11959122     6    25    0    0    0
H -647.84265279 -64.44681675 -38.61853559     6    25    0    0    0
C -649.83543569 -67.19643940 -36.06558037     2    25   29   30   31
H -651.70417768 -67.37754726 -36.67457398     6    28    0    0    0
H -649.46683006 -69.23286828 -35.55852087     6    28    0    0    0
C -649.58992649 -65.41722028 -33.84298275     2    28   32   33   34
H -647.67034022 -65.47679130 -33.20162429     6    31    0    0    0
H -650.01472339 -63.46173369 -34.38437457     6    31    0    0    0
C -651.57076574 -65.95381897 -31.69608590     2    31   35   36   37
H -653.53166103 -65.60070125 -32.45404291     6    34    0    0    0
H -651.44029039 -68.03259397 -31.36618148     6    34    0    0    0
C -651.29734740 -64.33525327 -29.25430711     2    34   38   39   40
H -649.45932033 -65.01129275 -28.47819483     6    37    0    0    0
H -650.79846963 -62.43780487 -29.70373028     6    37    0    0    0
C -653.47728192 -64.54255195 -27.32754976     2    37   41   42   43
H -655.36185015 -64.35594890 -27.99030845     6    40    0    0    0
H -653.68270707 -66.41649081 -26.70921602     6    40    0    0    0
C -653.17064761 -62.83487163 -25.00779953     2    40   44   45   46
H -651.47992018 -63.34847735 -24.03904516     6    43    0    0    0
H -653.11247849 -60.74061812 -25.42060119     6    43    0    0    0
C -655.55166443 -63.24251089 -23.23801482     1    43   47   48   49
H -657.16816302 -62.35367724 -24.08055784     6    46    0    0    0
H -654.98701911 -62.37096778 -21.46360203     6    46    0    0    0
H -655.82758699 -65.22179226 -22.82305111     6    46    0    0    0
H -638.92651209 -55.35992743 -27.65357761     6     51    0    0    0 
C -640.40413704 -54.52925069 -26.64390391     1     50    52    53    54
H -639.57279427 -53.15993710 -25.46483817     6     51    0    0    0
H -641.60997455 -53.44270310 -27.84517039     6     51    0    0    0
C -641.90625282 -56.53831957 -25.14736432     2     51    55    56    57
H -642.69797436 -58.14618666 -26.25794239     6     54    0    0    0
H -640.64474827 -57.42749995 -23.72428414     6     54    0    0    0
C -644.05265302 -55.20354818 -23.69241006     2     54    58   59   60
H -643.05049541 -53.78241652 -22.61640879     6     57    0    0    0
H -645.19755185 -54.23736102 -24.99479048     6     57    0    0    0
C -645.58948664 -57.26154550 -22.19145246     2     57   61   62   63
H -646.50782355 -58.44697169 -23.55768509     6    60    0    0    0
H -644.41422078 -58.71443478 -21.22527898     6    60    0    0    0
C -647.73521201 -56.39724699 -20.39264416     2    60   64   65   66
H -646.74331071 -55.73095606 -18.68512917     6    63    0    0    0
H -648.57540456 -54.65736871 -21.31720681     6    63    0    0    0
C -649.74102476 -58.37956505 -19.96270894     2    63   67   68   69
H -651.55508603 -57.37729807 -20.02446246     6    66    0    0    0
H -649.80827680 -59.70029831 -21.52379538     6    66    0    0    0
C -649.48284622 -59.55771677 -17.38426516     2    66   70   71   72
H -647.68152493 -60.55719568 -17.26077369     6    69    0    0    0
H -649.89210145 -58.19128351 -15.82333352     6    69    0    0    0
C -651.31183644 -61.71153487 -16.85173078     2    69   73   74   75
H -653.22632655 -60.99606473 -16.89750462     6    72    0    0    0
H -651.20709579 -63.09752030 -18.41428734     6    72    0    0    0
C -650.64677238 -62.88050081 -14.36196386     2    72   76   77   78
H -648.77404077 -63.75453809 -14.60835563     6    75    0    0    0
H -650.49696044 -61.30823008 -12.98273152     6    75    0    0    0
C -652.69756814 -64.69272731 -13.49891873     2    75   79   80   81
H -654.42372654 -63.69063262 -12.95697741     6    78    0    0    0
H -653.15041826 -66.04283391 -15.00936932     6    78    0    0    0
C -651.94833727 -66.28396437 -11.18192041     2    78   82   83   84
H -650.31103598 -67.45582458 -11.49314836     6    81    0    0    0
H -651.51283705 -65.08679865 -9.74542852     6    81    0    0    0
C -654.11452029 -67.89982725 -10.37998635     1    81   85   86   87
H -653.49184269 -69.15448468 -8.93124385     6    84    0    0    0
H -654.64342057 -69.25907631 -11.94036831     6    84    0    0    0
H -655.79225392 -66.87970932 -9.57193938     6    84    0    0    0
H -658.93375946 -44.93136147 -49.24448477     6     89    0    0    0 
C -659.71057860 -46.69978816 -48.47884824     1     88    90    91    92
H -657.92519677 -47.72341706 -48.05923155     6     89    0    0    0
H -660.37191229 -46.35075066 -46.49796447     6     89    0    0    0
C -661.29034283 -48.25296409 -50.32863468     2     89    93    94    95
H -662.89178119 -47.15592889 -50.94569470     6     92    0    0    0
H -660.15552616 -48.62989209 -52.12344037     6     92    0    0    0
C -661.97878592 -50.69377464 -49.15541410     2     92    96   97   98
H -660.24503419 -51.26722501 -48.09960162     6     95    0    0    0
H -663.56358350 -50.54742861 -47.86627630     6     95    0    0    0
C -662.15011561 -52.89639469 -51.06808003     2     95   99   100   101
H -663.04647342 -52.17264622 -52.84360264     6    98    0    0    0
H -660.34512824 -53.70529994 -51.74304080     6    98    0    0    0
C -663.83310144 -55.08706798 -50.29089617     2    98   102   103   104
H -665.47542888 -54.11094687 -49.55097634     6    101    0    0    0
H -664.36807800 -56.16729022 -51.88715864     6    101    0    0    0
C -662.60270472 -56.64929120 -48.06284549     2    101   105   106   107
H -660.93212595 -57.64217771 -48.60731699     6    104    0    0    0
H -662.04847210 -55.29386405 -46.35640897     6    104    0    0    0
C -664.37704257 -58.69976709 -47.26174533     2    104   108   109   110
H -666.24555043 -58.02202000 -46.94177383     6    107    0    0    0
H -664.67011327 -59.96611175 -48.85067134     6    107    0    0    0
C -663.44044572 -60.09819105 -44.89725729     2    107   111   112   113
H -661.47651139 -60.72430762 -45.19292988     6    110    0    0    0
H -663.22673736 -58.70014586 -43.40217710     6    110    0    0    0
C -665.26208829 -62.14349507 -44.07555461     2    110   114   115   116
H -666.92714146 -61.20288187 -43.41370135     6    113    0    0    0
H -665.82092638 -63.12722592 -45.75972678     6    113    0    0    0
C -663.91805355 -63.83636861 -42.13174135     2    113   117   118   119
H -661.99159757 -64.34140276 -42.67653301     6    116    0    0    0
H -663.67495199 -62.85011822 -40.28398172     6    116    0    0    0
C -665.29175466 -66.22351612 -41.25306356     2    116   120   121   122
H -667.15749695 -65.61186452 -40.72539255     6    119    0    0    0
H -665.60269050 -67.48503264 -42.87035282     6    119    0    0    0
C -663.69379466 -67.67268206 -39.24013387     1    119   123   124   125
H -664.45934999 -69.61778433 -39.13415034     6    122    0    0    0
H -663.68192510 -66.67063266 -37.42792928     6    122    0    0    0
H -661.70900837 -67.69511097 -39.73414837     6    122    0    0    0
H -651.34087445 -39.07130465 -55.49170348     6     127    0    0    0 
C -650.46335607 -37.61314294 -54.22269250     1     126    128    129    130
H -650.37269676 -35.79651266 -55.19080738     6     127    0    0    0
H -651.73947634 -37.33303132 -52.70890270     6     127    0    0    0
C -647.96767284 -38.84178905 -53.08182032     2     127    131    132    133
H -648.38960304 -40.75261894 -52.68848089     6     130    0    0    0
H -646.40763945 -38.84854663 -54.39342920     6     130    0    0    0
C -646.94732578 -37.61378873 -50.72885531     2     130    134   135   136
H -646.53319294 -35.66974926 -51.27194762     6     133    0    0    0
H -648.36219717 -37.49276049 -49.26028691     6     133    0    0    0
C -644.57592320 -38.95594685 -49.59546242     2     133   137   138   139
H -644.89875018 -40.98284962 -49.71568283     6    136    0    0    0
H -643.16601121 -38.57521600 -51.01984698     6    136    0    0    0
C -643.47654237 -38.22711127 -46.97639076     2    136   140   141   142
H -643.58779900 -36.13192394 -46.90999013     6    139    0    0    0
H -644.58574816 -38.89539412 -45.48023778     6    139    0    0    0
C -640.77584375 -39.05039482 -46.36005447     2    139   143   144   145
H -640.61690451 -41.08776205 -45.85256321     6    142    0    0    0
H -639.69789313 -38.96893164 -48.08869925     6    142    0    0    0
C -639.59195200 -37.21879249 -44.44416660     2    142   146   147   148
H -639.49120289 -35.20155446 -45.34492851     6    145    0    0    0
H -640.56880245 -37.14081622 -42.69396489     6    145    0    0    0
C -636.86245581 -38.14080024 -43.65794429     2    145   149   150   151
H -636.82037364 -40.00999620 -42.71810283     6    148    0    0    0
H -635.82170973 -38.20250066 -45.36717483     6    148    0    0    0
C -635.32823687 -36.36405934 -41.87194840     2    148   152   153   154
H -635.17277810 -34.38410324 -42.67064765     6    151    0    0    0
H -636.48898190 -36.09490566 -40.29963990     6    151    0    0    0
C -632.78240950 -37.28430455 -40.95193597     2    151   155   156   157
H -631.91716384 -36.21270797 -39.50996788     6    154    0    0    0
H -633.24513101 -39.27155732 -40.20541275     6    154    0    0    0
C -630.77774582 -37.27422844 -43.09504655     2    154   158   159   160
H -631.40554917 -38.60805490 -44.51565459     6    157    0    0    0
H -630.63005136 -35.28407096 -44.06937316     6    157    0    0    0
C -628.11234490 -38.06255086 -42.19324239     1    157   161   162   163
H -627.19879201 -36.29396431 -41.46996631     6    160    0    0    0
H -627.02393468 -38.64145157 -43.82750504     6    160    0    0    0
H -628.07358234 -39.44168915 -40.70930619     6    160    0    0    0
H -660.69365398 -41.22458156 -48.02816206     6     165    0    0    0 
C -661.48674182 -40.18765423 -46.40667787     1     164    166    167    168
H -663.05436769 -39.36362245 -47.47398366     6     165    0    0    0
H -662.27963212 -41.59855914 -45.05476593     6     165    0    0    0
C -659.88972461 -37.89243780 -45.28697357     2     165    169    170    171
H -658.19796802 -38.70319875 -44.58048921     6     168    0    0    0
H -659.23335880 -36.63073243 -46.76395914     6     168    0    0    0
C -661.21242443 -36.23061032 -43.26392354     2     168    172   173   174
H -663.26714831 -35.86913787 -43.68146519     6     171    0    0    0
H -661.44159688 -37.52010916 -41.56289841     6     171    0    0    0
C -659.57929494 -34.06931825 -42.62424598     2     171   175   176   177
H -657.94564883 -34.60037436 -41.76046721     6    174    0    0    0
H -659.03878585 -33.19587603 -44.38952686     6    174    0    0    0
C -660.70092024 -31.95932010 -41.03153782     2    174   178   179   180
H -662.39325427 -31.17762504 -42.00565856     6    177    0    0    0
H -661.38670226 -32.77643426 -39.28653742     6    177    0    0    0
C -658.92930470 -29.79824107 -40.42659960     2    177   181   182   183
H -657.08347394 -30.72080589 -39.81664469     6    180    0    0    0
H -658.54492155 -28.69777044 -42.15797812     6    180    0    0    0
C -659.82496651 -28.10836315 -38.28711328     2    180   184   185   186
H -661.59709422 -27.15225232 -38.92821936     6    183    0    0    0
H -660.09834558 -29.09207437 -36.47683332     6    183    0    0    0
C -657.65522359 -26.12132703 -37.63852211     2    183   187   188   189
H -655.84717871 -27.11617294 -37.01086385     6    186    0    0    0
H -657.16469833 -24.95841893 -39.36712172     6    186    0    0    0
C -658.72282628 -24.29398726 -35.53402295     2    186   190   191   192
H -660.41637867 -23.18029335 -36.33049890     6    189    0    0    0
H -659.74937317 -25.63596536 -34.19902735     6    189    0    0    0
C -656.74201681 -22.70559792 -34.16095460     2    189   193   194   195
H -655.13342279 -23.87643967 -33.81270513     6    192    0    0    0
H -655.93965914 -21.23673269 -35.34594411     6    192    0    0    0
C -657.73079305 -21.45230748 -31.81015154     2    192   196   197   198
H -658.39740302 -22.58678802 -30.22319142     6    195    0    0    0
H -656.04567040 -20.66337685 -30.91693843     6    195    0    0    0
C -659.49093252 -19.12235162 -32.26809946     1    195   199   200   201
H -659.79324129 -18.14624107 -30.34898599     6    198    0    0    0
H -661.53773113 -19.63409474 -32.96471873     6    198    0    0    0
H -658.69257379 -17.91688401 -33.65837106     6    198    0    0    0
H -660.83555548 -43.10549723 -19.32564362     6     203    0    0    0 
C -660.26299899 -42.63060242 -21.10744938     1     202    204    205    206
H -658.66869465 -43.78570128 -21.86762472     6     203    0    0    0
H -661.88091691 -43.05329685 -22.25479788     6     203    0    0    0
C -659.58328743 -39.85039378 -21.23092256     2     203    207    208    209
H -657.87197488 -39.49285676 -20.34928777     6     206    0    0    0
H -659.41517048 -39.10159412 -23.20593247     6     206    0    0    0
C -661.53797521 -38.06359450 -19.98242062     2     206    210   211   212
H -661.03086059 -36.30572100 -20.64886632     6     209    0    0    0
H -663.42734616 -38.48009019 -20.60644197     6     209    0    0    0
C -661.63305385 -38.06401952 -17.07914931     2     209   213   214   215
H -662.28732538 -39.87802350 -16.25348243     6    212    0    0    0
H -659.68398371 -38.09832836 -16.46571926     6    212    0    0    0
C -663.37150040 -36.31878622 -15.71511951     2    212   216   217   218
H -662.92558745 -34.31575142 -16.19660809     6    215    0    0    0
H -665.36333354 -36.10443206 -16.36579275     6    215    0    0    0
C -663.25208301 -36.80255006 -12.79203597     2    215   219   220   221
H -663.93811873 -38.71848699 -12.40458945     6    218    0    0    0
H -661.26622092 -36.80104984 -12.16741217     6    218    0    0    0
C -664.90258268 -35.05349877 -11.16020771     2    218   222   223   224
H -664.81280041 -33.04520663 -11.58849996     6    221    0    0    0
H -666.81273650 -35.56740381 -11.55350599     6    221    0    0    0
C -664.56343642 -35.69586403 -8.25422137     2    221   225   226   227
H -665.16963339 -37.69808101 -8.01071754     6    224    0    0    0
H -662.61579905 -35.50491827 -7.65760163     6    224    0    0    0
C -666.17534150 -34.00849631 -6.39866786     2    224   228   229   230
H -666.17416819 -32.13058947 -6.94346840     6    227    0    0    0
H -668.13310970 -34.54227781 -6.65735768     6    227    0    0    0
C -665.62128972 -34.45126577 -3.65444438     2    227   231   232   233
H -666.20422485 -36.38132198 -3.27070205     6    230    0    0    0
H -663.57274560 -34.49242463 -3.18230148     6    230    0    0    0
C -667.10384578 -32.69530111 -1.87740467     2    230   234   235   236
H -667.05913128 -30.87903321 -2.50323499     6    233    0    0    0
H -669.13500077 -33.08124928 -1.97777929     6    233    0    0    0
C -666.19671574 -32.88126552 0.97550876     1    233   237   238   239
H -667.37663385 -31.73067578 2.29920113     6    236    0    0    0
H -664.27168759 -32.25479702 1.11725890     6    236    0    0    0
H -666.22742297 -34.85357478 1.57086124     6    236    0    0    0
H -666.23061628 -62.85665953 -14.44552484     6     241    0    0    0 
C -665.98973914 -64.60293642 -15.80972454     1     240    242    243    244
H -667.40347587 -65.99061421 -15.28736110     6     241    0    0    0
H -666.17160947 -63.83829328 -17.70586575     6     241    0    0    0
C -663.39599943 -65.69622583 -15.57877357     2     241    245    246    247
H -663.42401082 -66.08252334 -13.60247931     6     244    0    0    0
H -663.25376650 -67.38685782 -16.72721488     6     244    0    0    0
C -661.17866624 -64.03908596 -16.43638918     2     244    248   249   250
H -661.75352452 -63.09903423 -18.20998667     6     247    0    0    0
H -660.92125231 -62.52267750 -15.02845599     6     247    0    0    0
C -658.72760255 -65.58016209 -16.75062261     2     247   251   252   253
H -657.22449311 -64.21703917 -17.30148883     6    250    0    0    0
H -658.36838042 -66.55350460 -14.91722143     6    250    0    0    0
C -658.61498972 -67.54810520 -18.97838284     2    250   254   255   256
H -660.10259074 -68.92129087 -18.66101325     6    253    0    0    0
H -659.15981685 -66.35523532 -20.54218870     6    253    0    0    0
C -656.03463233 -68.87686847 -19.39525405     2    253   257   258   259
H -656.09430676 -69.58784496 -21.38412201     6    256    0    0    0
H -654.47063977 -67.45239230 -19.33129304     6    256    0    0    0
C -655.62162136 -71.22803723 -17.61092435     2    256   260   261   262
H -655.81615614 -70.16538188 -15.89431752     6    259    0    0    0
H -657.19604160 -72.50973167 -17.70476240     6    259    0    0    0
C -653.07852298 -72.48217497 -17.67130455     2    259   263   264   265
H -653.09513635 -73.33257953 -19.47590828     6    262    0    0    0
H -651.64388623 -71.19282419 -17.66795744     6    262    0    0    0
C -652.59229706 -74.61305235 -15.87357639     2    262   266   267   268
H -652.58338893 -73.85820933 -14.03134144     6    265    0    0    0
H -654.03247967 -76.09187792 -15.82311671     6    265    0    0    0
C -650.04296850 -76.07611691 -16.03368530     2    265   269   270   271
H -650.16714301 -77.47189925 -17.53107123     6    268    0    0    0
H -648.47958265 -74.71611811 -16.49449614     6    268    0    0    0
C -649.34927575 -77.12475997 -13.30279761     2    268   272   273   274
H -648.58376354 -75.54311662 -12.20373688     6    271    0    0    0
H -650.76133292 -78.04422129 -12.21251551     6    271    0    0    0
C -647.05340131 -78.97322556 -13.29946243     1    271   275   276   277
H -647.63607223 -80.83770207 -13.76075699     6    274    0    0    0
H -646.46243059 -78.86672988 -11.19525016     6    274    0    0    0
H -645.46940824 -78.33964617 -14.49196681     6    274    0    0    0
H -669.64769442 -53.43378422 -24.18614678     6     279    0    0    0 
C -669.67193949 -53.53070208 -22.16251687     1     278    280    281    282
H -671.45705388 -52.56778554 -21.72224320     6     279    0    0    0
H -670.18650741 -55.47929696 -21.51122021     6     279    0    0    0
C -667.50727461 -52.19231901 -20.98093071     2     279    283    284    285
H -665.62238614 -52.90766443 -21.65442016     6     282    0    0    0
H -667.44468569 -50.16147153 -21.10862257     6     282    0    0    0
C -667.91743519 -52.93706369 -18.16646723     2     282    286   287   288
H -669.84030192 -52.55984973 -17.52828688     6     285    0    0    0
H -667.75424244 -55.07138202 -18.24920707     6     285    0    0    0
C -665.93607686 -51.92664504 -16.47236913     2     285   289   290   291
H -664.17297295 -52.56012937 -17.31610825     6    288    0    0    0
H -666.01921279 -49.83727570 -16.51260358     6    288    0    0    0
C -666.26596154 -52.82662211 -13.68770488     2    288   292   293   294
H -667.94151549 -51.79042125 -12.93837671     6    291    0    0    0
H -666.65423632 -54.84332884 -13.65170249     6    291    0    0    0
C -663.85766751 -52.25783406 -12.11712090     2    291   295   296   297
H -662.05092922 -52.83584415 -12.92206100     6    294    0    0    0
H -663.61779371 -50.12298094 -11.93477626     6    294    0    0    0
C -664.05545542 -53.14734507 -9.36263702     2    294   298   299   300
H -665.73968542 -52.54805227 -8.24376987     6    297    0    0    0
H -664.12031861 -55.25858817 -9.66073911     6    297    0    0    0
C -661.67010703 -52.63430056 -7.78417646     2    297   301   302   303
H -660.14083491 -53.18394584 -8.88431867     6    300    0    0    0
H -661.60658653 -50.47823708 -7.59561288     6    300    0    0    0
C -661.53711706 -54.23380230 -5.39875917     2    300   304   305   306
H -663.28778764 -54.07910472 -4.25514936     6    303    0    0    0
H -661.61764522 -56.17930989 -5.75262807     6    303    0    0    0
C -659.01994489 -53.82514801 -3.82965450     2    303   307   308   309
H -657.29963376 -54.27936202 -4.85879154     6    306    0    0    0
H -659.32808145 -51.82682815 -3.26382966     6    306    0    0    0
C -658.81557578 -55.50553012 -1.53683019     2    306   310   311   312
H -660.61545159 -56.37989404 -1.20565571     6    309    0    0    0
H -657.15232072 -56.75357692 -2.06373627     6    309    0    0    0
C -657.73679336 -53.89613633 0.71567396     1    309   313   314   315
H -657.69771202 -55.24316742 2.35452574     6    312    0    0    0
H -659.06074233 -52.52182514 1.14017511     6    312    0    0    0
H -655.82759875 -53.03266228 0.63356183     6    312    0    0    0
H -652.75266075 -50.13867652 -47.43255515     6     317    0    0    0 
C -652.46224664 -48.41257497 -46.26879186     1     316    318    319    320
H -651.00005370 -47.31150314 -47.16319944     6     317    0    0    0
H -654.09381576 -47.26398449 -46.48114748     6     317    0    0    0
C -651.96215751 -48.90959723 -43.49960235     2     317    321    322    323
H -651.13592328 -47.19902065 -42.59063500     6     320    0    0    0
H -653.70065287 -49.12694157 -42.49791377     6     320    0    0    0
C -649.94922191 -51.18646996 -43.07819847     2     320    324   325   326
H -649.55721729 -51.47390146 -41.13742151     6     323    0    0    0
H -650.82953140 -52.97673296 -43.74499602     6     323    0    0    0
C -647.44614846 -50.74308456 -44.36380313     2     323   327   328   329
H -646.29886553 -52.48230139 -44.07431627     6    326    0    0    0
H -647.51635455 -50.65041965 -46.55033256     6    326    0    0    0
C -645.87775183 -48.49363197 -43.39844586     2    326   330   331   332
H -646.99642074 -46.62512104 -43.83819454     6    329    0    0    0
H -645.90428100 -48.59980335 -41.39168822     6    329    0    0    0
C -643.15868624 -48.54641737 -44.43686825     2    329   333   334   335
H -643.12866035 -49.41919027 -46.35848045     6    332    0    0    0
H -642.36799172 -46.67831948 -44.70148118     6    332    0    0    0
C -641.28448327 -50.04877125 -42.56531929     2    332   336   337   338
H -641.47367074 -49.56172959 -40.63326612     6    335    0    0    0
H -641.96832338 -51.84851984 -42.98284561     6    335    0    0    0
C -638.48085327 -49.68939809 -43.12260514     2    335   339   340   341
H -638.03536588 -50.06365328 -45.10714961     6    338    0    0    0
H -638.17641416 -47.62207834 -43.07411806     6    338    0    0    0
C -636.66978922 -51.11407389 -41.47761508     2    338   342   343   344
H -636.85593596 -50.55585302 -39.45852971     6    341    0    0    0
H -636.95646082 -53.27413126 -41.47801987     6    341    0    0    0
C -633.96389865 -50.80448364 -42.21899658     2    341   345   346   347
H -632.88800594 -51.82968404 -40.77958359     6    344    0    0    0
H -633.36310535 -51.62768347 -44.00764979     6    344    0    0    0
C -633.02419855 -48.09106530 -41.91219981     2    344   348   349   350
H -633.99668398 -46.64395783 -42.97765833     6    347    0    0    0
H -633.11340846 -47.39370743 -40.00039301     6    347    0    0    0
C -630.29922250 -47.69562606 -42.82287489     1    347   351   352   353
H -630.28625006 -47.53602545 -44.87236551     6    350    0    0    0
H -629.15014606 -49.09509881 -41.90245458     6    350    0    0    0
H -629.37796570 -45.94194222 -42.39977066     6    350    0    0    0
H -656.93489498 -55.91232392 -26.20301477     6     355    0    0    0 
C -658.13262934 -57.19467206 -27.31797055     1     354    356    357    358
H -657.18798295 -58.90336757 -28.07151591     6     355    0    0    0
H -659.80716444 -57.50861837 -26.15888667     6     355    0    0    0
C -658.84959410 -55.74392828 -29.64464531     2     355    359    360    361
H -660.18159499 -56.85850817 -30.85732007     6     358    0    0    0
H -660.20296630 -54.31119350 -28.98067267     6     358    0    0    0
C -656.59423718 -54.68707912 -30.99997077     2     358    362   363   364
H -655.19758449 -53.97965818 -29.72569882     6     361    0    0    0
H -655.58084524 -56.01862563 -32.07374706     6     361    0    0    0
C -657.43788547 -52.46511355 -32.64049975     2     361   365   366   367
H -658.61064231 -53.13767417 -34.36591615     6    364    0    0    0
H -658.73783257 -51.28275269 -31.56951808     6    364    0    0    0
C -655.28839430 -50.78519153 -33.47172788     2    364   368   369   370
H -654.23407693 -49.99277421 -31.77611695     6    367    0    0    0
H -654.12996502 -52.03465525 -34.66050279     6    367    0    0    0
C -656.07306036 -48.62219996 -35.17705397     2    367   371   372   373
H -656.98528881 -49.44454908 -36.88280062     6    370    0    0    0
H -657.41148901 -47.31019273 -34.36163124     6    370    0    0    0
C -653.93432830 -47.03334279 -35.98178495     2    370   374   375   376
H -653.05512168 -46.18309915 -34.29319114     6    373    0    0    0
H -652.40162221 -48.23474026 -36.36475770     6    373    0    0    0
C -654.75305851 -45.16654440 -38.11221457     2    373   377   378   379
H -655.42882858 -46.17148285 -39.76055545     6    376    0    0    0
H -656.40836023 -44.21487674 -37.22479158     6    376    0    0    0
C -652.94659976 -43.03914639 -38.67310079     2    376   380   381   382
H -652.13481665 -42.33557576 -36.84828455     6    379    0    0    0
H -651.47814030 -43.79273721 -39.87809182     6    379    0    0    0
C -654.29180464 -40.82859185 -40.07209859     2    379   383   384   385
H -655.29961457 -41.50782506 -41.70023056     6    382    0    0    0
H -655.74066227 -40.24342567 -38.75176777     6    382    0    0    0
C -652.70322481 -38.62960385 -40.88409411     2    382   386   387   388
H -653.91615344 -37.22711470 -41.61921751     6    385    0    0    0
H -651.60133260 -37.84097084 -39.32221547     6    385    0    0    0
C -651.02128779 -39.39154237 -43.23166695     1    385   389   390   391
H -652.19420397 -39.97526438 -44.94390155     6    388    0    0    0
H -649.64079659 -40.85158823 -42.83709896     6    388    0    0    0
H -649.89450272 -37.93871918 -43.86882662     6    388    0    0    0
H -613.46892462 -57.36963688 -31.46457545     6     393    0    0    0 
C -614.28599886 -57.19238622 -29.64623532     1     392    394    395    396
H -612.91939875 -57.88436561 -28.27603281     6     393    0    0    0
H -614.85231366 -55.15313178 -29.42758302     6     393    0    0    0
C -616.45541438 -59.00848595 -29.25492591     2     393    397    398    399
H -618.01025371 -58.56318419 -30.70465494     6     396    0    0    0
H -615.70310803 -60.91413739 -29.63698599     6     396    0    0    0
C -617.20406832 -58.97282254 -26.54490358     2     396    400   401   402
H -615.59628578 -59.75365434 -25.62668221     6     399    0    0    0
H -617.77884656 -57.17901073 -25.78005417     6     399    0    0    0
C -619.64747723 -60.56840330 -26.00932206     2     399   403   404   405
H -620.85073960 -60.15015615 -27.61910445     6    402    0    0    0
H -619.16934524 -62.61594461 -26.15875843     6    402    0    0    0
C -620.88019510 -59.87313405 -23.42552474     2    402   406   407   408
H -619.62061893 -59.30695447 -21.88532900     6    405    0    0    0
H -621.96254130 -58.18277037 -23.70185182     6    405    0    0    0
C -622.57695423 -61.85633327 -22.52170248     2    405   409   410   411
H -624.03441946 -62.42950032 -23.87787607     6    408    0    0    0
H -621.50725491 -63.52272634 -22.15594439     6    408    0    0    0
C -623.78649896 -61.27145843 -19.94224504     2    408   412   413   414
H -622.40068806 -61.16582965 -18.39811950     6    411    0    0    0
H -624.55401092 -59.32403004 -19.88987846     6    411    0    0    0
C -626.16400278 -62.78431678 -19.26558866     2    411   415   416   417
H -627.81845497 -62.03422848 -20.06081276     6    414    0    0    0
H -625.78780612 -64.65611369 -20.13807446     6    414    0    0    0
C -626.55530809 -63.13744543 -16.44368202     2    414   418   419   420
H -624.85971454 -64.09880557 -15.52849870     6    417    0    0    0
H -626.85154436 -61.42443281 -15.43824579     6    417    0    0    0
C -628.81903952 -64.80352115 -15.81574433     2    417   421   422   423
H -630.29600050 -64.23074248 -17.12840322     6    420    0    0    0
H -627.98657521 -66.69745412 -15.92402980     6    420    0    0    0
C -629.85018703 -64.18555417 -13.16445308     2    420   424   425   426
H -630.54302200 -65.84496314 -12.29107523     6    423    0    0    0
H -628.25804011 -63.65518855 -11.94818617     6    423    0    0    0
C -631.80369440 -62.08501257 -13.17356625     1    423   427   428   429
H -632.71301414 -61.62004291 -11.40154726     6    426    0    0    0
H -633.33555048 -62.51277997 -14.51912259     6    426    0    0    0
H -631.00194286 -60.25165388 -13.85589216     6    426    0    0    0
H -640.59636681 -73.46847959 -27.97099169     6     431    0    0    0 
C -640.78256659 -73.32674453 -25.89344804     1     430    432    433    434
H -642.32607902 -71.95187030 -25.71482072     6     431    0    0    0
H -641.53814594 -75.09965759 -25.18257552     6     431    0    0    0
C -638.50019733 -72.63193781 -24.18388493     2     431    435    436    437
H -637.84160250 -70.69018504 -24.50096881     6     434    0    0    0
H -638.92204271 -72.87672080 -22.32166050     6     434    0    0    0
C -636.22321881 -74.26510637 -24.69292447     2     434    438   439   440
H -634.81841613 -73.93596420 -23.36812317     6     437    0    0    0
H -636.77374115 -76.22047394 -24.44131929     6     437    0    0    0
C -635.17118106 -73.93014988 -27.33266799     2     437   441   442   443
H -636.65824602 -74.79083880 -28.60291371     6    440    0    0    0
H -634.82592352 -72.03413911 -27.96539953     6    440    0    0    0
C -632.80008227 -75.51382630 -27.63679197     2    440   444   445   446
H -631.08131902 -74.47599918 -26.98833105     6    443    0    0    0
H -632.92460260 -77.17513281 -26.44632964     6    443    0    0    0
C -632.62654741 -76.43438688 -30.44133893     2    443   447   448   449
H -633.90339054 -77.99979779 -31.03598374     6    446    0    0    0
H -633.43498029 -74.83298484 -31.45222916     6    446    0    0    0
C -629.83516849 -76.72105662 -31.26274513     2    446   450   451   452
H -628.89110732 -75.05843484 -30.53848860     6    449    0    0    0
H -629.24201485 -78.43593314 -30.25476255     6    449    0    0    0
C -629.42486817 -77.00124208 -34.15015691     2    449   453   454   455
H -631.09391142 -77.73941304 -34.97886300     6    452    0    0    0
H -629.18667061 -75.22852557 -35.07076539     6    452    0    0    0
C -627.03929206 -78.60345582 -34.69272932     2    452   456   457   458
H -625.67635602 -78.73897217 -33.03479392     6    455    0    0    0
H -627.68352968 -80.65120153 -34.95717417     6    455    0    0    0
C -625.76040322 -77.81562245 -37.19307675     2    455   459   460   461
H -624.67217872 -79.40294178 -38.03366389     6    458    0    0    0
H -627.10916330 -77.10669222 -38.56757691     6    458    0    0    0
C -624.04254909 -75.46540090 -36.64018578     2    458   462   463   464
H -625.11317549 -73.92723659 -35.76377561     6    461    0    0    0
H -622.57662850 -76.26931249 -35.44833220     6    461    0    0    0
C -622.49606414 -74.68471718 -39.01175147     1    461   465   466   467
H -623.66172406 -73.68030515 -40.34614098     6    464    0    0    0
H -621.75680833 -76.25571011 -39.93345526     6    464    0    0    0
H -620.94557847 -73.53874446 -38.34714588     6    464    0    0    0
H -662.47344420 -46.08238370 -40.02000327     6     469    0    0    0 
C -661.09926876 -46.37526309 -41.54350449     1     468    470    471    472
H -662.26300826 -45.79935748 -43.09374359     6     469    0    0    0
H -659.33230050 -45.44785757 -41.24340547     6     469    0    0    0
C -660.50188758 -49.18075102 -41.54673010     2     469    473    474    475
H -659.36143970 -49.87032621 -43.06484768     6     472    0    0    0
H -659.34637371 -49.33116453 -39.87248574     6     472    0    0    0
C -662.74424410 -50.99500935 -41.41135324     2     472    476   477   478
H -664.37716326 -50.20498166 -40.39648747     6     475    0    0    0
H -663.56119172 -51.34396205 -43.25920558     6     475    0    0    0
C -662.03429468 -53.43392568 -40.02757609     2     475   479   480   481
H -660.74180762 -54.52225331 -41.18342173     6    478    0    0    0
H -661.27849725 -52.74665306 -38.18683370     6    478    0    0    0
C -664.46427397 -54.90362748 -39.29156542     2    478   482   483   484
H -665.81613392 -53.47690227 -38.58808508     6    481    0    0    0
H -665.22485526 -55.74032062 -41.12992135     6    481    0    0    0
C -664.19133709 -57.02175107 -37.26357790     2    481   485   486   487
H -662.58599440 -58.24727105 -37.54857353     6    484    0    0    0
H -663.74499744 -55.88568738 -35.65023857     6    484    0    0    0
C -666.42792745 -58.87281851 -37.15255912     2    484   488   489   490
H -668.10173636 -57.80577391 -36.65990703     6    487    0    0    0
H -666.41278594 -59.50476227 -39.08133189     6    487    0    0    0
C -666.00133325 -61.01930034 -35.20596670     2    487   491   492   493
H -664.76328086 -62.26177476 -36.21911145     6    490    0    0    0
H -665.00705708 -60.19121083 -33.69399757     6    490    0    0    0
C -668.37066067 -62.39269047 -34.41390500     2    490   494   495   496
H -669.35119635 -60.78922586 -33.50937834     6    493    0    0    0
H -669.37655816 -62.81992359 -36.11026222     6    493    0    0    0
C -668.08861020 -64.64113993 -32.68550814     2    493   497   498   499
H -667.44119811 -66.30068800 -33.73696377     6    496    0    0    0
H -666.56126031 -64.47590708 -31.22896264     6    496    0    0    0
C -670.65405713 -65.36694048 -31.25983394     2    496   500   501   502
H -671.73074013 -63.75405168 -30.45392618     6    499    0    0    0
H -672.00853969 -65.92974202 -32.65466682     6    499    0    0    0
C -670.20977343 -67.77684338 -29.52665653     1    499   503   504   505
H -669.75790848 -67.19983352 -27.59286863     6    502    0    0    0
H -668.59619137 -68.82129492 -30.48446690     6    502    0    0    0
H -671.97334059 -68.95249336 -29.45950638     6    502    0    0    0
H -643.86162004 -83.63623084 -3.39640404     6     507    0    0    0 
C -642.11087313 -83.33112531 -4.35687672     1     506    508    509    510
H -640.76785352 -83.13454315 -2.88360839     6     507    0    0    0
H -641.27120835 -84.83227682 -5.52380157     6     507    0    0    0
C -642.11264670 -80.88037240 -5.91555513     2     507    511    512    513
H -643.39210939 -81.29048602 -7.59993084     6     510    0    0    0
H -642.90480588 -79.36306873 -4.66025757     6     510    0    0    0
C -639.56965477 -80.18165890 -6.90436777     2     510    514   515   516
H -638.48810023 -79.54167586 -5.14862035     6     513    0    0    0
H -638.52071309 -81.71879358 -7.76949425     6     513    0    0    0
C -639.90864319 -78.07494544 -8.84725489     2     513   517   518   519
H -641.51550545 -78.47294407 -10.12403741     6    516    0    0    0
H -640.48467361 -76.33029566 -7.80515669     6    516    0    0    0
C -637.48650170 -77.30129766 -10.34931990     2    516   520   521   522
H -636.05756964 -76.64764225 -8.98341188     6    519    0    0    0
H -636.51125390 -78.88860117 -11.30678079     6    519    0    0    0
C -637.92193206 -75.15166119 -12.33959307     2    519   523   524   525
H -639.81755470 -75.13260821 -13.20762373     6    522    0    0    0
H -637.68932019 -73.37655262 -11.33742679     6    522    0    0    0
C -636.00540759 -75.37012151 -14.27213460     2    522   526   527   528
H -634.16385693 -75.52743114 -13.28085795     6    525    0    0    0
H -636.24784805 -77.08127760 -15.35642560     6    525    0    0    0
C -636.19355563 -73.18157206 -16.30092029     2    525   529   530   531
H -637.71950836 -73.50302927 -17.53239983     6    528    0    0    0
H -636.54602704 -71.31714368 -15.38734075     6    528    0    0    0
C -633.55015014 -73.04800252 -17.78015118     2    528   532   533   534
H -631.96960779 -72.58247682 -16.44737615     6    531    0    0    0
H -633.11064669 -74.68772045 -18.92843958     6    531    0    0    0
C -633.50017047 -70.64198564 -19.38602816     2    531   535   536   537
H -635.12100815 -70.40436930 -20.54859181     6    534    0    0    0
H -633.63195979 -68.95434317 -18.05374081     6    534    0    0    0
C -631.14938218 -70.52435578 -21.08866285     2    534   538   539   540
H -629.39855916 -70.52309991 -19.97803609     6    537    0    0    0
H -631.14486608 -72.20630026 -22.14197264     6    537    0    0    0
C -631.33412331 -68.33412281 -23.02451264     1    537   541   542   543
H -629.90277088 -68.83628699 -24.45123737     6    540    0    0    0
H -630.93640943 -66.51670969 -22.07441135     6    540    0    0    0
H -633.12409212 -68.31229583 -24.05824301     6    540    0    0    0
H -628.33866972 -58.24311309 -34.41692494     6     545    0    0    0 
C -627.50433045 -56.57548912 -33.61324483     1     544    546    547    548
H -627.81116910 -56.72873400 -31.63553524     6     545    0    0    0
H -625.63137990 -57.07777464 -33.98373847     6     545    0    0    0
C -628.01455225 -54.04252196 -34.83236362     2     545    549    550    551
H -626.80964518 -53.89904656 -36.45319703     6     548    0    0    0
H -629.90276240 -54.02006316 -35.67662746     6     548    0    0    0
C -627.51065456 -51.67049293 -33.23216468     2     548    552   553   554
H -628.93048306 -51.52921028 -31.77173032     6     551    0    0    0
H -625.67915114 -51.99198878 -32.31469090     6     551    0    0    0
C -627.27125326 -49.21329671 -34.82851295     2     551   555   556   557
H -625.88621853 -49.57616781 -36.32108217     6    554    0    0    0
H -629.08469471 -48.92912366 -35.95216238     6    554    0    0    0
C -626.53442718 -47.06747740 -33.00344701     2    554   558   559   560
H -627.93381311 -46.91086276 -31.41493272     6    557    0    0    0
H -624.62017079 -47.29680056 -32.28905344     6    557    0    0    0
C -626.62979418 -44.47787156 -34.40221622     2    557   561   562   563
H -625.79338237 -44.56648626 -36.35623658     6    560    0    0    0
H -628.61589902 -44.00149764 -34.63351221     6    560    0    0    0
C -625.58060224 -42.32637158 -32.79345546     2    560   564   565   566
H -626.59734140 -42.46423434 -31.06425682     6    563    0    0    0
H -623.64081653 -42.62008853 -32.30358793     6    563    0    0    0
C -626.01919481 -39.87036659 -34.15162500     2    563   567   568   569
H -624.97483130 -39.95512064 -35.98610702     6    566    0    0    0
H -627.96895965 -39.82705651 -34.93477347     6    566    0    0    0
C -625.31910086 -37.58258107 -32.50264313     2    566   570   571   572
H -627.01232408 -37.48332023 -31.32692044     6    569    0    0    0
H -623.70962007 -38.02998779 -31.22402152     6    569    0    0    0
C -625.10750290 -35.19159072 -33.93074616     2    569   573   574   575
H -623.32407813 -35.35395776 -35.02691392     6    572    0    0    0
H -626.54020567 -34.99654227 -35.46825771     6    572    0    0    0
C -624.93771807 -32.84483767 -32.32541367     2    572   576   577   578
H -623.35218425 -32.83980473 -31.02754360     6    575    0    0    0
H -624.66480733 -31.32553880 -33.71406952     6    575    0    0    0
C -627.30601087 -32.21180086 -30.89157188     1    575   579   580   581
H -628.86010627 -32.11510397 -32.40742416     6    578    0    0    0
H -627.00820659 -30.46290908 -29.82070680     6    578    0    0    0
H -627.79739133 -33.71576895 -29.55974620     6    578    0    0    0
H -662.51416406 -43.61539436 -28.19895157     6     583    0    0    0 
C -661.65539504 -41.70420472 -28.23392198     1     582    584    585    586
H -663.12670778 -40.30989539 -27.96426374     6     583    0    0    0
H -660.30416144 -41.86189231 -26.68060221     6     583    0    0    0
C -660.18548802 -41.30237611 -30.69777739     2     583    587    588    589
H -658.77803106 -42.85017776 -30.85127596     6     586    0    0    0
H -661.56181967 -41.19333666 -32.13050459     6     586    0    0    0
C -658.72436900 -38.80214216 -30.66099787     2     586    590   591   592
H -660.12297264 -37.22176157 -30.51895322     6     589    0    0    0
H -657.37060866 -38.77230627 -29.03071566     6     589    0    0    0
C -657.34425613 -38.28776485 -33.04700052     2     589   593   594   595
H -656.24348626 -39.83856402 -33.72268186     6    592    0    0    0
H -658.59150057 -37.89127525 -34.58134541     6    592    0    0    0
C -655.55769496 -36.04816131 -32.41723195     2    592   596   597   598
H -656.57583411 -34.62765167 -31.23631468     6    595    0    0    0
H -653.90844707 -36.69184970 -31.28501471     6    595    0    0    0
C -654.60256732 -34.97227616 -35.02806073     2    595   599   600   601
H -654.08242554 -36.66900875 -36.17876948     6    598    0    0    0
H -656.12955644 -34.23342007 -36.05031798     6    598    0    0    0
C -652.31435288 -33.16585863 -34.87148330     2    598   602   603   604
H -653.47706766 -31.59459344 -34.07555845     6    601    0    0    0
H -650.91263849 -33.80538872 -33.58233976     6    601    0    0    0
C -651.32084572 -32.34996493 -37.39310813     2    601   605   606   607
H -650.48062746 -33.88758689 -38.51670963     6    604    0    0    0
H -652.87088762 -31.74589196 -38.62279075     6    604    0    0    0
C -649.45426016 -30.16108455 -37.20654335     2    604   608   609   610
H -650.30952429 -28.53300781 -36.36368711     6    607    0    0    0
H -647.92530268 -30.91141393 -36.01906674     6    607    0    0    0
C -648.68842468 -29.15730780 -39.90154691     2    607   611   612   613
H -648.04423844 -30.65054251 -41.19811253     6    610    0    0    0
H -650.18237872 -28.06310361 -40.82854377     6    610    0    0    0
C -646.48130517 -27.27184532 -39.90196650     2    610   614   615   616
H -646.15470035 -26.17443166 -38.27931718     6    613    0    0    0
H -644.69632776 -28.28076013 -40.00843688     6    613    0    0    0
C -646.57195098 -25.57600848 -42.19677091     1    613   617   618   619
H -645.00034586 -24.24644455 -42.08633089     6    616    0    0    0
H -648.31518083 -24.65634647 -42.63799439     6    616    0    0    0
H -646.02146481 -26.83876641 -43.61280588     6    616    0    0    0
H -634.93133980 -47.29325995 -11.12966848     6     621    0    0    0 
C -633.96398969 -45.74756002 -11.90371734     1     620    622    623    624
H -632.21906770 -45.69320880 -10.74106665     6     621    0    0    0
H -633.64909295 -46.19110648 -13.87284962     6     621    0    0    0
C -635.56823636 -43.25646087 -11.60813924     2     621    625    626    627
H -634.94027710 -42.21941020 -13.19399862     6     624    0    0    0
H -637.57621864 -43.70264885 -11.81893860     6     624    0    0    0
C -635.44956449 -41.94305884 -9.13349381     2     624    628   629   630
H -635.74485073 -43.27513881 -7.55777119     6     627    0    0    0
H -633.51776068 -41.18996524 -8.91537335     6     627    0    0    0
C -637.44823600 -39.84281314 -8.97732238     2     627   631   632   633
H -636.90056890 -38.10834095 -10.03990674     6    630    0    0    0
H -639.13310261 -40.66440248 -9.59547619     6    630    0    0    0
C -638.00403745 -39.06455565 -6.19956693     2    630   634   635   636
H -638.89075096 -40.53307817 -4.93141718     6    633    0    0    0
H -636.25756474 -38.69665389 -5.31601707     6    633    0    0    0
C -639.42014873 -36.53751272 -6.01664630     2    633   637   638   639
H -638.36018082 -34.93124091 -7.02953892     6    636    0    0    0
H -641.35362793 -36.99224303 -6.51498623     6    636    0    0    0
C -639.50353241 -35.45723856 -3.15584003     2    636   640   641   642
H -640.53446409 -36.83707932 -2.18089751     6    639    0    0    0
H -637.50519830 -35.13866052 -2.55712354     6    639    0    0    0
C -640.95621020 -32.86291266 -2.92134006     2    639   643   644   645
H -640.07879749 -31.38218396 -4.11592100     6    642    0    0    0
H -642.89713273 -33.07682912 -3.59812232     6    642    0    0    0
C -641.19128202 -31.83744442 -0.25909166     2    642   646   647   648
H -642.33342416 -33.21556294 0.96419024     6    645    0    0    0
H -639.37041919 -32.00165184 0.77233984     6    645    0    0    0
C -642.40978492 -29.30177416 -0.28877110     2    645   649   650   651
H -641.86725601 -28.18707734 -1.71475328     6    648    0    0    0
H -644.24111042 -29.74865047 -0.99391300     6    648    0    0    0
C -642.57540854 -27.95972150 2.31430673     2    648   652   653   654
H -643.28141797 -29.31722671 3.55125386     6    651    0    0    0
H -640.77259447 -27.39993337 3.08543262     6    651    0    0    0
C -644.13588076 -25.46777956 2.53662677     1    651   655   656   657
H -646.20513433 -25.83031416 2.33253103     6    654    0    0    0
H -643.71417509 -23.92511827 1.25546300     6    654    0    0    0
H -643.96628318 -24.72679819 4.43925990     6    654    0    0    0
H -652.79447917 -44.20705240 -25.89258712     6     659    0    0    0 
C -653.56769649 -42.44380321 -25.18373576     1     658    660    661    662
H -653.35390915 -41.21027113 -26.84955626     6     659    0    0    0
H -655.44004790 -42.54735259 -24.51682457     6     659    0    0    0
C -651.91782397 -41.30167056 -23.32416579     2     659    663    664    665
H -652.68623641 -39.66872901 -22.23770226     6     662    0    0    0
H -651.48999369 -42.66008970 -21.88851262     6     662    0    0    0
C -649.31650045 -40.44973672 -24.34542265     2     662    666   667   668
H -648.19382137 -40.44386131 -22.62372637     6     665    0    0    0
H -648.32371271 -41.75226532 -25.63507652     6     665    0    0    0
C -649.54571893 -37.73883600 -25.45236697     2     665   669   670   671
H -651.54473925 -37.51098978 -26.02769741     6    668    0    0    0
H -649.40776067 -36.07367813 -24.04474818     6    668    0    0    0
C -647.66184340 -37.43277257 -27.61929103     2    668   672   673   674
H -645.79712354 -37.64097049 -26.87763942     6    671    0    0    0
H -648.17388506 -39.00682683 -28.94911651     6    671    0    0    0
C -647.88406210 -34.91465884 -28.99265748     2    671   675   676   677
H -649.64628565 -34.67253219 -29.82280634     6    674    0    0    0
H -648.17340780 -33.45341952 -27.71880189     6    674    0    0    0
C -645.86229532 -34.18583882 -30.92830310     2    674   678   679   680
H -646.23591992 -32.28513274 -31.74184515     6    677    0    0    0
H -644.20923623 -33.91739829 -29.84027199     6    677    0    0    0
C -645.50071432 -35.98015678 -33.16364660     2    677   681   682   683
H -645.85110087 -37.81297511 -32.44863280     6    680    0    0    0
H -647.05929559 -35.61739565 -34.45120149     6    680    0    0    0
C -643.02692005 -35.62807285 -34.67530123     2    680   684   685   686
H -641.62964903 -36.16838154 -33.18995221     6    683    0    0    0
H -642.62003063 -36.91385295 -36.23408517     6    683    0    0    0
C -642.59027523 -33.00154809 -35.69755883     2    683   687   688   689
H -644.21981760 -32.13156916 -36.85306274     6    686    0    0    0
H -642.52457810 -31.45285878 -34.24618786     6    686    0    0    0
C -640.14098823 -32.82244802 -37.24900302     2    686   690   691   692
H -638.67933039 -34.22677253 -36.59149016     6    689    0    0    0
H -640.55697944 -33.25070728 -39.21737964     6    689    0    0    0
C -639.05165573 -30.20141849 -37.65639532     1    689   693   694   695
H -637.35312120 -30.35081831 -38.89657576     6    692    0    0    0
H -638.51462621 -29.23222624 -35.89797892     6    692    0    0    0
H -640.27441630 -29.04108859 -38.52638013     6    692    0    0    0
H -618.59481788 -36.12135030 -30.87261412     6     697    0    0    0 
C -616.78075097 -34.99312314 -30.83318018     1     696    698    699    700
H -616.35274253 -34.46158122 -32.77462582     6     697    0    0    0
H -617.16168730 -33.23623726 -29.92532743     6     697    0    0    0
C -614.62587934 -36.55316534 -29.58420513     2     697    701    702    703
H -612.99172514 -35.46328743 -29.79734116     6     700    0    0    0
H -615.16399664 -36.95164928 -27.54668500     6     700    0    0    0
C -613.97800577 -38.91184458 -31.04462302     2     700    704   705   706
H -612.85435489 -38.22733349 -32.64105925     6     703    0    0    0
H -612.51615991 -39.99162880 -30.10058499     6     703    0    0    0
C -616.30822550 -40.53763375 -31.97697344     2     703   707   708   709
H -617.74084229 -40.75259258 -30.43276774     6    706    0    0    0
H -617.05522612 -39.35770628 -33.56094843     6    706    0    0    0
C -615.55549064 -43.14721185 -32.96900927     2    706   710   711   712
H -614.18494907 -42.83728849 -34.53757691     6    709    0    0    0
H -614.24085687 -44.10306788 -31.78179915     6    709    0    0    0
C -617.72568130 -44.84717614 -33.79255500     2    709   713   714   715
H -619.51411990 -45.10095733 -32.50627900     6    712    0    0    0
H -618.62986163 -44.12365834 -35.55953645     6    712    0    0    0
C -616.60122599 -47.51399435 -34.15049796     2    712   716   717   718
H -615.07310020 -47.39726496 -35.48479836     6    715    0    0    0
H -616.02640900 -48.10434504 -32.37040249     6    715    0    0    0
C -618.67858981 -49.38994385 -35.20298918     2    715   719   720   721
H -620.54950602 -49.17811953 -34.27553410     6    718    0    0    0
H -619.12097871 -48.69898046 -37.11019178     6    718    0    0    0
C -617.87148336 -52.15532025 -35.51466869     2    718   722   723   724
H -615.94942920 -52.17858185 -36.45875561     6    721    0    0    0
H -617.44007151 -52.90010389 -33.70022934     6    721    0    0    0
C -619.93037808 -53.93736404 -36.55998543     2    721   725   726   727
H -621.57939189 -54.23025086 -35.33424181     6    724    0    0    0
H -620.71099894 -52.71445847 -37.97426784     6    724    0    0    0
C -619.05299856 -56.43808479 -37.41070054     2    724   728   729   730
H -618.13175930 -57.41757745 -35.82500821     6    727    0    0    0
H -620.69658840 -57.54737761 -37.96403097     6    727    0    0    0
C -617.15674516 -56.19629543 -39.52266820     1    727   731   732   733
H -617.14976839 -57.96334330 -40.56745335     6    730    0    0    0
H -615.14857682 -55.88313582 -39.06150358     6    730    0    0    0
H -617.94222141 -54.81374558 -40.95029527     6    730    0    0    0
H -653.88009194 -56.50161978 -45.80871143     6     735    0    0    0 
C -653.37631631 -58.37407413 -45.64445072     1     734    736    737    738
H -653.16412417 -59.19312525 -47.53068704     6     735    0    0    0
H -651.53527209 -58.60680966 -44.69672406     6     735    0    0    0
C -655.45482186 -59.82968646 -44.29841372     2     735    739    740    741
H -657.11508230 -59.41399044 -45.23715756     6     738    0    0    0
H -655.05437290 -61.87109457 -44.50739156     6     738    0    0    0
C -655.72110626 -59.31962941 -41.41254977     2     738    742   743   744
H -653.91482371 -59.72958106 -40.32804244     6     741    0    0    0
H -656.22214194 -57.42373850 -40.87307124     6     741    0    0    0
C -657.40046068 -61.49776730 -40.28563467     2     741   745   746   747
H -659.31773103 -61.24954875 -40.87988122     6    744    0    0    0
H -656.69074934 -63.26069347 -40.99142062     6    744    0    0    0
C -657.55887175 -61.31669225 -37.32078500     2    744   748   749   750
H -655.71422146 -61.12425365 -36.52408229     6    747    0    0    0
H -658.36533501 -59.54294620 -36.93842214     6    747    0    0    0
C -658.92672909 -63.60501574 -36.12136580     2    747   751   752   753
H -660.70379963 -63.81560591 -36.97651762     6    750    0    0    0
H -657.64010064 -65.16819387 -36.34784336     6    750    0    0    0
C -659.24370383 -63.32289712 -33.30509903     2    750   754   755   756
H -657.31456998 -63.28022509 -32.44002043     6    753    0    0    0
H -660.19861090 -61.70043289 -32.92269839     6    753    0    0    0
C -660.64738309 -65.67571311 -32.29312619     2    753   757   758   759
H -662.47974845 -65.78249293 -33.25254643     6    756    0    0    0
H -659.56534399 -67.27355075 -32.83608676     6    756    0    0    0
C -660.96347739 -65.50885596 -29.47647080     2    756   760   761   762
H -659.18817361 -65.06802749 -28.58115232     6    759    0    0    0
H -662.27755913 -63.97346248 -28.71943099     6    759    0    0    0
C -661.81420337 -68.08511434 -28.31872433     2    759   763   764   765
H -663.59334713 -68.63094957 -29.11499704     6    762    0    0    0
H -660.45870598 -69.45793782 -28.90789625     6    762    0    0    0
C -662.37747250 -68.00687702 -25.44671820     2    762   766   767   768
H -660.69640203 -67.34821033 -24.31473532     6    765    0    0    0
H -663.88690477 -66.54703234 -25.32617791     6    765    0    0    0
C -663.33213220 -70.54991285 -24.45179658     1    765   769   770   771
H -662.10239322 -71.46579880 -23.18313652     6    768    0    0    0
H -663.51286400 -71.77038328 -26.03643050     6    768    0    0    0
H -665.10604216 -70.49587270 -23.40239836     6    768    0    0    0
H -642.10704280 -43.94956609 0.39483579     6     773    0    0    0 
C -640.38842499 -42.88044381 1.03936414     1     772    774    775    776
H -639.97310482 -41.36742446 -0.23097407     6     773    0    0    0
H -640.92766379 -41.98128219 2.71255318     6     773    0    0    0
C -637.89700252 -44.64269620 1.13886696     2     773    777    778    779
H -636.37533406 -43.81264472 2.18291584     6     776    0    0    0
H -638.33035835 -46.26681318 2.36200705     6     776    0    0    0
C -637.18067537 -45.62292218 -1.50975193     2     776    780   781   782
H -638.82457660 -46.38622424 -2.34931080     6     779    0    0    0
H -636.59609554 -44.06837757 -2.70864373     6     779    0    0    0
C -635.23958617 -47.52488878 -1.35166726     2     779   783   784   785
H -633.75838546 -46.71275246 -0.20746943     6    782    0    0    0
H -635.88664408 -49.24591609 -0.30452920     6    782    0    0    0
C -634.18424947 -48.40763764 -3.94255949     2    782   786   787   788
H -635.62568718 -48.89798896 -5.34066558     6    785    0    0    0
H -633.23652538 -46.80759207 -4.98270762     6    785    0    0    0
C -632.32771328 -50.72493026 -3.94096596     2    785   789   790   791
H -630.50235837 -50.10651102 -3.06072884     6    788    0    0    0
H -633.00402957 -52.43023526 -2.86450091     6    788    0    0    0
C -631.12995497 -51.56687418 -6.52731999     2    788   792   793   794
H -632.64226571 -52.03021868 -7.70189865     6    791    0    0    0
H -630.37211060 -49.89867509 -7.41785243     6    791    0    0    0
C -629.11879999 -53.53666350 -6.40004342     2    791   795   796   797
H -627.50116810 -52.84247522 -5.47754501     6    794    0    0    0
H -629.97626750 -54.93320566 -5.27313335     6    794    0    0    0
C -628.44321529 -54.49821372 -9.00891650     2    794   798   799   800
H -629.93732322 -55.80038664 -9.76807008     6    797    0    0    0
H -628.32837148 -52.93211765 -10.32528620     6    797    0    0    0
C -626.04567940 -56.03267046 -9.07767697     2    797   801   802   803
H -624.60173103 -54.88502072 -8.25064314     6    800    0    0    0
H -626.42626192 -57.70897074 -7.86253287     6    800    0    0    0
C -625.19305089 -57.09841457 -11.62786264     2    800   804   805   806
H -626.68392755 -58.41227719 -12.14929005     6    803    0    0    0
H -625.23470421 -55.78696259 -13.04000715     6    803    0    0    0
C -622.68455978 -58.46188900 -11.71618774     1    803   807   808   809
H -622.41591231 -59.45528620 -13.46637740     6    806    0    0    0
H -622.60322843 -59.87158076 -10.20121041     6    806    0    0    0
H -621.28294299 -56.89969479 -11.51611209     6    806    0    0    0
H -658.43612941 -50.56655619 -26.34646329     6     811    0    0    0 
C -658.80590897 -49.11938916 -24.89857661     1     810    812    813    814
H -658.30054816 -47.19864086 -25.55422549     6     811    0    0    0
H -660.79190876 -49.47510221 -24.52284014     6     811    0    0    0
C -657.22718863 -49.83321679 -22.58106498     2     811    815    816    817
H -655.20501505 -50.00541813 -23.12674874     6     814    0    0    0
H -657.19655379 -48.31774102 -21.19371592     6     814    0    0    0
C -658.10970060 -52.18659059 -21.27866790     2     814    818   819   820
H -660.00558492 -51.75179844 -20.43803367     6     817    0    0    0
H -658.43632290 -53.86013237 -22.41314976     6     817    0    0    0
C -656.32861182 -52.80678648 -19.01910433     2     817   821   822   823
H -654.62778453 -53.49565278 -19.72510831     6    820    0    0    0
H -655.92876530 -51.14417028 -17.89295196     6    820    0    0    0
C -657.37017043 -54.73861021 -17.22299736     2    820   824   825   826
H -659.35874189 -54.54429359 -17.09793965     6    823    0    0    0
H -657.36322573 -56.64112654 -18.08964560     6    823    0    0    0
C -655.91712029 -54.79244054 -14.57034920     2    823   827   828   829
H -654.00641881 -55.29524391 -15.00231208     6    826    0    0    0
H -655.90158963 -53.00651988 -13.62780593     6    826    0    0    0
C -657.08763604 -56.73288776 -12.83408005     2    826   830   831   832
H -658.88411105 -56.04654109 -12.51844492     6    829    0    0    0
H -657.40146903 -58.44233947 -13.82527083     6    829    0    0    0
C -655.88098415 -57.44129487 -10.41415750     2    829   833   834   835
H -653.93388899 -57.90379427 -10.85837042     6    832    0    0    0
H -656.01605321 -55.69474289 -9.29265331     6    832    0    0    0
C -657.16166044 -59.56510753 -8.92281990     2    832   836   837   838
H -658.81614040 -58.87826836 -8.09819663     6    835    0    0    0
H -657.56990368 -61.36025901 -10.04905423     6    835    0    0    0
C -655.41152716 -60.48115340 -6.74652622     2    835   839   840   841
H -653.54352624 -61.26231587 -7.48357426     6    838    0    0    0
H -654.91632472 -58.96174636 -5.58619278     6    838    0    0    0
C -656.65363372 -62.69600212 -5.36100374     2    838   842   843   844
H -658.58982183 -62.39356454 -4.53920151     6    841    0    0    0
H -656.87127660 -64.22947814 -6.70177009     6    841    0    0    0
C -654.89619316 -63.53652040 -3.28207048     1    841   845   846   847
H -652.76879220 -63.75582942 -3.86120542     6    844    0    0    0
H -655.49224769 -65.37053833 -2.49165799     6    844    0    0    0
H -654.98874381 -62.19474455 -1.64645339     6    844    0    0    0
H -641.24918437 -17.02004974 -44.98398364     6     849    0    0    0 
C -640.86263430 -19.01439951 -45.28921144     1     848    850    851    852
H -642.19183517 -19.79826875 -46.56561280     6     849    0    0    0
H -639.09922322 -19.02090089 -46.40615659     6     849    0    0    0
C -640.82664397 -20.51566904 -42.93532996     2     849    853    854    855
H -642.50734876 -20.27049158 -42.03379067     6     852    0    0    0
H -640.57896351 -22.49642147 -43.53646287     6     852    0    0    0
C -638.30165361 -20.16169418 -41.40877572     2     852    856   857   858
H -636.71485140 -20.47857024 -42.57586599     6     855    0    0    0
H -638.40401873 -18.26829179 -40.65061064     6     855    0    0    0
C -638.08323371 -21.93678729 -39.26060592     2     855   859   860   861
H -638.44098833 -23.89003367 -39.50625765     6    858    0    0    0
H -636.36827284 -21.66976184 -38.31183111     6    858    0    0    0
C -640.22295809 -21.61062776 -37.40264699     2    858   862   863   864
H -640.48005641 -19.66025190 -36.79078760     6    861    0    0    0
H -642.09297964 -22.01760469 -38.06332650     6    861    0    0    0
C -639.81336891 -23.55059312 -35.24269394     2    861   865   866   867
H -639.98383204 -25.44290979 -35.73587452     6    864    0    0    0
H -637.84037608 -23.42484673 -34.63959177     6    864    0    0    0
C -641.62299194 -23.16077227 -32.89531786     2    864   868   869   870
H -641.32745533 -21.32924418 -32.20051893     6    867    0    0    0
H -643.62914005 -23.34294619 -33.48907643     6    867    0    0    0
C -641.14657074 -25.24442688 -31.03628848     2    867   871   872   873
H -640.65349018 -27.05597062 -31.98873370     6    870    0    0    0
H -639.49293947 -24.84066247 -29.95158950     6    870    0    0    0
C -643.32780804 -25.48913715 -29.10537161     2    870   874   875   876
H -642.76403329 -26.85726889 -27.68450006     6    873    0    0    0
H -643.84953068 -23.86169800 -27.97278461     6    873    0    0    0
C -645.84490382 -26.22602869 -30.22778437     2    873   877   878   879
H -646.59486022 -24.61670412 -31.35101480     6    876    0    0    0
H -645.55562470 -27.82119448 -31.43583684     6    876    0    0    0
C -647.83554904 -27.19995165 -28.27488115     2    876   880   881   882
H -647.07355798 -28.90159401 -27.21004614     6    879    0    0    0
H -648.11367068 -25.74487186 -26.75968134     6    879    0    0    0
C -650.37571477 -27.48545384 -29.58498950     1    879   883   884   885
H -650.58128168 -29.48909359 -30.22954131     6    882    0    0    0
H -650.52179000 -26.13079546 -31.12709427     6    882    0    0    0
H -651.91325138 -27.00783239 -28.28063711     6    882    0    0    0
H -651.64389614 -51.16756312 -15.73323265     6     887    0    0    0 
C -650.46288440 -49.74442219 -15.09657390     1     886    888    889    890
H -651.29823405 -48.02978913 -14.43679431     6     887    0    0    0
H -649.72310349 -50.58557584 -13.29954096     6     887    0    0    0
C -648.45887380 -49.40523638 -17.16592402     2     887    891    892    893
H -647.28420200 -47.78429217 -16.69573640     6     890    0    0    0
H -647.25418114 -51.04884013 -17.49380913     6     890    0    0    0
C -649.76623615 -48.84916273 -19.71008245     2     890    894   895   896
H -650.84368468 -50.58792917 -20.13530338     6     893    0    0    0
H -651.02518061 -47.26392297 -19.45430951     6     893    0    0    0
C -647.59048744 -48.29115576 -21.64395143     2     893   897   898   899
H -646.72247374 -46.58880295 -20.98380304     6    896    0    0    0
H -646.39962932 -49.95970363 -21.49339519     6    896    0    0    0
C -648.63911319 -48.11240180 -24.44629240     2    896   900   901   902
H -649.48747954 -49.87405767 -24.97295700     6    899    0    0    0
H -650.25108775 -46.74615675 -24.53037629     6    899    0    0    0
C -646.42599398 -47.45949651 -26.23607258     2    899   903   904   905
H -645.80182211 -45.63894421 -25.62088598     6    902    0    0    0
H -644.88907645 -49.00755860 -25.98878226     6    902    0    0    0
C -647.00808849 -47.31897066 -29.06978477     2    902   906   907   908
H -647.61106914 -49.24672362 -29.61517996     6    905    0    0    0
H -648.66052340 -46.15557042 -29.12773600     6    905    0    0    0
C -644.87150729 -46.16653682 -30.53937647     2    905   909   910   911
H -643.75115417 -44.66610637 -29.63947418     6    908    0    0    0
H -643.55539573 -47.76845751 -30.80542845     6    908    0    0    0
C -645.97665695 -45.19922765 -33.07042580     2    908   912   913   914
H -647.24039242 -46.63427811 -33.83101517     6    911    0    0    0
H -647.02100223 -43.60932047 -32.45364196     6    911    0    0    0
C -643.97930347 -44.60443476 -35.19492764     2    911   915   916   917
H -642.33889275 -43.49853165 -34.57020815     6    914    0    0    0
H -643.16278563 -46.37012551 -36.07023791     6    914    0    0    0
C -645.24888386 -42.95015477 -37.15105586     2    914   918   919   920
H -647.12750588 -43.90023419 -37.73158509     6    917    0    0    0
H -645.72886479 -41.32229363 -36.15343646     6    917    0    0    0
C -643.27381770 -42.66097072 -39.24679692     1    917   921   922   923
H -642.44642099 -44.43575345 -40.13376750     6    920    0    0    0
H -641.62978762 -41.36484821 -38.77777237     6    920    0    0    0
H -644.12395887 -41.39151160 -40.65940009     6    920    0    0    0
H -644.32074482 -29.92999966 -16.36749697     6     925    0    0    0 
C -645.91101584 -28.77453127 -15.65708445     1     924    926    927    928
H -645.92613353 -28.53815892 -13.71687706     6     925    0    0    0
H -645.82541134 -26.89853613 -16.71034165     6     925    0    0    0
C -648.46605814 -30.02694004 -16.39379896     2     925    929    930    931
H -648.23005159 -32.10415050 -16.26827258     6     928    0    0    0
H -650.13393829 -29.18447908 -15.36137204     6     928    0    0    0
C -649.09341454 -29.81004438 -19.21116259     2     928    932   933   934
H -649.42812835 -27.81374691 -19.67259197     6     931    0    0    0
H -647.74441887 -30.80921094 -20.33581054     6     931    0    0    0
C -651.52477124 -31.33387517 -19.70912372     2     931   935   936   937
H -651.18142841 -33.49810993 -19.38354893     6    934    0    0    0
H -653.06700553 -30.72706756 -18.43440732     6    934    0    0    0
C -652.75921895 -31.05039609 -22.26159358     2    934   938   939   940
H -653.09665005 -29.07771031 -22.87961449     6    937    0    0    0
H -651.37589078 -31.78784192 -23.55602724     6    937    0    0    0
C -654.99746284 -32.85497981 -22.51164719     2    937   941   942   943
H -653.98818343 -34.48717408 -21.90996023     6    940    0    0    0
H -656.34088825 -32.64881667 -21.07165048     6    940    0    0    0
C -656.03356936 -33.05326812 -25.29891649     2    940   944   945   946
H -654.36396495 -33.06511844 -26.46759322     6    943    0    0    0
H -656.86867003 -34.98296316 -25.74703887     6    943    0    0    0
C -657.93345007 -30.91973138 -25.86902541     2    943   947   948   949
H -658.98293120 -30.19267109 -24.31166544     6    946    0    0    0
H -656.86308276 -29.34901951 -26.68165486     6    946    0    0    0
C -660.17959928 -31.40575671 -27.60336784     2    946   950   951   952
H -659.60532545 -32.39676449 -29.33510136     6    949    0    0    0
H -661.52377949 -32.78596115 -26.81827814     6    949    0    0    0
C -661.21054698 -28.91028989 -28.47038965     2    949   953   954   955
H -661.88802791 -27.97721120 -26.68585085     6    952    0    0    0
H -659.52917673 -27.91731469 -29.12104459     6    952    0    0    0
C -663.51144271 -29.22726795 -30.32405964     2    952   956   957   958
H -663.22002152 -29.70206359 -32.37169694     6    955    0    0    0
H -664.92398991 -30.67679136 -29.78558293     6    955    0    0    0
C -664.88214062 -26.77109396 -30.37389597     1    955   959   960   961
H -666.42788762 -26.91189022 -31.65349931     6    958    0    0    0
H -663.61271758 -25.28388466 -31.16330469     6    958    0    0    0
H -665.44281870 -26.21573595 -28.38672737     6    958    0    0    0
H -645.68250667 -61.76499761 -26.65733258     6     963    0    0    0 
C -645.01362002 -62.72106990 -24.92544964     1     962    964    965    966
H -643.62946508 -61.65143098 -23.98590717     6     963    0    0    0
H -646.48056645 -63.05719280 -23.54874891     6     963    0    0    0
C -643.55082744 -65.03176504 -25.92550857     2     963    967    968    969
H -642.76902316 -65.96192847 -24.17018809     6     966    0    0    0
H -644.80308154 -66.44724194 -26.76241803     6     966    0    0    0
C -641.46777636 -64.28854279 -27.80579110     2     966    970   971   972
H -642.36789620 -63.66966579 -29.53699962     6     969    0    0    0
H -640.46335972 -62.76556594 -26.95721376     6     969    0    0    0
C -639.53016753 -66.45965372 -28.30516332     2     969   973   974   975
H -638.48859449 -66.83305505 -26.52914421     6    972    0    0    0
H -640.28249882 -68.27052799 -28.62182388     6    972    0    0    0
C -637.58243307 -65.63427560 -30.28743940     2    972   976   977   978
H -638.44565971 -65.36781393 -32.19319228     6    975    0    0    0
H -637.19408510 -63.80324095 -29.66145691     6    975    0    0    0
C -635.47163922 -67.59732255 -30.56729540     2    975   979   980   981
H -634.30542619 -67.90897378 -28.85921576     6    978    0    0    0
H -635.88099236 -69.29843761 -31.42789816     6    978    0    0    0
C -633.37572719 -66.62121577 -32.45940150     2    978   982   983   984
H -634.11069100 -66.13587618 -34.21943524     6    981    0    0    0
H -632.69005037 -64.92553633 -31.55702779     6    981    0    0    0
C -631.42495302 -68.79149998 -33.06442552     2    981   985   986   987
H -630.72404742 -69.79919342 -31.43218322     6    984    0    0    0
H -632.44269457 -70.35425580 -33.97182376     6    984    0    0    0
C -629.15643923 -67.89339457 -34.69166925     2    984   988   989   990
H -628.54052886 -69.65074893 -35.60356567     6    987    0    0    0
H -629.48408554 -66.83198738 -36.38874704     6    987    0    0    0
C -626.80523993 -66.74301940 -33.24209256     2    987   991   992   993
H -626.96289305 -64.64536408 -32.80791349     6    990    0    0    0
H -626.92736266 -67.37931024 -31.33070082     6    990    0    0    0
C -624.10040686 -67.25861278 -34.27339913     2    990   994   995   996
H -623.85678059 -69.26011101 -34.77950542     6    993    0    0    0
H -623.76483232 -65.96187001 -35.86895133     6    993    0    0    0
C -621.88774032 -66.57581079 -32.49157793     1    993   997   998   999
H -622.15378946 -64.60155216 -31.83272898     6    996    0    0    0
H -619.91399022 -66.79156437 -33.29877597     6    996    0    0    0
H -622.03423401 -67.73173427 -30.83673861     6    996    0    0    0
H -651.97124765 -70.11306714 -22.92234823     6     1001    0    0    0 
C -651.65126572 -71.39823291 -24.39805320     1     1000    1002    1003    1004
H -651.10721271 -73.02201366 -23.36540906     6     1001    0    0    0
H -653.47412392 -71.75783631 -25.34050242     6     1001    0    0    0
C -649.57276537 -70.65283227 -26.18744146     2     1001    1005    1006    1007
H -649.93628690 -68.82473633 -27.23733001     6     1004    0    0    0
H -647.88139305 -70.40542784 -25.07276254     6     1004    0    0    0
C -649.09384054 -72.71143349 -28.33968301     2     1004    1008   1009   1010
H -648.74982913 -74.62982979 -27.78308116     6     1007    0    0    0
H -650.81993713 -72.73342754 -29.49340868     6     1007    0    0    0
C -646.89413885 -71.71549294 -30.08521295     2     1007   1011   1012   1013
H -647.06446784 -69.66663625 -30.24410866     6    1010    0    0    0
H -645.15764469 -71.99994794 -29.01614388     6    1010    0    0    0
C -646.63693134 -73.02286029 -32.64414577     2    1010   1014   1015   1016
H -646.75191283 -75.11404921 -32.46478942     6    1013    0    0    0
H -648.14325029 -72.69757538 -34.11834228     6    1013    0    0    0
C -644.21494070 -72.44207761 -34.14695337     2    1013   1017   1018   1019
H -644.14454185 -70.43016095 -34.18743143     6    1016    0    0    0
H -642.41102510 -72.91084687 -33.11998790     6    1016    0    0    0
C -644.27284315 -73.66239144 -36.89304448     2    1016   1020   1021   1022
H -644.60893287 -75.69880886 -36.87164469     6    1019    0    0    0
H -645.84955494 -72.88175630 -37.95472318     6    1019    0    0    0
C -641.84408671 -72.89572254 -38.34350789     2    1019   1023   1024   1025
H -640.28762422 -74.09601734 -37.66073861     6    1022    0    0    0
H -642.29041134 -73.35453690 -40.21981962     6    1022    0    0    0
C -640.98965214 -70.15752016 -38.12566516     2    1022   1026   1027   1028
H -642.70662335 -69.03968911 -38.53043112     6    1025    0    0    0
H -640.61444099 -69.89948512 -36.17276314     6    1025    0    0    0
C -638.54950406 -69.34121849 -39.51225275     2    1025   1029   1030   1031
H -637.12973527 -70.79063692 -39.23446899     6    1028    0    0    0
H -638.83817475 -69.39297932 -41.53822086     6    1028    0    0    0
C -637.31603558 -66.93670867 -38.77257124     2    1028   1032   1033   1034
H -636.77819333 -67.00739731 -36.85847204     6    1031    0    0    0
H -635.45446447 -66.72527419 -39.69068629     6    1031    0    0    0
C -639.08069938 -64.67710876 -39.11299698     1    1031   1035   1036   1037
H -637.83919288 -63.01649219 -39.02351907     6    1034    0    0    0
H -640.53448192 -64.38637510 -37.59421550     6    1034    0    0    0
H -639.97086516 -64.65872697 -40.96943901     6    1034    0    0    0
H -639.27883703 -52.50433909 -5.82408705     6     1039    0    0    0 
C -640.87552766 -53.18905781 -4.86546449     1     1038    1040    1041    1042
H -642.41985761 -53.69544899 -6.29014987     6     1039    0    0    0
H -640.25520804 -54.94723915 -3.96502797     6     1039    0    0    0
C -641.57793620 -50.97550088 -3.04210370     2     1039    1043    1044    1045
H -640.16625867 -51.34983498 -1.52181963     6     1042    0    0    0
[...]
 1803      H    -630.9968956300   -26.8516059200   -13.4526559600
 1804      H    -632.0325957100   -28.6482233600   -10.8743651900
 1805      C    -634.4942823800   -25.7036923200   -12.2191051700
 1806      H    -635.3812718100   -25.0935063900   -10.5955997500
 1807      H    -634.4242781200   -23.9598060700   -13.2935019800
 1808      C    -636.0373475100   -27.3213481500   -14.0001205000
 1809      H    -637.6204536500   -26.1709755300   -14.8178360300
 1810      H    -635.0333619000   -28.0915174300   -15.6335442300
 1811      C    -637.2094444600   -29.6421222800   -12.6641757900
 1812      H    -635.6796402200   -30.8668683800   -12.2167384900
 1813      H    -638.2161563500   -29.2438030200   -10.8788177400
 1814      C    -639.0022078200   -31.0874454200   -14.3742312900
 1815      H    -640.8011254300   -30.0745505700   -14.5824900600
 1816      H    -638.3716692900   -31.1337625200   -16.4259261300
 1817      C    -639.5020960000   -33.7507136500   -13.2295424800
 1818      H    -637.6357523300   -34.6018092700   -13.1407013300
 1819      H    -640.4627824400   -33.4681036200   -11.4142449500
 1820      C    -641.1338588100   -35.3691362700   -14.8930498400
 1821      H    -642.8190644100   -34.1715082600   -15.2107073100
 1822      H    -640.2496861300   -35.6379547900   -16.7822407900
 1823      C    -642.1740991000   -37.9922394500   -13.9120910600
 1824      H    -640.6236772800   -39.4113773400   -13.8269756100
 1825      H    -642.7411123700   -37.5759327200   -12.0790804600
 1826      C    -644.6651794300   -38.8520665700   -15.4090373000
 1827      H    -646.2147069300   -37.6064479300   -14.7557352800
 1828      H    -644.2699287300   -38.4108282000   -17.4155499200
 1829      C    -645.1369779000   -41.6213251200   -15.0977486900
 1830      H    -643.5818663000   -42.8159494100   -15.4797488600
 1831      H    -645.1988244200   -41.8454343800   -13.0685911300
 1832      C    -647.5029069400   -42.6593487900   -16.4237946600
 1833      H    -648.3167423200   -44.0948098100   -15.5075256900
 1834      H    -646.8034549900   -43.2831158000   -18.2985702500
 1835      H    -648.9172610100   -41.0514339800   -16.6127228800
 1836      H    -642.6055650900   -41.9298233000   -26.6256491100
 1837      C    -640.7738516500   -41.2535059900   -25.9035983000
 1838      H    -640.5231319100   -42.3892493600   -24.2087243700
 1839      H    -639.3265550800   -41.8076624900   -27.3847191800
 1840      C    -640.9597258700   -38.4187735200   -25.1654496600
 1841      H    -639.0347282700   -37.6960057300   -25.0684387700
 1842      H    -641.5847075000   -37.3135807800   -26.7978865000
 1843      C    -642.4056758500   -37.9811695200   -22.6815962100
 1844      H    -644.2975285600   -38.9840874600   -22.4861394300
 1845      H    -641.2700318400   -38.6835391300   -21.1157992300
 1846      C    -643.1706380300   -35.1703969400   -22.2295400100
 1847      H    -644.6512839500   -34.6753929900   -23.6938831600
 1848      H    -643.8227208700   -34.9668187600   -20.2562970600
 1849      C    -640.9825019900   -33.2283828800   -22.3241558600
 1850      H    -639.6607620500   -33.5223264800   -21.0836414000
 1851      H    -640.1038822600   -33.2273665200   -24.1298693200
 1852      C    -642.0421213800   -30.6299723200   -21.9048344700
 1853      H    -643.5955335400   -30.4524984800   -23.2242483400
 1854      H    -642.8543041300   -30.8809183300   -19.9827176900
 1855      C    -640.0456684400   -28.6097914600   -22.1062470200
 1856      H    -639.0102691400   -28.7654254700   -20.3687555500
 1857      H    -638.9920714800   -29.3591615100   -23.7403375000
 1858      C    -641.1963621900   -25.8838893600   -22.1611120000
 1859      H    -642.7301230900   -25.7198903900   -23.4476188200
 1860      H    -642.1491688100   -25.3059502000   -20.3653350100
 1861      C    -639.2152307100   -24.0809990100   -23.1134995900
 1862      H    -637.6216452600   -23.8852899700   -21.7867937000
 1863      H    -638.4950424700   -24.6001164800   -24.8675678600
 1864      C    -640.4317171400   -21.3194255300   -23.3613014600
 1865      H    -642.1016536700   -21.2765412000   -24.4144429700
 1866      H    -641.0530253500   -20.5609834800   -21.5727002600
 1867      C    -638.4992260900   -19.4498771100   -24.4934167400
 1868      H    -636.5016384500   -19.6742087500   -23.7820464200
 1869      H    -638.4502096800   -19.7807415200   -26.5963637100
 1870      C    -639.7064724200   -16.8579088500   -24.1807014700
 1871      H    -638.7043737100   -15.3378694100   -25.2041366300
 1872      H    -639.6829296500   -16.5107226000   -22.0952192300
 1873      H    -641.6559368700   -16.8051462700   -24.9242181900
 1874      H    -621.6066037200   -42.5329316800   -24.3741818300
 1875      C    -620.7870767200   -43.2014232000   -26.2427476500
 1876      H    -621.2457294900   -41.8033992000   -27.6422972600
 1877      H    -618.7841641700   -43.4851190300   -26.1597011600
 1878      C    -622.0641118600   -45.7707677900   -27.0063078000
 1879      H    -624.0908967600   -45.3583941500   -27.2510028200
 1880      H    -621.5677082100   -46.3207883800   -28.9172364700
 1881      C    -621.5556864900   -47.9377798800   -25.1762593700
 1882      H    -619.6363227200   -48.5123909500   -25.5999395200
 1883      H    -621.3522421900   -47.3003711400   -23.1110405200
 1884      C    -623.5562372800   -50.0346554900   -25.3801335700
 1885      H    -624.2369190100   -50.2285642300   -23.5252578000
 1886      H    -624.9662322500   -49.2512343200   -26.6625118900
 1887      C    -622.7049829700   -52.6660712100   -26.1738984900
 1888      H    -621.3771291200   -52.6634919400   -27.6312976500
 1889      H    -621.5531010300   -53.2522986900   -24.6135885200
 1890      C    -624.8396712600   -54.4802839600   -26.7729935700
 1891      H    -625.9398075500   -53.7123572000   -28.4259161600
 1892      H    -624.1331031300   -56.3817585100   -27.3652166800
 1893      C    -626.5360552700   -55.1626667300   -24.5450827400
 1894      H    -625.3592101700   -55.6012551600   -22.9983970300
 1895      H    -627.5571900800   -53.5305752800   -24.0341420600
 1896      C    -628.2894669800   -57.2611868700   -25.1853374600
 1897      H    -629.0171426800   -57.1298371300   -27.2630617800
 1898      H    -627.3087963200   -58.9610929000   -25.3479145400
 1899      C    -630.5093239800   -57.6043415700   -23.4338615900
 1900      H    -629.8298376300   -58.2834129500   -21.5984336300
 1901      H    -631.6633447300   -55.8781828600   -23.3811658000
 1902      C    -632.3322677800   -59.6412939800   -24.3139414400
 1903      H    -633.4430710700   -58.8300550700   -25.9744757400
 1904      H    -631.1132435300   -61.0620785300   -25.1502891700
 1905      C    -634.0525532300   -60.6934313500   -22.2994983700
 1906      H    -632.8688437600   -61.7724469400   -20.9926731800
 1907      H    -635.0226091500   -59.2737898300   -21.2488359200
 1908      C    -635.9690305000   -62.7468277700   -23.1017682800
 1909      H    -636.9813670900   -63.6423506200   -21.5201909100
 1910      H    -635.0650876700   -63.9837721200   -24.6362447400
 1911      H    -637.6023327100   -61.9163489100   -23.9276679500
 ----------------------------------------------------------------
 Nuclear Repulsion Energy =           0.00000000 hartrees
 There are     2498 alpha and     2498 beta electrons

 Total QAlloc Memory Limit   2000 MB
 Mega-Array Size       204 MB
 MEM_STATIC part       192 MB
   **** Step 1: MM calculation on the entire system **** 
 OPLSAA force field loaded.
Reading user-defined FF parameters...
 Reading user defined atom types.
 Found 3 user defined AtomTypes
finished.
Determining angles, torsions, etc. from user defined input
Determining VDW/Coulomb pairs... (useList = 0)

 Time req'd to get MM system information: 0.2 s (CPU) 0.4 s (wall)

 ------ MM Energies ------
   Ebond:           561.488584538427
   Eangle:          858.039549262712
   EUreyBrad:         0.000000000000
   Eimptors:          0.000000000000
   Etorsion:        225.403669904586
   Evdw:        1031049.734597019269
   Ecoulomb:        185.603672184909
   Etot:        1032880.270072909887 Kcal/mol (   1645.999491333430 hartree)
 -------------------------
 Time req'd to calc MM energy: 0.1 s (CPU) 0.1 s (wall)
 OPLSAA force field loaded.
Reading user-defined FF parameters...
 Reading user defined atom types.
 Found 3 user defined AtomTypes
finished.
 Time req'd to get MM system information: 0.0 s (CPU) 0.0 s (wall)
 Time req'd to calc MM gradient: 0.2 s (CPU) 0.2 s (wall)
   **** Step 2: MM calculation on the model system **** 
 Reading user defined atom types.
 Found 3 user defined AtomTypes
 ----------------------------------------------------------------
             Standard Nuclear Orientation (Bohr)
    I     Atom           X                Y                Z
 ----------------------------------------------------------------
    1      Fe   -633.3435539800   -48.1504919500   -27.8325746200
    2      C    -633.6454388900   -51.5144877100   -27.8871755100
    3      C    -631.7286982000   -45.0685440000   -28.0583147100
    4      C    -633.4342714200   -48.2894341100   -31.2649022500
    5      C    -636.5518828000   -47.4608868800   -27.1628491600
    6      C    -631.7066042400   -48.4155556400   -24.8519171300
    7      O    -633.9859308500   -53.6813978400   -27.8194906400
    8      O    -631.0238716200   -43.0009309600   -27.7412533200
    9      O    -633.2562397300   -48.3737363300   -33.4564266100
   10      O    -638.8027894500   -47.3900447600   -26.9831094300
   11      O    -630.2932988700   -48.5255846100   -23.1385786800
 ----------------------------------------------------------------
 Nuclear Repulsion Energy =         800.43001004 hartrees
 There are       48 alpha and       48 beta electrons
 OPLSAA force field loaded.
Reading user-defined FF parameters...
 Reading user defined atom types.
 Found 3 user defined AtomTypes
finished.
Determining VDW/Coulomb pairs... (useList = 0)

 No MM bonds in system. Return all possible pairs.
 Time req'd to get MM system information: 0.0 s (CPU) 0.0 s (wall)

 ------ MM Energies ------
   Ebond:             0.000000000000
   Eangle:            0.000000000000
   EUreyBrad:         0.000000000000
   Eimptors:          0.000000000000
   Etorsion:          0.000000000000
   Evdw:        1031478.831223845016
   Ecoulomb:         -6.434978754579
   Etot:        1031472.396245090407 Kcal/mol (   1643.755901566449 hartree)
 -------------------------
 Eold: 1645.9994913 mm_energy: 1643.7559016 Enew:    2.2435898
 Time req'd to calc MM energy: 0.0 s (CPU) 0.0 s (wall)
 OPLSAA force field loaded.
Reading user-defined FF parameters...
 Reading user defined atom types.
 Found 3 user defined AtomTypes
finished.
Determining VDW/Coulomb pairs... (useList = 0)

 No MM bonds in system. Return all possible pairs.
 Time req'd to get MM system information: 0.0 s (CPU) 0.0 s (wall)
 Number of fixed atoms: 0
 Time req'd to calc MM gradient: 0.0 s (CPU) 0.0 s (wall)
   **** Step 3: QM calculation on the model system **** 
 Requested basis set is def2-mSVP
 There are 80 shells and 174 basis functions

                       Distance Matrix (Bohrs)
             Fe(  1)   C (  2)   C (  3)   C (  4)   C (  5)   C (  6)
   C (  2)  3.377955
   C (  3)  3.486706  6.727063
   C (  4)  3.436336  4.674890  4.854412
   C (  5)  3.349248  5.040213  5.457863  5.218508
   C (  6)  3.410892  4.751342  4.635079  6.642825  5.452387
   O (  7)  5.568100  2.194542  8.906929  6.422497  6.760920  6.459947
   O (  8)  5.648650  8.909240  2.207336  6.796646  7.126336  6.175156
   O (  9)  5.628958  6.405650  6.511320  2.200359  7.162658  8.743037
   O ( 10)  5.577017  6.665330  7.522513  6.925578  2.259183  7.479940
   O ( 11)  5.610557  6.536020  6.181853  8.715424  7.516529  2.223751
             O (  7)   O (  8)   O (  9)   O ( 10)
   O (  8) 11.083875
   O (  9)  7.776810  8.155594
   O ( 10)  7.967608  8.963853  8.581125
   O ( 11)  7.882187  7.227735 10.735924  9.406450

 A cutoff of  1.0D-11 yielded   2486 shell pairs
 There are     12804 function pairs (     14664 Cartesian)
 Smallest overlap matrix eigenvalue = 2.26E-03
 Guess MOs from SCF MO coefficient file
 Reading MOs from coefficient file
 Reading MOs from coefficient file
 A restricted Kohn-Sham SCF calculation will be
 performed using Pulay DIIS extrapolation
 Exchange:  B88      Correlation:  P86
 Using SG-1 standard quadrature grid
 SCF converges when DIIS error is below 1.0E-08
 Using Q-Chem read-in guess as SCF_GUESS READ specified.

 using 2 threads for integral computing
 -------------------------------------------------------
 OpenMP Integral computing Module                
 Release: version 1.0, May 2013, Q-Chem Inc. Pittsburgh 
 -------------------------------------------------------
 ---------------------------------------
  Cycle       Energy         DIIS Error
 ---------------------------------------
    1   -1830.5165592758      1.55E-09
    2   -1830.5165592759      1.31E-08
    3   -1830.5165592764      3.05E-09 Convergence criterion met
 ---------------------------------------
 SCF time:  CPU 3.85 s  wall 2.02 s
 E(QM + QM/MM):    -1830.5165592764 E(MM):    2.2435898 E(Tot): -1828.272969509403 
 SCF   energy in the final basis set = -1828.27296951
 Total energy in the final basis set = -1828.27296951

 --------------------------------------------------------------

                    Orbital Energies (a.u.)
 --------------------------------------------------------------

 Alpha MOs
 -- Occupied --
******** -29.6394 -25.5961 -25.5929 -25.5795 -18.8875 -18.8873 -18.8836
-18.8815 -18.8663 -10.0559 -10.0546 -10.0539 -10.0503 -10.0377  -3.3239
 -2.1535  -2.1479  -2.1207  -1.0596  -1.0567  -1.0562  -1.0491  -1.0224
 -0.5769  -0.5285  -0.5242  -0.5182  -0.5129  -0.4574  -0.4482  -0.4400
 -0.4353  -0.4332  -0.4296  -0.4261  -0.4222  -0.4108  -0.4086  -0.4049
 -0.3983  -0.3962  -0.3876  -0.3854  -0.2863  -0.2600  -0.2554  -0.2145
 -- Virtual --
 -0.1061  -0.1001  -0.0913  -0.0825  -0.0778  -0.0682  -0.0677  -0.0596
 -0.0547  -0.0427  -0.0202   0.0135   0.1905   0.2028   0.2211   0.2419
  0.2844   0.3271   0.3701   0.3956   0.4086   0.4209   0.4326   0.4349
  0.4527   0.4687   0.4829   0.5087   0.5273   0.5342   0.5657   0.5825
  0.6171   0.6287   0.6390   0.6503   0.7450   0.7539   0.7596   0.7705
  0.7875   0.8227   0.8385   0.8735   0.8791   0.9084   0.9316   0.9539
  0.9640   0.9780   0.9828   1.0007   1.0329   1.0536   1.0672   1.0862
  1.1198   1.1590   1.1891   1.3628   1.3927   1.4050   1.4089   1.4118
  1.4197   1.4286   1.4310   1.4387   1.4414   1.4659   1.4704   1.4850
  1.5190   1.5280   1.5432   1.5687   1.5784   1.6575   1.6709   1.6823
  1.6903   1.8100   1.8285   1.8305   1.8395   1.8419   1.8482   1.8559
  1.8600   1.8675   1.8693   1.8725   1.8890   1.9088   1.9165   1.9571
  2.3697   2.3839   2.3974   2.4393   2.4478   2.4531   2.4787   2.4981
  2.5062   2.5215   2.6088   2.6370   2.6428   2.6684   2.6741   2.8148
  2.8288   2.8457   2.8529   2.9754  13.2684  13.2834  13.3040  13.3675
 13.3704  24.8993  24.9232  24.9489  24.9609  25.0176
 --------------------------------------------------------------

          Ground-State Mulliken Net Atomic Charges

     Atom                 Charge (a.u.)
  ----------------------------------------
      1 Fe                   -0.550571
      2 C                     0.215152
      3 C                     0.215561
      4 C                     0.229042
      5 C                     0.274468
      6 C                     0.212749
      7 O                    -0.111511
      8 O                    -0.106896
      9 O                    -0.108421
     10 O                    -0.148938
     11 O                    -0.120635
  ----------------------------------------
  Sum of atomic charges =     0.000000

 -----------------------------------------------------------------
                    Cartesian Multipole Moments
 -----------------------------------------------------------------
    Charge (ESU x 10^10)
                -0.0000
    Dipole Moment (Debye)
         X       0.3983736327      Y       0.0575675832      Z      -0.2495746871
       Tot       0.4736064847
    Quadrupole Moments (Debye-Ang)
        XX    -338.1794     XY     -29.5166     YY     -72.4793
        XZ      77.4268     YZ       5.1152     ZZ     -61.3742
    Octopole Moments (Debye-Ang^2)
       XXX  205800.1221    XXY   15129.6600    XYY   24554.7829
       YYY    5432.4551    XXZ  -22823.0081    XYZ   -1554.8882
       YYZ     924.6260    XZZ   20664.2673    YZZ    1589.2218
       ZZZ    2878.7967
    Hexadecapole Moments (Debye-Ang^3)
      XXXX ************   XXXY ************   XXYY ************
      XYYY ************   YYYY -275952.0035   XXXZ 6251489.8581
      XXYZ  441134.3204   XYYZ -314010.1669   YYYZ  -76577.8659
      XXZZ ************   XYZZ -535071.6600   YYZZ  -56429.8253
      XZZZ -966302.4867   YZZZ  -73850.0156   ZZZZ  -87289.4535
 -----------------------------------------------------------------
 Calculating MO derivatives via CPSCF
 Full subspace dimension requested for CIS/TDDFT
 MAX_CIS_SUBSPACE fits in available memory
    1     0    36    0.0399214  
    2     0    36    0.0059165  
    3     0    36    0.0006395  
    4     1    35    0.0000509  
    5    33     3    0.0000018  
    6    36     0    0.0000000  Converged
 Time for AOints: 6.6 s (CPU) 3.4 s (wall)
 ------------------------------------------------------------------------------
                     AOints        : Timing summary (seconds)
 ------------------------------------------------------------------------------
     job step          cpu (% of tot)      sys (% of tot)     wall (% of tot)
 ------------------------------------------------------------------------------
  AOints            0.6625E+01 ( 3.6)   0.1200E-04 (10.6)   0.3373E+01 ( 3.7)
 ------------------------------------------------------------------------------
   Grand Totals     0.1816E+03          0.1130E-03          0.9155E+02
 ------------------------------------------------------------------------------
 Polarizability Matrix (a.u.)
            1           2           3
    1 -84.7409156  -9.6509956  -8.7682182
    2  -9.6509956 -97.0299805  -0.0023050
    3  -8.7682182  -0.0023050 -94.4687496
 Derivative of Dipole Moment Matrix (a.u.)
            1           2           3
    1  -1.7911404  -0.0913708  -0.0631946
    2  -0.0391771  -1.8559216  -0.0018236
    3  -0.0583421   0.0629890  -1.8487181
    4   0.4276821   0.3202979  -0.0193072
    5   0.1620730   2.2872928  -0.0061573
    6  -0.0291909  -0.0544062   0.3708020
    7   0.7320008   0.5684639  -0.0463848
    8   0.8065364   1.9750206  -0.0209989
    9   0.0372108   0.1571809   0.3347171
   10   0.4105771   0.0226850  -0.0456553
   11  -0.0290030   0.3858457   0.0755400
   12  -0.0549927   0.0771979   2.2734790
   13   2.2343308  -0.3656289  -0.3147261
   14  -0.0687842   0.4434106   0.0119332
   15  -0.1514721   0.0362943   0.5211347
   16   1.0228719  -0.0940381   0.8898481
   17  -0.1060759   0.3687419  -0.0815574
   18   0.8432670  -0.1401110   1.6704432
   19  -0.1807555  -0.2566383   0.0062091
   20  -0.1330438  -1.6576623  -0.0038003
   21   0.0112272   0.0472045  -0.1389425
   22  -0.3853393  -0.4460609   0.0218058
   23  -0.6491444  -1.4707517   0.0260329
   24  -0.0865261  -0.2003611  -0.1239552
   25  -0.1602765   0.0003865   0.1060430
   26   0.0084032  -0.1402343  -0.0595588
   27   0.0250998  -0.0659376  -1.6788958
   28  -1.6365926   0.2608168   0.2630188
   29  -0.0039330  -0.1917098   0.0007487
   30   0.0871542  -0.0168853  -0.2260132
   31  -0.6733584   0.0810870  -0.7976568
   32   0.0521489  -0.1440319   0.0596414
   33  -0.6234350   0.0968347  -1.1540512
 -----------------------------------------
 Net:  -0.00000  -0.00000  -0.00000
 -----------------------------------------

 Calculating analytic Hessian of the SCF energy
