                  Welcome to Q-Chem
     A Quantum Leap Into The Future Of Chemistry


 Q-Chem 5.4 (devel), Q-Chem, Inc., Pleasanton, CA (2021)

 E. Epifanovsky,  A. T. B. Gilbert,  Xintian Feng,  Joonho Lee,  Yuezhi Mao,  
 N. Mardirossian,  P. Pokhilko,  A. White,  M. Wormit,  M. P. Coons,  
 A. L. Dempwolff,  Zhengting Gan,  D. Hait,  P. R. Horn,  L. D. Jacobson,  
 I. Kaliman,  J. Kussmann,  A. W. Lange,  Ka Un Lao,  D. S. Levine,  Jie Liu,  
 S. C. McKenzie,  A. F. Morrison,  K. Nanda,  F. Plasser,  D. R. Rehn,  
 M. L. Vidal,  Zhi-Qiang You,  Ying Zhu,  B. Alam,  B. Albrecht,  
 A. Aldossary,  E. Alguire,  J. H. Andersen,  D. Barton,  K. Begam,  A. Behn,  
 Y. A. Bernard,  E. J. Berquist,  H. Burton,  A. Carreras,  K. Carter-Fenk,  
 R. Chakraborty,  A. D. Chien,  K. D. Closser,  V. Cofer-Shabica,  
 S. Dasgupta,  Jia Deng,  M. de Wergifosse,  M. Diedenhofen,  Hainam Do,  
 S. Ehlert,  Po-Tung Fang,  S. Fatehi,  Qingguo Feng,  T. Friedhoff,  
 J. Gayvert,  Qinghui Ge,  G. Gidofalvi,  M. Goldey,  J. Gomes,  
 C. Gonzalez-Espinoza,  S. Gulania,  A. Gunina,  M. W. D. Hanson-Heine,  
 P. H. P. Harbach,  A. W. Hauser,  M. F. Herbst,  M. Hernandez Vera,  
 M. Hodecker,  Z. C. Holden,  S. Houck,  Xunkun Huang,  Kerwin Hui,  
 B. C. Huynh,  M. Ivanov,  Hyunjun Ji,  Hanjie Jiang,  B. Kaduk,  S. Kaehler,  
 K. Khistyaev,  Jaehoon Kim,  P. Klunzinger,  Z. Koczor-Benda,  
 Joong Hoon Koh,  D. Kosenkov,  L. Koulias,  T. Kowalczyk,  C. M. Krauter,  
 K. Kue,  A. Kunitsa,  T. Kus,  A. Landau,  K. V. Lawler,  D. Lefrancois,  
 S. Lehtola,  Rain Li,  Yi-Pei Li,  Jiashu Liang,  M. Liebenthal,  
 Hung-Hsuan Lin,  You-Sheng Lin,  Fenglai Liu,  Kuan-Yu Liu,  
 M. Loipersberger,  A. Luenser,  A. Manjanath,  P. Manohar,  E. Mansoor,  
 S. F. Manzer,  Shan-Ping Mao,  A. V. Marenich,  T. Markovich,  S. Mason,  
 S. A. Maurer,  P. F. McLaughlin,  M. F. S. J. Menger,  J.-M. Mewes,  
 S. A. Mewes,  P. Morgante,  J. W. Mullinax,  K. J. Oosterbaan,  G. Paran,  
 Alexander C. Paul,  Suranjan K. Paul,  F. Pavosevic,  Zheng Pei,  S. Prager,  
 E. I. Proynov,  E. Ramos,  B. Rana,  A. E. Rask,  A. Rettig,  R. M. Richard,  
 F. Rob,  E. Rossomme,  T. Scheele,  M. Scheurer,  M. Schneider,  
 N. Sergueev,  S. M. Sharada,  W. Skomorowski,  D. W. Small,  C. J. Stein,  
 Yu-Chuan Su,  E. J. Sundstrom,  Zhen Tao,  J. Thirman,  T. Tsuchimochi,  
 N. M. Tubman,  S. P. Veccham,  O. Vydrov,  J. Wenzel,  J. Witte,  A. Yamada,  
 Kun Yao,  S. Yeganeh,  S. R. Yost,  A. Zech,  Igor Ying Zhang,  Xing Zhang,  
 Yu Zhang,  D. Zuev,  A. Aspuru-Guzik,  A. T. Bell,  N. A. Besley,  
 K. B. Bravaya,  B. R. Brooks,  D. Casanova,  Jeng-Da Chai,  S. Coriani,  
 C. J. Cramer,  A. E. DePrince, III,  R. A. DiStasio Jr.,  A. Dreuw,  
 B. D. Dunietz,  T. R. Furlani,  W. A. Goddard III,  S. Grimme,  
 S. Hammes-Schiffer,  T. Head-Gordon,  W. J. Hehre,  Chao-Ping Hsu,  
 T.-C. Jagau,  Yousung Jung,  A. Klamt,  Jing Kong,  D. S. Lambrecht,  
 WanZhen Liang,  N. J. Mayhall,  C. W. McCurdy,  J. B. Neaton,  
 C. Ochsenfeld,  J. A. Parkhill,  R. Peverati,  V. A. Rassolov,  Yihan Shao,  
 L. V. Slipchenko,  T. Stauch,  R. P. Steele,  J. E. Subotnik,  
 A. J. W. Thom,  A. Tkatchenko,  D. G. Truhlar,  T. Van Voorhis,  
 T. A. Wesolowski,  K. B. Whaley,  H. L. Woodcock III,  P. M. Zimmerman,  
 S. Faraji,  P. M. W. Gill,  M. Head-Gordon,  J. M. Herbert,  A. I. Krylov

 Additional authors for Version 5.4.1: 
 S. Kotaru,  Shaozhi Li,  Xiangyuan Li,  F. Matz,  A. Molle,  Haisheng Ren,  
 Yingli Su,  Hung-Yi Tsai,  C. Utku,  Fang Wang

 Contributors to earlier versions of Q-Chem not listed above: 
 R. D. Adamson,  B. Austin,  R. Baer,  J. Baker,  G. J. O. Beran,  
 K. Brandhorst,  S. T. Brown,  E. F. C. Byrd,  A. K. Chakraborty,  
 G. K. L. Chan,  Chun-Min Chang,  Yunqing Chen,  C.-L. Cheng,  
 Siu Hung Chien,  D. M. Chipman,  D. L. Crittenden,  H. Dachsel,  
 R. J. Doerksen,  A. D. Dutoi,  R. G. Edgar,  J. Fosso-Tande,  
 L. Fusti-Molnar,  D. Ghosh,  A. Ghysels,  A. Golubeva-Zadorozhnaya,  
 J. Gonthier,  M. S. Gordon,  S. R. Gwaltney,  G. Hawkins,  J. E. Herr,  
 A. Heyden,  S. Hirata,  E. G. Hohenstein,  G. Kedziora,  F. J. Keil,  
 C. Kelley,  Jihan Kim,  R. A. King,  R. Z. Khaliullin,  P. P. Korambath,  
 W. Kurlancheek,  A. Laurent,  A. M. Lee,  M. S. Lee,  S. V. Levchenko,  
 Ching Yeh Lin,  D. Liotard,  E. Livshits,  R. C. Lochan,  I. Lotan,  
 L. A. Martinez-Martinez,  P. E. Maslen,  N. Nair,  D. P. O'Neill,  
 D. Neuhauser,  E. Neuscamman,  C. M. Oana,  R. Olivares-Amaya,  R. Olson,  
 T. M. Perrine,  B. Peters,  P. A. Pieniazek,  A. Prociuk,  Y. M. Rhee,  
 J. Ritchie,  M. A. Rohrdanz,  E. Rosta,  N. J. Russ,  H. F. Schaefer III,  
 M. W. Schmidt,  N. E. Schultz,  S. Sharma,  N. Shenvi,  C. D. Sherrill,  
 A. C. Simmonett,  A. Sodt,  T. Stein,  D. Stuck,  K. S. Thanthiriwatte,  
 V. Vanovschi,  L. Vogt,  Tao Wang,  A. Warshel,  M. A. Watson,  
 C. F. Williams,  Q. Wu,  X. Xu,  Jun Yang,  W. Zhang,  Yan Zhao

 Please cite Q-Chem as follows:
 Y. Shao et al., Mol. Phys. 113, 184-215 (2015)
 DOI: 10.1080/00268976.2014.952696

 Q-Chem 5.4.1 for Intel X86 EM64T Linux

 Parts of Q-Chem use Armadillo 9.900.5 (Nocturnal Misbehaviour).
 http://arma.sourceforge.net/

 Q-Chem begins on Wed Jun 22 16:41:24 2022  

 Host: p09r14n13.grace.hpc.yale.internal
0

     Scratch files written to /home/tl686/scratch60/qchem_dev/scratch/qchem247431//
 Processing $rem in /home/tl686/qchem_dev/qchem/config/preferences:
 Processing $rem in /home/tl686/.qchemrc:
Applying user defined connections for MM calculations

 Checking the input file for inconsistencies... 	...done.

--------------------------------------------------------------
User input:
--------------------------------------------------------------
$molecule
0   1
 Fe 73.97101558 34.07807444 -44.06560794    -1  0   0   0   0
C 72.60917963 33.18981687 -41.13840342    -2  0   0   0   0 
C 73.43468681 37.22124212 -44.99955857    -2  0   0   0   0
C 76.70650523 35.06175151 -42.29726422    -2  0   0   0   0
C 75.97308724 31.84816215 -45.61928597    -2  0   0   0   0
C 70.90599955 33.15180442 -45.36052823    -2  0   0   0   0
O 71.84783992 32.53480205 -39.16493441    -3  0   0   0   0
O 72.79096449 39.30893621 -45.35826766    -3  0   0   0   0 
O 78.48809987 35.60549427 -41.21743529    -3  0   0   0   0
O 77.08392427 30.13403649 -46.42080719    -3  0   0   0   0 
O 68.98851057 32.45123644 -46.18735087    -3  0   0   0   0
H 75.47280702 24.92636050 -23.96066312      6     13    0    0    0 
C 74.73013969 23.26393158 -23.16130336     1     12    14    15    16
H 74.56954169 23.67630081 -21.10335734     6     13    0    0    0
H 72.76090470 22.77438094 -23.71646109     6     13    0    0    0
C 76.44856200 20.89462692 -23.62612154     2     13    17    18    19
H 78.39827859 21.46955881 -23.06362888     6     16    0    0    0
H 75.83561237 19.49632316 -22.31121944     6     16    0    0    0
C 76.17025786 19.53816217 -26.11881260     2     16    20   21   22
H 74.28226562 19.13540388 -26.94423433     6     19    0    0    0
H 77.07380233 20.67390947 -27.49857843     6     19    0    0    0
C 77.72675225 17.05772985 -26.17336913     2     19   23   24   25
H 79.56194310 17.48562104 -25.32016398     6    22    0    0    0
H 77.01945012 15.56480828 -25.00884470     6    22    0    0    0
C 78.37858946 16.09462763 -28.91435516     2    22   26   27   28
H 79.37897167 17.72805084 -29.88327650     6    25    0    0    0
H 79.70933639 14.60855401 -28.74701172     6    25    0    0    0
C 76.13326227 15.57600855 -30.64827936     2    25   29   30   31
H 74.53555772 14.64941648 -29.70701510     6    28    0    0    0
H 75.48517659 17.32556653 -31.37268821     6    28    0    0    0
C 76.53398419 13.82122627 -32.90155361     2    28   32   33   34
H 77.41314283 14.98844499 -34.29366239     6    31    0    0    0
H 77.76863290 12.37258600 -32.55447623     6    31    0    0    0
C 74.08261373 12.80009635 -34.09417613     2    31   35   36   37
H 73.38407096 11.29503333 -32.75233281     6    34    0    0    0
H 72.52273693 14.09855360 -34.08980864     6    34    0    0    0
C 74.63742116 11.25619392 -36.55708096     2    34   38   39   40
H 75.31050824 12.55650288 -37.92496459     6    37    0    0    0
H 75.84087632 9.63213622 -36.45565029     6    37    0    0    0
C 72.21798460 10.03565274 -37.50742159     2    37   41   42   43
H 71.57276044 8.59330752 -36.14184788     6    40    0    0    0
H 70.72651043 11.45753745 -37.77363821     6    40    0    0    0
C 72.63844381 8.84982589 -40.07985975     2    40   44   45   46
H 73.21797660 10.30143820 -41.47419761     6    43    0    0    0
H 74.34350996 7.60171796 -40.19338976     6    43    0    0    0
C 70.47808648 7.32952375 -41.07974216     1    43   47   48   49
H 70.17872750 5.71400946 -39.92678724     6    46    0    0    0
H 71.25260875 6.93526651 -42.98707186     6    46    0    0    0
H 68.57501991 8.20499555 -41.50539541     6    46    0    0    0
H 69.25905565 25.11129909 -42.39254682     6     51    0    0    0 
C 70.46916737 26.75604143 -41.94315242     1     50    52    53    54
H 71.62907664 27.00504399 -43.64994264     6     51    0    0    0
H 69.25301998 28.47573964 -41.90874970     6     51    0    0    0
C 72.02480412 26.25133043 -39.55586576     2     51    55    56    57
H 72.82957138 27.88342718 -38.45335693     6     54    0    0    0
H 70.76611509 25.41367133 -38.20732706     6     54    0    0    0
C 74.16765392 24.47584317 -39.95914157     2     54    58   59   60
H 75.34060238 25.10602782 -41.56446821     6     57    0    0    0
H 75.22923517 24.38131730 -38.29587632     6     57    0    0    0
C 73.13345612 21.78295311 -40.51637498     2     57   61   62   63
H 71.60230133 21.20772855 -39.14683688     6    60    0    0    0
H 72.17904775 21.60020303 -42.30119487     6    60    0    0    0
C 75.14120760 19.64765732 -40.27592160     2    60   64   65   66
H 76.80412650 20.08195773 -41.38117713     6    63    0    0    0
H 75.77024909 19.53023842 -38.31886590     6    63    0    0    0
C 74.24125990 17.02644581 -41.07436590     2    63   67   68   69
H 75.75002433 15.55879992 -40.87446765     6    66    0    0    0
H 72.71001369 16.67588986 -39.84371770     6    66    0    0    0
C 73.31119504 16.97408071 -43.98364890     2    66   70   71   72
H 71.56044370 18.06136361 -44.08547134     6    69    0    0    0
H 74.65453141 18.02903406 -45.08032772     6    69    0    0    0
C 72.93300845 14.28311220 -45.02892576     2    69   73   74   75
H 74.60423338 13.19880930 -44.53745979     6    72    0    0    0
H 71.32400429 13.30030896 -44.20886788     6    72    0    0    0
C 72.75294369 14.36945872 -47.93801253     2    72   76   77   78
H 71.46497027 15.87920530 -48.39067292     6    75    0    0    0
H 74.69424194 14.82376332 -48.56816358     6    75    0    0    0
C 71.83236411 11.88673881 -49.11147332     2    75   79   80   81
H 73.13566755 10.33147000 -48.68848518     6    78    0    0    0
H 69.90426164 11.35265250 -48.48889785     6    78    0    0    0
C 71.45014289 12.25806065 -51.99693622     2    78   82   83   84
H 69.85197092 13.34218819 -52.18488345     6    81    0    0    0
H 72.97078475 13.38857250 -52.86752272     6    81    0    0    0
C 71.22121267 9.79236947 -53.42482271     1    81   85   86   87
H 71.78195898 10.23293367 -55.35193006     6    84    0    0    0
H 69.41257306 8.94026614 -53.37952028     6    84    0    0    0
H 72.70180819 8.56663428 -52.76594042     6    84    0    0    0
H 94.85612418 15.61187045 -28.00697471     6     89    0    0    0 
C 94.53490801 13.61586444 -27.57174432     1     88    90    91    92
H 95.87700755 12.92618570 -26.05993515     6     89    0    0    0
H 92.65718058 13.35273756 -26.54903004     6     89    0    0    0
C 94.76051970 11.80290030 -29.82903318     2     89    93    94    95
H 93.84518330 12.50052731 -31.42672237     6     92    0    0    0
H 96.72970193 12.28946800 -30.31109371     6     92    0    0    0
C 94.44924579 8.81524932 -29.35905616     2     92    96   97   98
H 96.17426217 7.89197977 -28.68040618     6     95    0    0    0
H 93.03939427 8.38938228 -27.68547968     6     95    0    0    0
C 93.66745586 7.23711613 -31.72804282     2     95   99   100   101
H 92.10743227 8.26518877 -32.80432024     6    98    0    0    0
H 95.35945985 7.06986739 -33.10256359     6    98    0    0    0
C 92.73663501 4.69671827 -30.90074754     2    98   102   103   104
H 94.23953932 3.81016535 -29.71975164     6    101    0    0    0
H 91.04625325 5.13788041 -29.67191115     6    101    0    0    0
C 91.74795630 3.02107044 -33.13402637     2    101   105   106   107
H 90.27065968 4.32562758 -33.99437606     6    104    0    0    0
H 93.29085467 2.65419202 -34.43836569     6    104    0    0    0
C 90.34531548 0.68200050 -32.15619081     2    104   108   109   110
H 91.61071386 -0.59538184 -31.28638797     6    107    0    0    0
H 88.95493591 1.20493686 -30.77489878     6    107    0    0    0
C 88.91960882 -0.87442057 -34.17506759     2    107   111   112   113
H 87.54135041 0.31552948 -35.15494715     6    110    0    0    0
H 90.17630535 -1.48118888 -35.72773059     6    110    0    0    0
C 88.06198305 -3.33940549 -33.12584201     2    110   114   115   116
H 89.63876277 -4.66723921 -33.04435100     6    113    0    0    0
H 87.29857742 -2.80694792 -31.21732464     6    113    0    0    0
C 86.00515730 -4.62927393 -34.53367026     2    113   117   118   119
H 84.33024610 -3.59981804 -34.36852287     6    116    0    0    0
H 86.47829985 -4.69933721 -36.55871429     6    116    0    0    0
C 85.83104554 -7.33321580 -33.42122604     2    116   120   121   122
H 87.47572746 -8.39864809 -34.15618641     6    119    0    0    0
H 86.23213015 -7.16552874 -31.37761626     6    119    0    0    0
C 83.41388672 -8.72638171 -34.14743200     1    119   123   124   125
H 83.32452314 -10.58828916 -33.31917650     6    122    0    0    0
H 83.54430864 -8.82546034 -36.29259684     6    122    0    0    0
H 81.65764929 -7.62119934 -33.71966803     6    122    0    0    0
H 103.07725208 24.07594168 -29.68555752     6     127    0    0    0 
C 103.02986970 24.04173358 -31.66079425     1     126    128    129    130
H 104.84382051 24.52015262 -32.48302916     6     127    0    0    0
H 102.40345709 22.16136991 -32.27221967     6     127    0    0    0
C 100.95954444 25.83436599 -32.32910865     2     127    131    132    133
H 99.39003708 25.61249118 -31.17593087     6     130    0    0    0
H 101.52688113 27.90290686 -32.37010937     6     130    0    0    0
C 99.92076621 25.18904954 -35.01103370     2     130    134   135   136
H 101.27999234 24.55068040 -36.31832506     6     133    0    0    0
H 98.63945418 23.67027200 -34.49956476     6     133    0    0    0
C 98.34467791 27.41097152 -36.10577529     2     133   137   138   139
H 96.67468573 27.74154450 -34.95679872     6    136    0    0    0
H 99.36483713 29.19928235 -36.27875108     6    136    0    0    0
C 97.39145784 26.75178073 -38.81111867     2    136   140   141   142
H 98.92198055 26.25632217 -40.32495579     6    139    0    0    0
H 96.32942172 24.97014258 -39.00501685     6    139    0    0    0
C 95.63564512 28.99115778 -39.70474440     2    139   143   144   145
H 93.85385274 28.69841723 -38.65429204     6    142    0    0    0
H 96.13602486 30.84661929 -39.01701702     6    142    0    0    0
C 94.97485555 29.10520477 -42.44025541     2    142   146   147   148
H 96.56108647 28.78842404 -43.64989198     6    145    0    0    0
H 93.70232367 27.60834682 -42.92008831     6    145    0    0    0
C 93.81667949 31.57731445 -43.25397331     2    145   149   150   151
H 92.34264277 32.11052337 -41.92393664     6    148    0    0    0
H 95.42361418 32.88121398 -43.12249864     6    148    0    0    0
C 93.04834568 31.26344882 -46.11757173     2    148   152   153   154
H 94.49342242 31.00713810 -47.44283405     6    151    0    0    0
H 91.83646627 29.58120976 -46.44761956     6    151    0    0    0
C 91.30963989 33.39582571 -46.88716590     2    151   155   156   157
H 90.15330760 32.91301342 -48.51164082     6    154    0    0    0
H 89.91997770 33.68932505 -45.21425141     6    154    0    0    0
C 92.57214578 35.99294949 -47.19638114     2    154   158   159   160
H 93.13609752 36.50704993 -45.32511461     6    157    0    0    0
H 94.13834729 35.94219002 -48.57577317     6    157    0    0    0
C 90.67912022 38.11858188 -48.09379987     1    157   161   162   163
H 91.59756646 39.87764686 -48.25075919     6    160    0    0    0
H 88.96309423 38.31702502 -46.80934841     6    160    0    0    0
H 89.90320807 37.45229830 -49.86854665     6    160    0    0    0
H 100.56434166 2.36778444 -48.01008862     6     165    0    0    0 
C 101.32168630 3.59636563 -46.45731874     1     164    166    167    168
H 100.03871698 3.37205331 -44.92100466     6     165    0    0    0
H 103.05434204 2.70993166 -45.82621182     6     165    0    0    0
C 101.81364758 6.26078841 -47.63081904     2     165    169    170    171
H 103.18507770 5.98166682 -48.98711758     6     168    0    0    0
H 99.92463591 6.93303271 -48.25105942     6     168    0    0    0
C 102.96329135 8.10590986 -45.60528647     2     168    172   173   174
H 101.82578369 7.95082459 -43.90557190     6     171    0    0    0
H 104.90586563 7.53216761 -45.20196518     6     171    0    0    0
C 102.72386539 10.70407625 -46.48981055     2     171   175   176   177
H 103.28113587 10.99296544 -48.52241161     6    174    0    0    0
H 100.71689823 11.27133490 -46.56671705     6    174    0    0    0
C 103.89675619 12.70437539 -44.79986918     2    174   178   179   180
H 103.38852676 12.22706034 -42.89532781     6    177    0    0    0
H 105.87186077 12.51814110 -44.81850682     6    177    0    0    0
C 103.13962813 15.43345991 -45.68863565     2    177   181   182   183
H 103.60269830 15.89041584 -47.63368426     6    180    0    0    0
H 101.08083128 15.55265037 -45.60515896     6    180    0    0    0
C 104.24692709 17.48328802 -43.96596350     2    180   184   185   186
H 103.28552458 17.71669191 -42.16663183     6    183    0    0    0
H 106.15450332 16.93541326 -43.33082369     6    183    0    0    0
C 104.76912601 19.93575637 -45.29043097     2    183   187   188   189
H 105.97364772 19.48150687 -46.88265954     6    186    0    0    0
H 103.06450137 20.57405065 -46.06829599     6    186    0    0    0
C 105.65995635 22.17757358 -43.70591257     2    186   190   191   192
H 104.56719271 22.32660724 -41.87769678     6    189    0    0    0
H 107.60714103 21.66287629 -43.13898940     6    189    0    0    0
C 105.77455765 24.87896370 -44.98753259     2    189   193   194   195
H 107.08012645 24.52720301 -46.51924688     6    192    0    0    0
H 104.07779475 25.41136458 -46.01723326     6    192    0    0    0
C 106.64483717 27.00373874 -43.31394297     2    192   196   197   198
H 105.75005883 26.75147101 -41.52974976     6    195    0    0    0
H 108.62642065 27.13616635 -42.88245000     6    195    0    0    0
C 106.13542094 29.72953819 -44.15362216     1    195   199   200   201
H 106.92094952 31.10626434 -42.71216443     6    198    0    0    0
H 104.13857736 30.03470027 -44.42368054     6    198    0    0    0
H 106.95879719 30.15292729 -46.01367662     6    198    0    0    0
H 97.51761867 14.36777037 -58.85790997     6     203    0    0    0 
C 98.74749652 14.06998912 -60.50350713     1     202    204    205    206
H 98.80542989 15.82162558 -61.72639421     6     203    0    0    0
H 100.64560637 13.75167739 -59.69802443     6     203    0    0    0
C 97.66536421 11.94799233 -62.34694925     2     203    207    208    209
H 98.90140960 11.89751037 -63.96632075     6     206    0    0    0
H 97.75640728 10.15249958 -61.33874720     6     206    0    0    0
C 94.98045820 12.40212282 -63.50494183     2     206    210   211   212
H 94.52695042 10.50753458 -64.36335739     6     209    0    0    0
H 93.66647433 12.50139723 -61.76737498     6     209    0    0    0
C 94.56581267 14.75902213 -64.95386758     2     209   213   214   215
H 95.12318215 16.35096245 -63.75084144     6    212    0    0    0
H 95.98632638 15.02595280 -66.45923908     6    212    0    0    0
C 91.89294976 15.11171599 -66.05549951     2    212   216   217   218
H 91.25921725 13.37525760 -66.87634903     6    215    0    0    0
H 90.58629483 15.33195265 -64.58900264     6    215    0    0    0
C 91.57191327 17.39625441 -67.87849249     2    215   219   220   221
H 91.90015453 19.21995109 -66.97488310     6    218    0    0    0
H 92.96526687 17.26495254 -69.41156491     6    218    0    0    0
C 88.82525841 17.28216655 -69.02510830     2    218   222   223   224
H 88.70572531 15.62354084 -70.22742528     6    221    0    0    0
H 87.20729988 16.96074386 -67.72025292     6    221    0    0    0
C 88.24635315 19.64025657 -70.62394599     2    221   225   226   227
H 87.92178187 21.18243203 -69.23883199     6    224    0    0    0
H 90.00188079 20.09595627 -71.73709863     6    224    0    0    0
C 85.80672464 19.40590495 -72.21937975     2    224   228   229   230
H 85.96905435 17.87212276 -73.64645037     6    227    0    0    0
H 84.26605302 18.87283208 -70.96147362     6    227    0    0    0
C 85.25596822 21.91445746 -73.42780966     2    227   231   232   233
H 84.94126917 23.30306907 -71.94947628     6    230    0    0    0
H 86.93559141 22.75690171 -74.20342755     6    230    0    0    0
C 82.98922017 22.13181540 -75.07432468     2    230   234   235   236
H 83.70961708 21.45577103 -76.88307740     6    233    0    0    0
H 81.30689277 21.25378074 -74.27764584     6    233    0    0    0
C 82.57985353 24.91864573 -75.55825314     1    233   237   238   239
H 81.29603154 25.23504460 -77.00543418     6    236    0    0    0
H 84.30078004 25.70820837 -76.24057883     6    236    0    0    0
H 82.06135613 25.93137916 -73.85982243     6    236    0    0    0
H 64.33074914 2.89472770 -51.33242275     6     241    0    0    0 
C 65.73722196 3.71436414 -52.57660306     1     240    242    243    244
H 65.73326288 2.73366898 -54.38643347     6     241    0    0    0
H 65.41025709 5.70330550 -52.73854134     6     241    0    0    0
C 68.34463869 3.28714115 -51.27690483     2     241    245    246    247
H 68.98394474 1.40098223 -51.35856259     6     244    0    0    0
H 69.55871679 4.53700252 -52.46243440     6     244    0    0    0
C 68.67469978 4.56364986 -48.68847673     2     244    248   249   250
H 70.81154237 4.84701808 -48.44123913     6     247    0    0    0
H 67.57858303 6.31133864 -48.96634958     6     247    0    0    0
C 67.73910411 2.90048685 -46.51000831     2     247   251   252   253
H 67.02763664 4.16235933 -45.16481348     6    250    0    0    0
H 66.11756166 1.84563997 -47.24422065     6    250    0    0    0
C 69.96666869 1.29051801 -45.45563315     2    250   254   255   256
H 70.52316522 0.04981437 -46.91082261     6    253    0    0    0
H 71.63440113 2.45216282 -45.13020060     6    253    0    0    0
C 69.45243547 -0.34271973 -43.12143518     2    253   257   258   259
H 71.04663213 -1.59881995 -42.72896467     6    256    0    0    0
H 69.12221697 0.88829830 -41.53570613     6    256    0    0    0
C 66.89019875 -1.76034064 -43.30321786     2    256   260   261   262
H 65.34539295 -0.48859283 -43.61235648     6    259    0    0    0
H 66.83323538 -2.96435303 -44.88877812     6    259    0    0    0
C 66.27399149 -3.14325973 -40.82575198     2    259   263   264   265
H 67.87022784 -4.37293225 -40.71224936     6    262    0    0    0
H 66.70413149 -2.03946996 -39.13762293     6    262    0    0    0
C 63.59857418 -4.05367784 -40.54809293     2    262   266   267   268
H 63.03591377 -4.88114847 -38.63247152     6    265    0    0    0
H 62.29986907 -2.60625743 -41.04960293     6    265    0    0    0
C 62.89321622 -6.25172233 -42.34843952     2    265   269   270   271
H 62.88041471 -5.60747163 -44.29088148     6    268    0    0    0
H 64.16736902 -7.73726679 -42.09672672     6    268    0    0    0
C 60.36557679 -7.50875164 -41.62329867     2    268   272   273   274
H 60.60783429 -8.57478400 -39.79612095     6    271    0    0    0
H 59.12993188 -6.09584489 -40.90181541     6    271    0    0    0
C 59.05388008 -8.98416481 -43.69871275     1    271   275   276   277
H 58.66957109 -7.72280279 -45.24780610     6    274    0    0    0
H 57.12876718 -9.88984836 -43.28292184     6    274    0    0    0
H 60.60797398 -10.28038066 -44.10057495     6    274    0    0    0
H 87.70438520 -0.64902491 -51.70957601     6     279    0    0    0 
C 86.90343745 1.18728331 -52.45158357     1     278    280    281    282
H 85.85225075 2.44061555 -51.12233267     6     279    0    0    0
H 88.44535782 2.36180528 -53.26576583     6     279    0    0    0
C 85.25245913 0.28023755 -54.62548477     2     279    283    284    285
H 86.43832196 -0.87280248 -55.90408935     6     282    0    0    0
H 83.72829214 -0.88733322 -53.67990459     6     282    0    0    0
C 84.13429454 2.59624749 -56.18238122     2     282    286   287   288
H 82.95156281 3.74468487 -54.89659067     6     285    0    0    0
H 85.67236775 3.72138048 -56.82603129     6     285    0    0    0
C 82.46614149 1.80924023 -58.38537271     2     285   289   290   291
H 83.74078404 0.61378345 -59.61796747     6    288    0    0    0
H 80.69819683 0.67704983 -58.03907192     6    288    0    0    0
C 81.45656720 3.79611893 -60.21308179     2    288   292   293   294
H 80.00927539 4.89403328 -59.24807683     6    291    0    0    0
H 82.99349536 5.12869088 -60.35979570     6    291    0    0    0
C 80.45926517 2.89104894 -62.83716422     2    291   295   296   297
H 81.95853056 2.15102831 -64.19127145     6    294    0    0    0
H 79.18488734 1.37928054 -62.53646213     6    294    0    0    0
C 79.07515927 5.04280818 -64.15047590     2    294   298   299   300
H 77.59493245 5.93968110 -62.99087356     6    297    0    0    0
H 80.73179113 6.28399840 -64.28522545     6    297    0    0    0
C 77.88334319 4.41518568 -66.61914377     2    297   301   302   303
H 79.06933068 3.23579278 -67.86762373     6    300    0    0    0
H 76.39986300 3.12159718 -66.35509748     6    300    0    0    0
C 77.12908085 7.00786152 -67.97005785     2    300   304   305   306
H 75.74865455 7.75458162 -66.71642604     6    303    0    0    0
H 78.68417461 8.29351237 -68.17263687     6    303    0    0    0
C 75.72077797 6.56285138 -70.58786373     2    303   307   308   309
H 77.11738889 5.74043681 -71.90737016     6    306    0    0    0
H 74.23074719 5.13593050 -70.30635071     6    306    0    0    0
C 74.52739296 8.93865391 -71.72198744     2    306   310   311   312
H 73.50071504 10.08051953 -70.31619546     6    309    0    0    0
H 76.11144508 10.24316540 -72.13326831     6    309    0    0    0
C 73.21166044 8.38825823 -74.30453962     1    309   313   314   315
H 71.49835373 7.10357804 -73.93292138     6    312    0    0    0
H 74.50290592 7.42023542 -75.68004726     6    312    0    0    0
H 72.54019850 10.00636097 -75.44132086     6    312    0    0    0
H 91.62775956 18.58387643 -25.46545736     6     317    0    0    0 
C 89.75159627 19.03261194 -26.01847968     1     316    318    319    320
H 89.51105102 17.64330102 -27.55674128     6     317    0    0    0
H 88.53845606 18.53291705 -24.45528032     6     317    0    0    0
C 89.01182180 21.64451729 -26.80535235     2     317    321    322    323
H 87.16819239 21.52309613 -27.42974442     6     320    0    0    0
H 89.03122969 22.88879801 -25.05859676     6     320    0    0    0
C 90.83417845 22.89672454 -28.77457253     2     320    324   325   326
H 92.55774788 23.34888137 -27.94583320     6     323    0    0    0
H 91.22858006 21.51292080 -30.35625831     6     323    0    0    0
C 89.70416192 25.13892705 -30.24443828     2     323   327   328   329
H 87.94791033 24.43758606 -31.16137083     6    326    0    0    0
H 89.36730848 26.63004245 -28.93099859     6    326    0    0    0
C 91.54774753 26.36909084 -32.22804399     2    326   330   331   332
H 93.37234929 26.59369523 -31.35121174     6    329    0    0    0
H 91.93857642 25.17411094 -33.81612824     6    329    0    0    0
C 90.56717069 28.93594812 -33.24796416     2    329   333   334   335
H 90.18919069 30.24221423 -31.57842224     6    332    0    0    0
H 92.08716524 29.80157046 -34.40596813     6    332    0    0    0
C 88.26849468 28.86793765 -34.84463530     2    332   336   337   338
H 88.48808682 27.75109238 -36.58045147     6    335    0    0    0
H 86.58304329 28.14929278 -33.80469362     6    335    0    0    0
C 87.21977339 31.50709621 -35.40114787     2    335   339   340   341
H 85.45240857 31.10144201 -36.27531168     6    338    0    0    0
H 86.68765203 32.37425197 -33.70325286     6    338    0    0    0
C 88.96163804 33.26427867 -37.05367764     2    338   342   343   344
H 89.67778710 34.69041267 -35.83744698     6    341    0    0    0
H 90.57617509 32.24019061 -37.77432375     6    341    0    0    0
C 87.51945687 34.70931190 -39.19717912     2    341   345   346   347
H 88.99294089 35.25914314 -40.56410763     6    344    0    0    0
H 86.51381510 33.26722943 -40.17925677     6    344    0    0    0
C 85.99843903 37.03560222 -38.36600866     2    344   348   349   350
H 84.17637369 36.39798806 -37.48979836     6    347    0    0    0
H 86.86271029 37.93327543 -36.74424620     6    347    0    0    0
C 85.61231342 38.84234057 -40.57939257     1    347   351   352   353
H 84.99036858 40.73697295 -40.08308661     6    350    0    0    0
H 84.26061972 38.10859395 -41.92209016     6    350    0    0    0
H 87.30599299 39.19510855 -41.57461149     6    350    0    0    0
H 78.67753689 2.09997117 -44.69185655     6     355    0    0    0 
C 79.01540784 4.00338350 -44.00965307     1     354    356    357    358
H 77.70932925 5.06083309 -45.14506798     6     355    0    0    0
H 78.25005104 4.20507981 -42.21655875     6     355    0    0    0
C 81.70091248 5.01982206 -44.47435886     2     355    359    360    361
H 82.91044373 4.03279312 -43.24206495     6     358    0    0    0
H 82.26759687 4.31036103 -46.34725754     6     358    0    0    0
C 82.24173002 7.96693515 -44.12712023     2     358    362   363   364
H 81.13095597 9.15490667 -45.37611141     6     361    0    0    0
H 81.59960773 8.32562688 -42.15303732     6     361    0    0    0
C 85.01941586 8.57931389 -44.72804158     2     361   365   366   367
H 85.93970879 7.12705362 -43.57794812     6    364    0    0    0
H 85.60507681 8.32729311 -46.63518739     6    364    0    0    0
C 85.75088325 11.27440633 -43.62390615     2    364   368   369   370
H 85.30462595 12.52242577 -45.24253899     6    367    0    0    0
H 84.36160260 11.83778665 -42.10902612     6    367    0    0    0
C 88.50404749 11.51049697 -42.95373194     2    367   371   372   373
H 88.74318603 10.17668191 -41.42562121     6    370    0    0    0
H 89.66964443 10.78400606 -44.50077710     6    370    0    0    0
C 89.88219293 13.99632204 -42.61614790     2    370   374   375   376
H 89.81976484 14.99641459 -44.42712401     6    373    0    0    0
H 88.79039305 15.04008949 -41.22233093     6    373    0    0    0
C 92.63001720 13.74707334 -41.89640121     2    373   377   378   379
H 92.97340690 12.48118680 -40.33912044     6    376    0    0    0
H 93.76588485 13.19501512 -43.53707020     6    376    0    0    0
C 93.69483159 16.22632271 -40.96298346     2    376   380   381   382
H 93.41082623 17.80335908 -42.31002058     6    379    0    0    0
H 92.44251907 16.78620253 -39.38091306     6    379    0    0    0
C 96.57915871 16.17051974 -40.37960390     2    379   383   384   385
H 97.34792673 14.35436779 -39.63641465     6    382    0    0    0
H 97.46134050 16.54887206 -42.01588960     6    382    0    0    0
C 97.38716078 18.31464975 -38.57561320     2    382   386   387   388
H 99.34878992 18.45742701 -38.27828816     6    385    0    0    0
H 96.75853409 20.07074587 -39.48657128     6    385    0    0    0
C 96.20180705 18.01365020 -35.92397230     1    385   389   390   391
H 96.97856198 16.37953570 -34.90653720     6    388    0    0    0
H 94.23545919 17.46308433 -35.99560516     6    388    0    0    0
H 95.95213091 19.68666435 -34.78346258     6    388    0    0    0
H 71.25106329 56.83203273 -33.57109860     6     393    0    0    0 
C 69.37747806 56.23540610 -33.76019718     1     392    394    395    396
H 68.65983473 56.69763021 -31.88960700     6     393    0    0    0
H 68.62811484 57.41602624 -35.25937210     6     393    0    0    0
C 69.31061574 53.29987390 -34.10112262     2     393    397    398    399
H 70.10918646 53.07487689 -35.91279931     6     396    0    0    0
H 70.50130644 52.26254300 -32.82875924     6     396    0    0    0
C 66.75330606 51.97660534 -33.73442015     2     396    400   401   402
H 65.82109743 52.40054889 -31.95382494     6     399    0    0    0
H 65.35811435 52.73073536 -35.17124768     6     399    0    0    0
C 67.16942213 49.13008759 -34.07639835     2     399   403   404   405
H 68.05552287 48.89449130 -35.96095406     6    402    0    0    0
H 68.35559448 48.33875030 -32.51540141     6    402    0    0    0
C 64.46855480 48.01046423 -34.26755070     2    402   406   407   408
H 63.45481247 48.23620182 -32.54085197     6    405    0    0    0
H 63.36010845 49.33953193 -35.26196132     6    405    0    0    0
C 64.39956612 45.32273574 -35.37626177     2    405   409   410   411
H 65.26759608 45.41421553 -37.35771344     6    408    0    0    0
H 65.42158618 43.85538596 -34.33752538     6    408    0    0    0
C 61.49991981 44.57548795 -35.58106217     2    408   412   413   414
H 60.49000580 44.20724374 -33.77824470     6    411    0    0    0
H 60.51878430 46.23611553 -36.43047732     6    411    0    0    0
C 61.18716925 42.21705998 -37.35407806     2    411   415   416   417
H 61.39211780 43.13068357 -39.17970138     6    414    0    0    0
H 62.73842161 40.83206360 -37.00261996     6    414    0    0    0
C 58.45690936 40.91257737 -37.21209285     2    414   418   419   420
H 57.50358016 40.99476807 -35.33944501     6    417    0    0    0
H 57.30614182 42.07997672 -38.48789120     6    417    0    0    0
C 58.24853419 38.32690277 -38.31687495     2    417   421   422   423
H 58.91238268 38.46579102 -40.24140363     6    420    0    0    0
H 59.63651492 37.15226610 -37.43256901     6    420    0    0    0
C 55.70243424 37.17925717 -38.63309351     2    420   424   425   426
H 56.20202539 35.38498443 -39.60986296     6    423    0    0    0
H 55.11534121 36.52631901 -36.76216036     6    423    0    0    0
C 53.55201113 38.64929871 -39.97041792     1    423   427   428   429
H 51.86687838 37.52954714 -39.86028933     6    426    0    0    0
H 54.29293189 39.04440934 -41.85157943     6    426    0    0    0
H 53.06612046 40.31192125 -38.77755015     6    426    0    0    0
H 65.27581806 24.50708332 -30.91842004     6     431    0    0    0 
C 63.20988711 24.42868333 -30.80854847     1     430    432    433    434
H 62.44244536 24.32143911 -32.70126744     6     431    0    0    0
H 62.87379040 22.52741246 -30.20159752     6     431    0    0    0
C 61.72077366 26.17498381 -28.91816603     2     431    435    436    437
H 63.20563295 26.79990296 -27.60812622     6     434    0    0    0
H 61.15192187 27.92618677 -30.09705668     6     434    0    0    0
C 59.50645949 24.68984752 -27.56909659     2     434    438   439   440
H 58.30642032 24.22841776 -29.06912412     6     437    0    0    0
H 59.99403259 22.84994956 -26.74041351     6     437    0    0    0
C 58.05068166 26.06485730 -25.47360696     2     437   441   442   443
H 56.20335833 25.08505036 -25.03706590     6    440    0    0    0
H 58.98472437 26.25329383 -23.73881056     6    440    0    0    0
C 57.32985686 28.68305360 -26.30132793     2    440   444   445   446
H 59.19767860 29.75191691 -26.00197157     6    443    0    0    0
H 56.67491356 28.74914720 -28.27097689     6    443    0    0    0
C 55.27481393 30.02620911 -24.62925097     2    443   447   448   449
H 53.43792537 29.20940614 -24.95286308     6    446    0    0    0
H 55.69062820 29.75796015 -22.56116974     6    446    0    0    0
C 55.06339942 32.75302471 -25.45690651     2    446   450   451   452
H 56.78381219 33.79019221 -24.67948720     6    449    0    0    0
H 55.21660419 32.91149713 -27.59515901     6    449    0    0    0
C 52.93502118 34.38612896 -24.21495336     2    449   453   454   455
H 51.11486341 33.35878560 -24.32693576     6    452    0    0    0
H 53.43636566 34.57974242 -22.24677166     6    452    0    0    0
C 52.81543762 37.01518776 -25.39631811     2    452   456   457   458
H 54.35935643 38.29616429 -25.16515601     6    455    0    0    0
H 52.70238087 36.92811629 -27.47522803     6    455    0    0    0
C 50.43345853 38.73167122 -24.66233109     2    455   459   460   461
H 50.50084774 40.56806696 -25.46639332     6    458    0    0    0
H 48.90876798 37.73602790 -25.71230918     6    458    0    0    0
C 49.95374908 39.00806544 -21.87428466     2    458   462   463   464
H 49.80959339 37.10744400 -21.17651661     6    461    0    0    0
H 51.71147596 39.54096959 -20.93884068     6    461    0    0    0
C 47.59492923 40.60403803 -21.29133855     1    461   465   466   467
H 45.95516441 40.52910676 -22.34238457     6    464    0    0    0
H 48.20459127 42.52184261 -21.40836216     6    464    0    0    0
H 47.19451608 40.08819632 -19.30377797     6    464    0    0    0
H 100.54735842 10.86010561 -40.35545633     6     469    0    0    0 
C 100.59289469 9.81436684 -38.56396730     1     468    470    471    472
H 102.28993954 8.63389480 -38.88085272     6     469    0    0    0
H 101.10438520 11.00002145 -36.98567913     6     469    0    0    0
C 98.02310392 8.52350403 -38.06784596     2     469    473    474    475
H 98.39618679 7.16380233 -36.50300726     6     472    0    0    0
H 96.77716446 9.92261278 -37.16680329     6     472    0    0    0
C 96.67987542 7.06484149 -40.30942748     2     472    476   477   478
H 96.47877880 8.23135733 -41.95491981     6     475    0    0    0
H 97.80499212 5.41949899 -40.97582654     6     475    0    0    0
C 94.13437615 6.24048570 -39.68841741     2     475   479   480   481
H 94.44820480 4.66063223 -38.50087146     6    478    0    0    0
H 93.13315865 7.68194127 -38.67185330     6    478    0    0    0
C 92.66533848 5.19189514 -41.93685452     2    478   482   483   484
H 92.30176078 6.83514124 -43.15264875     6    481    0    0    0
H 93.83291537 3.89032861 -43.06267781     6    481    0    0    0
C 90.28947142 3.72841108 -41.17457210     2    481   485   486   487
H 90.54945674 2.57943888 -39.57834386     6    484    0    0    0
H 88.83240419 5.04143372 -40.46095549     6    484    0    0    0
C 88.95955378 2.23809579 -43.41421593     2    484   488   489   490
H 88.07021868 3.65982587 -44.63700856     6    487    0    0    0
H 90.26609121 0.99585293 -44.45734585     6    487    0    0    0
C 86.89225839 0.70519323 -42.14320071     2    487   491   492   493
H 87.78267396 -0.64542829 -40.94121220     6    490    0    0    0
H 85.57555307 1.82349982 -40.94776853     6    490    0    0    0
C 85.23504384 -0.84104743 -44.06443268     2    490   494   495   496
H 84.61993271 0.50160907 -45.47991065     6    493    0    0    0
H 86.50031648 -2.07692071 -45.07867545     6    493    0    0    0
C 82.92713856 -1.83547745 -42.91062231     2    493   497   498   499
H 83.52028842 -3.16651380 -41.46261522     6    496    0    0    0
H 81.63766644 -0.46047814 -41.92784548     6    496    0    0    0
C 81.48035798 -3.29317197 -44.93824164     2    496   500   501   502
H 80.99166315 -2.16686469 -46.52807191     6    499    0    0    0
H 82.84351460 -4.76626459 -45.72841005     6    499    0    0    0
C 79.25370394 -4.80317691 -44.02821495     1    499   503   504   505
H 77.32251191 -3.94118456 -44.54582811     6    502    0    0    0
H 79.45529889 -5.26544488 -42.01698559     6    502    0    0    0
H 79.42983523 -6.55657604 -44.98998148     6    502    0    0    0
H 60.56332788 1.44547068 -47.29220490     6     507    0    0    0 
C 59.70887177 2.13459366 -45.45859969     1     506    508    509    510
H 57.73970944 1.85252092 -45.74404036     6     507    0    0    0
H 60.32744974 0.90731242 -43.85558351     6     507    0    0    0
C 60.17213384 5.02467846 -45.30021309     2     507    511    512    513
H 62.20392112 5.47936493 -44.92528496     6     510    0    0    0
H 59.73770360 5.77409866 -46.99589511     6     510    0    0    0
C 58.76376005 5.97790723 -43.02680381     2     510    514   515   516
H 56.74651179 6.11607603 -43.68096195     6     513    0    0    0
H 59.15329025 4.64491874 -41.34996343     6     513    0    0    0
C 59.41344741 8.69594597 -42.73680618     2     513   517   518   519
H 61.38852807 8.98542217 -42.58699861     6    516    0    0    0
H 58.74630512 9.86891823 -44.35668405     6    516    0    0    0
C 58.12378659 9.75260937 -40.37516063     2    516   520   521   522
H 56.18312357 9.56311718 -40.64907708     6    519    0    0    0
H 58.65447377 8.60481390 -38.72863815     6    519    0    0    0
C 59.28475381 12.35796957 -39.77582232     2    519   523   524   525
H 61.10505816 11.96262228 -39.02481240     6    522    0    0    0
H 59.64325966 13.60988259 -41.41879160     6    522    0    0    0
C 57.90813784 13.99157562 -37.90227481     2    522   526   527   528
H 55.88768185 14.07623772 -38.13008791     6    525    0    0    0
H 58.13761276 13.19924134 -36.05099224     6    525    0    0    0
C 58.83937149 16.71879194 -38.06801263     2    525   529   530   531
H 60.83383381 16.60458885 -37.89602345     6    528    0    0    0
H 58.16643283 17.65128002 -39.82736230     6    528    0    0    0
C 57.81049714 18.24265471 -35.78643757     2    528   532   533   534
H 55.85090129 17.82729578 -35.46612667     6    531    0    0    0
H 58.89877825 17.79812048 -34.09017523     6    531    0    0    0
C 57.97333288 21.11039849 -36.37288761     2    531   535   536   537
H 59.95768524 21.61387977 -36.78039818     6    534    0    0    0
H 57.00712798 21.45067987 -38.29174831     6    534    0    0    0
C 56.74801861 22.99740513 -34.51673185     2    534   538   539   540
H 54.73824947 22.50669638 -34.27264114     6    537    0    0    0
H 57.75767709 22.89605655 -32.73709209     6    537    0    0    0
C 57.01492034 25.77834893 -35.19246444     1    537   541   542   543
H 55.83101865 26.78709565 -33.79604907     6    540    0    0    0
H 56.31983090 26.30555476 -37.07462033     6    540    0    0    0
H 58.99254024 26.31984441 -35.00589088     6    540    0    0    0
H 69.74255536 38.61501737 -32.78742169     6     545    0    0    0 
C 70.15863665 40.26527163 -33.93864985     1     544    546    547    548
H 68.31226769 40.53085770 -34.78015796     6     545    0    0    0
H 70.56696430 41.92367746 -32.84416177     6     545    0    0    0
C 72.13345040 39.43427260 -35.93094954     2     545    549    550    551
H 73.56627774 38.15706891 -35.18571033     6     548    0    0    0
H 71.11922654 38.38545099 -37.47579583     6     548    0    0    0
C 73.39245726 41.73786576 -37.08108421     2     548    552   553   554
H 71.99462320 42.47442444 -38.34012821     6     551    0    0    0
H 73.98968630 43.32289535 -35.75110334     6     551    0    0    0
C 75.66538801 40.91616177 -38.62561895     2     551   555   556   557
H 77.19104550 40.17458421 -37.40797826     6    554    0    0    0
H 75.07211287 39.35943811 -39.80968139     6    554    0    0    0
C 76.56168451 43.05352545 -40.47233511     2    554   558   559   560
H 74.97395763 43.99347253 -41.43055344     6    557    0    0    0
H 77.64496715 44.39928907 -39.40017921     6    557    0    0    0
C 78.59387494 42.05585389 -42.32667481     2    557   561   562   563
H 80.20321527 41.22172254 -41.25718009     6    560    0    0    0
H 77.70333171 40.48515713 -43.42091309     6    560    0    0    0
C 79.30337495 44.25118894 -44.13317181     2    560   564   565   566
H 77.80474662 45.11452105 -45.26117607     6    563    0    0    0
H 79.97477122 45.72121604 -43.02760219     6    563    0    0    0
C 81.15060532 43.26292565 -46.03305054     2    563   567   568   569
H 82.88496242 42.42506184 -45.34370637     6    566    0    0    0
H 80.27839072 41.78636646 -47.09520334     6    566    0    0    0
C 81.94889145 45.28192325 -47.99223362     2    566   570   571   572
H 80.42462970 45.77945986 -49.20474564     6    569    0    0    0
H 82.49383305 46.96066592 -46.80420588     6    569    0    0    0
C 84.11902254 44.08593236 -49.60313300     2    569   573   574   575
H 85.68738314 43.64998734 -48.32112444     6    572    0    0    0
H 83.57700573 42.30250960 -50.31016962     6    572    0    0    0
C 85.15887699 45.80481870 -51.66618665     2    572   576   577   578
H 85.76611285 47.58584674 -50.94855942     6    575    0    0    0
H 87.00626408 44.88295146 -52.22754551     6    575    0    0    0
C 83.65505739 46.43766760 -53.98649925     1    575   579   580   581
H 83.24112822 44.76844582 -55.17888449     6    578    0    0    0
H 84.86661782 47.56983262 -55.14310953     6    578    0    0    0
H 82.05482496 47.70659634 -53.36014385     6    578    0    0    0
H 91.61666653 7.10348070 -51.15522244     6     583    0    0    0 
C 93.49428303 7.93562025 -51.07871533     1     582    584    585    586
H 94.94851506 6.59974045 -50.49976825     6     583    0    0    0
H 93.53618845 8.29580943 -53.09888405     6     583    0    0    0
C 93.46070404 10.35151853 -49.61990847     2     583    587    588    589
H 91.60505739 11.39313278 -49.94354864     6     586    0    0    0
H 93.62264549 10.04347329 -47.73224631     6     586    0    0    0
C 95.66288615 11.95143452 -50.45522057     2     586    590   591   592
H 97.44894331 10.81790530 -50.26228489     6     589    0    0    0
H 95.33631894 12.51881525 -52.37247637     6     589    0    0    0
C 95.68965445 14.34451080 -48.82105824     2     589   593   594   595
H 93.79783959 15.00865844 -48.51466221     6    592    0    0    0
H 96.33806319 14.00936171 -46.91646228     6    592    0    0    0
C 97.22465198 16.43742715 -50.16444587     2    592   596   597   598
H 99.29084441 15.97012382 -50.09880126     6    595    0    0    0
H 96.82253729 16.34825165 -52.13218590     6    595    0    0    0
C 97.03421361 19.16947649 -49.17016059     2    595   599   600   601
H 95.19462971 20.04020310 -49.62110144     6    598    0    0    0
H 97.31655171 19.14341992 -47.13041083     6    598    0    0    0
C 98.95321839 21.06342594 -50.36717972     2    598   602   603   604
H 100.80398660 20.54575860 -50.80322911     6    601    0    0    0
H 98.36504738 21.68034566 -52.24533794     6    601    0    0    0
C 98.80868513 23.72684464 -48.89513168     2    601   605   606   607
H 96.80646302 24.15588320 -48.40064908     6    604    0    0    0
H 99.81920562 23.88546550 -47.15685447     6    604    0    0    0
C 100.02144014 25.87753872 -50.53627411     2    604   608   609   610
H 102.06774624 25.46610235 -50.90713180     6    607    0    0    0
H 99.13328669 25.75438584 -52.36177384     6    607    0    0    0
C 99.33939317 28.62398669 -49.52168602     2    607   611   612   613
H 97.42514395 28.99529305 -49.28430781     6    610    0    0    0
H 100.01941094 28.88651487 -47.51865417     6    610    0    0    0
C 100.70358595 30.87920318 -50.92701793     2    610   614   615   616
H 102.62512019 30.84350557 -50.50964380     6    613    0    0    0
H 100.32965767 30.50732011 -53.04216825     6    613    0    0    0
C 99.34754353 33.37127428 -50.18277788     1    613   617   618   619
H 100.36162210 34.81621794 -51.19462348     6    616    0    0    0
H 99.39122833 33.72639151 -48.16188191     6    616    0    0    0
H 97.42465727 33.53480946 -50.63869971     6    616    0    0    0
H 59.09349092 35.62156036 -57.07358290     6     621    0    0    0 
C 61.14079617 35.33404145 -56.73685528     1     620    622    623    624
H 62.29990582 36.90278144 -57.20313175     6     621    0    0    0
H 61.23387354 35.26780366 -54.64604080     6     621    0    0    0
C 62.19449032 32.81305461 -57.92095998     2     621    625    626    627
H 63.99767670 32.45325012 -57.30471215     6     624    0    0    0
H 61.10642901 31.18580220 -57.25149156     6     624    0    0    0
C 62.13063519 32.99984211 -60.81339229     2     624    628   629   630
H 60.14533020 32.72544396 -61.35650341     6     627    0    0    0
H 62.66256417 34.86809793 -61.35423309     6     627    0    0    0
C 63.95224036 31.28482037 -62.12695995     2     627   631   632   633
H 65.61531230 30.82426105 -61.01640501     6    630    0    0    0
H 62.93057093 29.37256912 -62.40023360     6    630    0    0    0
C 64.86966530 32.49808663 -64.71843616     2    630   634   635   636
H 63.34249701 32.96369814 -65.85912787     6    633    0    0    0
H 65.60045828 34.38310163 -64.43646488     6    633    0    0    0
C 66.74813647 30.70759053 -66.04786813     2    633   637   638   639
H 68.35159775 30.36912440 -64.80210041     6    636    0    0    0
H 65.80990317 28.88315990 -66.29017430     6    636    0    0    0
C 67.94937163 31.54752956 -68.40089146     2    636   640   641   642
H 66.60681218 31.32560063 -69.79682166     6    639    0    0    0
H 68.10736068 33.43177983 -68.18553288     6    639    0    0    0
C 70.46077489 30.45076696 -69.21115751     2    639   643   644   645
H 72.06422613 31.18905677 -68.15369076     6    642    0    0    0
H 70.43674331 28.27936768 -68.94455750     6    642    0    0    0
C 70.84517360 31.08698035 -71.94415595     2    642   646   647   648
H 69.53123985 29.84116240 -72.91805777     6    645    0    0    0
H 70.56904926 33.06031619 -72.24992285     6    645    0    0    0
C 73.44229257 30.27833993 -72.89022005     2    645   649   650   651
H 75.07161547 31.31358089 -72.14585382     6    648    0    0    0
H 74.02150792 28.28022897 -72.30387378     6    648    0    0    0
C 73.65641990 30.26359099 -75.70897525     2    648   652   653   654
H 72.50959888 28.71905469 -76.55486689     6    651    0    0    0
H 72.86700518 32.05947339 -76.59726407     6    651    0    0    0
C 76.33339057 29.79115687 -76.79343701     1    651   655   656   657
H 77.52328136 31.53367132 -76.53944560     6    654    0    0    0
H 76.22730768 29.45555156 -78.77045473     6    654    0    0    0
H 77.12462221 28.38495638 -75.77315206     6    654    0    0    0
H 88.84239173 20.19486817 -49.54156324     6     659    0    0    0 
C 89.39321165 21.84495329 -50.68641850     1     658    660    661    662
H 87.69862133 22.98179694 -51.02482910     6     659    0    0    0
H 90.92636840 22.93802792 -49.66242987     6     659    0    0    0
C 90.43631793 20.93424960 -53.18136300     2     659    663    664    665
H 92.37357820 20.29538691 -52.69206034     6     662    0    0    0
H 89.17734822 19.33852615 -53.66483006     6     662    0    0    0
C 90.83192497 22.88602211 -55.20394010     2     662    666   667   668
H 91.54078428 21.92121745 -56.91518694     6     665    0    0    0
H 89.12820546 23.89080989 -55.82181804     6     665    0    0    0
C 92.78945422 24.74278630 -54.60304213     2     665   669   670   671
H 92.51437300 25.60336313 -52.76681717     6    668    0    0    0
H 94.81070055 24.23034162 -54.79685392     6    668    0    0    0
C 92.63493225 27.13976196 -56.25278659     2    668   672   673   674
H 92.66152888 26.62104296 -58.23758284     6    671    0    0    0
H 90.70520043 28.05082108 -56.03023754     6    671    0    0    0
C 94.75103632 29.04969578 -55.47104581     2    671   675   676   677
H 95.25624039 28.59186854 -53.49509759     6    674    0    0    0
H 96.35959904 28.31937592 -56.71749901     6    674    0    0    0
C 94.33167659 31.86253358 -56.02417086     2    674   678   679   680
H 96.10405327 32.83656254 -55.86023984     6    677    0    0    0
H 93.44600854 32.21880720 -57.89091445     6    677    0    0    0
C 92.52302853 33.00588301 -54.10249342     2    677   681   682   683
H 90.78903128 31.84305297 -53.78977685     6    680    0    0    0
H 93.35426176 33.05489130 -52.20322181     6    680    0    0    0
C 91.53444080 35.72402463 -54.79591205     2    680   684   685   686
H 90.79561038 36.00213937 -56.66877480     6    683    0    0    0
H 89.88758608 36.21114413 -53.85311868     6    683    0    0    0
C 93.24007069 37.86583695 -54.49233476     2    683   687   688   689
H 94.39268837 37.81326971 -52.74051061     6    686    0    0    0
H 94.75746091 38.04098989 -55.95607688     6    686    0    0    0
C 91.83202719 40.47201777 -54.66312561     2    686   690   691   692
H 90.68276121 40.49867265 -56.36416769     6    689    0    0    0
H 90.37392323 40.32937795 -53.14877985     6    689    0    0    0
C 93.54397452 42.79631027 -54.28792049     1    689   693   694   695
H 92.41471816 44.38259146 -53.65011940     6    692    0    0    0
H 94.69854257 43.34292022 -55.74798341     6    692    0    0    0
H 94.75193250 42.27626760 -52.72805480     6    692    0    0    0
H 80.70824869 56.34649463 -48.41744129     6     697    0    0    0 
C 81.23044918 54.48495771 -48.89989241     1     696    698    699    700
H 80.66756628 53.99220335 -50.83789004     6     697    0    0    0
H 83.26478610 54.31106081 -48.71683969     6     697    0    0    0
C 80.04467560 52.70980194 -46.89470756     2     697    701    702    703
H 78.04296126 52.72378426 -47.24269214     6     700    0    0    0
H 80.78277627 50.89253769 -47.15778546     6     700    0    0    0
C 80.58483256 53.76537392 -44.24781825     2     700    704   705   706
H 82.32308791 54.73999652 -44.10687769     6     703    0    0    0
H 79.36408508 55.40846413 -44.03623779     6     703    0    0    0
C 79.63202489 51.83965436 -42.09085869     2     703   707   708   709
H 77.55018015 51.52498893 -41.99839082     6    706    0    0    0
H 80.53474261 50.06044845 -42.46705077     6    706    0    0    0
C 79.96291371 52.97935086 -39.41201073     2    706   710   711   712
H 81.80270296 53.78707389 -39.21922852     6    709    0    0    0
H 78.59547104 54.53160275 -39.03253367     6    709    0    0    0
C 79.62036765 51.22389809 -37.17255926     2    709   713   714   715
H 80.69946077 49.48610677 -37.56490186     6    712    0    0    0
H 80.52549412 52.01558402 -35.50324673     6    712    0    0    0
C 76.69747319 50.56209851 -36.75220228     2    712   716   717   718
H 75.84414857 52.35679201 -36.02530277     6    715    0    0    0
H 75.82605213 50.11479523 -38.63765715     6    715    0    0    0
C 76.35147175 48.38194573 -35.18279270     2    715   719   720   721
H 74.35678964 47.60459194 -35.69860455     6    718    0    0    0
H 77.73178951 46.92261203 -35.58539480     6    718    0    0    0
C 76.67828122 48.91462785 -32.26227888     2    718   722   723   724
H 78.76247343 49.08160438 -32.06740344     6    721    0    0    0
H 75.87911638 50.75292881 -31.81531243     6    721    0    0    0
C 75.56756376 46.97879655 -30.52377652     2    721   725   726   727
H 73.41340690 46.86610522 -30.86656068     6    724    0    0    0
H 76.39381933 45.21411324 -31.17477302     6    724    0    0    0
C 76.12155863 47.38223695 -27.61624472     2    724   728   729   730
H 74.96618477 49.00719536 -27.06475534     6    727    0    0    0
H 75.52106454 45.94209033 -26.41701343     6    727    0    0    0
C 78.85758936 47.83728265 -26.80079482     1    727   731   732   733
H 78.90001961 48.08165035 -24.76208569     6    730    0    0    0
H 79.63303035 49.53004871 -27.43126298     6    730    0    0    0
H 79.99859454 46.16016727 -27.21487376     6    730    0    0    0
H 88.90147247 17.36426084 -35.01524955     6     735    0    0    0 
C 89.40512014 15.99491139 -33.63447785     1     734    736    737    738
H 91.25725247 16.47805719 -32.92253223     6     735    0    0    0
H 88.03532677 16.15197992 -32.17073785     6     735    0    0    0
C 89.53757085 13.33933477 -34.83393057     2     735    739    740    741
H 91.09944720 13.28208575 -36.11828923     6     738    0    0    0
H 90.03437169 12.05000477 -33.26977135     6     738    0    0    0
C 87.07454813 12.37230844 -35.94150610     2     738    742   743   744
H 85.55660823 13.27818604 -35.18237964     6     741    0    0    0
H 86.75035965 12.82558118 -37.99499295     6     741    0    0    0
C 86.69769454 9.59406247 -35.73942976     2     741   745   746   747
H 88.34369634 8.68398253 -36.46103794     6    744    0    0    0
H 86.51925266 8.99376101 -33.70598679     6    744    0    0    0
C 84.41523584 8.68071538 -37.08857903     2    744   748   749   750
H 82.70922062 9.94930647 -36.59322997     6    747    0    0    0
H 84.66422537 8.65025454 -39.03773953     6    747    0    0    0
C 83.62305850 5.92957693 -36.16746740     2    747   751   752   753
H 85.03905610 4.42896087 -36.41611822     6    750    0    0    0
H 83.62583470 6.17782666 -34.18330195     6    750    0    0    0
C 81.15319276 4.96492735 -37.10142935     2    750   754   755   756
H 79.60385578 6.08219732 -36.16879498     6    753    0    0    0
H 81.04935048 5.49415314 -39.08548207     6    753    0    0    0
C 80.88165760 2.18012038 -36.65305400     2    753   757   758   759
H 82.34906147 1.31441085 -37.83364372     6    756    0    0    0
H 81.29736370 1.86134778 -34.57097160     6    756    0    0    0
C 78.20116328 1.29863785 -37.39393772     2    756   760   761   762
H 76.83118406 2.52945796 -36.70536109     6    759    0    0    0
H 78.07719389 1.38323771 -39.35250779     6    759    0    0    0
C 77.79664567 -1.60206247 -36.70915752     2    759   763   764   765
H 79.42210390 -2.75215609 -37.19037638     6    762    0    0    0
H 77.74579896 -2.06948390 -34.74791504     6    762    0    0    0
C 75.46592046 -2.30801101 -38.17371486     2    762   766   767   768
H 74.02166434 -1.24497381 -37.08849733     6    765    0    0    0
H 75.45658079 -1.75810890 -40.20280801     6    765    0    0    0
C 74.72857537 -5.09413334 -38.35977554     1    765   769   770   771
H 76.23030775 -5.96808126 -39.45620517     6    768    0    0    0
H 72.98000456 -5.22038459 -39.47970476     6    768    0    0    0
H 74.58342767 -6.21098612 -36.54001912     6    768    0    0    0
H 56.85645965 24.14965320 -68.98305656     6     773    0    0    0 
C 55.58141761 25.28556465 -69.91018768     1     772    774    775    776
H 56.57227251 26.89475132 -70.76718083     6     773    0    0    0
H 54.50083781 24.24036193 -71.41646539     6     773    0    0    0
C 53.71572976 26.14666372 -67.83570788     2     773    777    778    779
H 52.23020058 27.24729495 -68.77965809     6     776    0    0    0
H 52.99308661 24.48964845 -66.94649754     6     776    0    0    0
C 55.08143982 27.66319917 -65.76226112     2     776    780   781   782
H 56.64540570 26.63614894 -64.91865181     6     779    0    0    0
H 55.91475788 29.28191014 -66.57829831     6     779    0    0    0
C 53.29914802 28.66912055 -63.74557727     2     779   783   784   785
H 51.84682248 29.59952931 -64.81177863     6    782    0    0    0
H 52.46984425 27.08995610 -62.78144131     6    782    0    0    0
C 54.50140412 30.42461967 -61.81745523     2    782   786   787   788
H 56.07600492 29.41846751 -60.99981372     6    785    0    0    0
H 55.18619776 32.19912382 -62.63298081     6    785    0    0    0
C 52.40037624 30.97563037 -59.81239028     2    785   789   790   791
H 50.61557235 31.70963228 -60.56073997     6    788    0    0    0
H 51.78296387 29.19224837 -59.09223818     6    788    0    0    0
C 53.30868739 32.68547308 -57.70567278     2    788   792   793   794
H 54.66881869 31.95475541 -56.63026661     6    791    0    0    0
H 53.84593114 34.45395357 -58.68631958     6    791    0    0    0
C 51.17297253 33.30781146 -55.77516831     2    791   795   796   797
H 49.73098943 34.49830900 -56.63313491     6    794    0    0    0
H 50.00491356 31.79033549 -55.15279349     6    794    0    0    0
C 52.41328116 34.51983592 -53.41498065     2    794   798   799   800
H 53.60408849 33.06315386 -52.64600364     6    797    0    0    0
H 53.65132970 35.99245221 -54.12981334     6    797    0    0    0
C 50.53900639 35.86024866 -51.57082662     2    797   801   802   803
H 49.53982667 37.46244334 -52.49709321     6    800    0    0    0
H 49.20086826 34.37863563 -51.14415979     6    800    0    0    0
C 52.02890425 36.97663927 -49.34294693     2    800   804   805   806
H 53.15980796 35.39845943 -48.66967745     6    803    0    0    0
H 53.16201150 38.63786240 -49.88385926     6    803    0    0    0
C 50.43464779 37.93547549 -47.07117304     1    803   807   808   809
H 51.59823804 39.19241429 -45.75961296     6    806    0    0    0
H 49.88106978 36.23019820 -46.00468418     6    806    0    0    0
H 48.82550906 39.01225540 -47.85931198     6    806    0    0    0
H 85.01980717 17.38969477 -50.08538660     6     811    0    0    0 
C 85.10726765 15.44633680 -49.13974236     1     810    812    813    814
H 87.10360703 15.19941728 -48.87438372     6     811    0    0    0
H 84.43839776 15.68337184 -47.25892902     6     811    0    0    0
C 83.91454700 13.31024382 -50.70810921     2     811    815    816    817
H 84.55330641 13.66154072 -52.68964128     6     814    0    0    0
H 84.66140412 11.43029590 -49.87070443     6     814    0    0    0
C 80.98375429 13.37189461 -50.54819723     2     814    818   819   820
H 80.22789540 13.06484974 -48.57179282     6     817    0    0    0
H 80.54464613 15.27157392 -51.03319942     6     817    0    0    0
C 79.38447717 11.41606722 -52.05015708     2     817   821   822   823
H 77.50270483 12.08084042 -52.33581234     6    820    0    0    0
H 80.07141544 11.46444170 -53.89577440     6    820    0    0    0
C 79.60168415 8.71586681 -50.73913100     2    820   824   825   826
H 81.67525150 8.30450080 -50.57142340     6    823    0    0    0
H 78.75785392 8.65558031 -48.87340900     6    823    0    0    0
C 78.19721362 6.67558274 -52.27849952     2    823   827   828   829
H 76.47939266 7.22363507 -53.33452505     6    826    0    0    0
H 79.27155632 6.27896667 -53.96376933     6    826    0    0    0
C 77.58366912 4.25383320 -50.75504007     2    826   830   831   832
H 79.51263337 3.67309166 -50.32106543     6    829    0    0    0
H 76.56313393 4.66870789 -48.95640593     6    829    0    0    0
C 76.10843317 2.26365396 -52.31589480     2    829   833   834   835
H 74.26708446 2.99761361 -52.67827061     6    832    0    0    0
H 77.11692124 2.09128567 -54.15374859     6    832    0    0    0
C 75.97806316 -0.31106267 -50.93028148     2    832   836   837   838
H 77.88610903 -1.02033262 -50.63296331     6    835    0    0    0
H 74.87697351 -0.04993003 -49.18529878     6    835    0    0    0
C 74.71271190 -2.17370260 -52.89763407     2    835   839   840   841
H 72.89638846 -1.51481663 -53.59528508     6    838    0    0    0
H 75.95694790 -2.30673282 -54.52474286     6    838    0    0    0
C 74.41956469 -4.96766882 -51.99241339     2    838   842   843   844
H 76.24472814 -5.78549918 -52.37037181     6    841    0    0    0
H 74.22654993 -5.09865935 -50.01544244     6    841    0    0    0
C 72.55872707 -6.46071422 -53.50735613     1    841   845   846   847
H 70.78178012 -5.49498980 -53.21525676     6    844    0    0    0
H 72.51117742 -8.47669447 -53.06946130     6    844    0    0    0
H 73.07071616 -6.47048228 -55.48654224     6    844    0    0    0
H 93.22323128 43.88833897 -61.64863722     6     849    0    0    0 
C 93.41949195 43.52325351 -63.61992119     1     848    850    851    852
H 91.83853024 44.37735109 -64.48258056     6     849    0    0    0
H 95.28431664 44.23751330 -64.41018995     6     849    0    0    0
C 93.45310287 40.65014559 -64.09076777     2     849    853    854    855
H 91.73194820 40.03891127 -63.10081789     6     852    0    0    0
H 93.44207740 40.42683157 -66.24701463     6     852    0    0    0
C 95.87919994 39.47530393 -63.18899513     2     852    856   857   858
H 97.57720053 40.66480534 -63.80717922     6     855    0    0    0
H 95.45017088 39.66391869 -61.15762862     6     855    0    0    0
C 96.10430151 36.54964181 -63.55744117     2     855   859   860   861
H 94.39695262 35.69080793 -62.86526994     6    858    0    0    0
H 96.24553387 36.14530053 -65.60729446     6    858    0    0    0
C 98.37765128 35.62833381 -62.06078402     2    858   862   863   864
H 99.89525853 36.38715751 -63.10214131     6    861    0    0    0
H 98.43453111 36.47889530 -60.18083623     6    861    0    0    0
C 98.60810369 32.75942816 -61.89946874     2    861   865   866   867
H 97.04734034 32.22702539 -60.68072325     6    864    0    0    0
H 98.41660333 31.71227743 -63.63447330     6    864    0    0    0
C 100.98811315 31.94464425 -60.52000571     2    864   868   869   870
H 102.56473156 32.75022567 -61.42670043     6    867    0    0    0
H 100.95224397 32.47014967 -58.62692283     6    867    0    0    0
C 101.54645472 29.12922908 -60.63672315     2    867   871   872   873
H 100.40749699 27.85261221 -59.47975041     6    870    0    0    0
H 101.27380339 28.72611133 -62.67557904     6    870    0    0    0
C 104.21479929 28.38389715 -59.77301522     2    870   874   875   876
H 104.65319146 26.36797001 -60.06655422     6    873    0    0    0
H 105.48623376 29.48105932 -61.00293880     6    873    0    0    0
C 104.72567828 28.88160837 -56.97786444     2    873   877   878   879
H 104.39135815 30.88457789 -56.83194514     6    876    0    0    0
H 103.49748164 27.89618822 -55.72238541     6    876    0    0    0
C 107.39744245 28.09981951 -56.24718127     2    876   880   881   882
H 107.67233808 26.02780656 -56.50507980     6    879    0    0    0
H 108.75988929 29.00167636 -57.41517550     6    879    0    0    0
C 107.97232038 28.81914731 -53.50380976     1    879   883   884   885
H 106.45054177 28.07215229 -52.37378166     6    882    0    0    0
H 107.67955366 30.82846404 -52.88784105     6    882    0    0    0
H 109.89921654 28.19238553 -53.02447035     6    882    0    0    0
H 68.44297860 17.52057592 -52.75038128     6     887    0    0    0 
C 68.14576923 19.59603113 -52.58712176     1     886    888    889    890
H 68.59149452 20.40637193 -54.52091228     6     887    0    0    0
H 66.20560597 20.01624145 -52.30818560     6     887    0    0    0
C 69.80855203 20.69700407 -50.44431926     2     887    891    892    893
H 69.25748805 22.74416766 -50.17144810     6     890    0    0    0
H 69.71066629 19.73257493 -48.63132195     6     890    0    0    0
C 72.55285782 20.76851077 -51.24170287     2     890    894   895   896
H 73.30047001 18.97221733 -51.72849984     6     893    0    0    0
H 72.81234964 21.98271034 -52.78505436     6     893    0    0    0
C 74.22413177 22.11148181 -49.14875679     2     893   897   898   899
H 73.61373121 24.09024671 -48.88877223     6    896    0    0    0
H 74.12821250 20.78060583 -47.65674208     6    896    0    0    0
C 77.02875279 22.03723165 -49.64858323     2    896   900   901   902
H 77.41287671 20.08236520 -49.80918649     6    899    0    0    0
H 77.38990473 22.81732124 -51.48540340     6    899    0    0    0
C 78.54839934 23.28874379 -47.50914214     2    899   903   904   905
H 78.05452112 25.30333741 -47.20264425     6    902    0    0    0
H 77.98953065 22.37804947 -45.72360590     6    902    0    0    0
C 81.44334161 22.81822113 -47.49312199     2    902   906   907   908
H 81.83495091 20.78533066 -47.92225375     6    905    0    0    0
H 82.23779460 23.83344141 -49.02917366     6    905    0    0    0
C 82.79385315 23.69279913 -45.05776210     2    905   909   910   911
H 82.67120774 25.69618032 -45.54473806     6    908    0    0    0
H 81.70723772 23.32897539 -43.34437528     6    908    0    0    0
C 85.52486671 22.55005940 -44.73702502     2    908   912   913   914
H 85.37453000 20.44896170 -44.99331784     6    911    0    0    0
H 86.55618553 23.10172201 -46.46097306     6    911    0    0    0
C 86.56054406 23.62446346 -42.15968100     2    911   915   916   917
H 86.61207404 25.62100391 -42.31896161     6    914    0    0    0
H 85.17464717 23.39115518 -40.63875249     6    914    0    0    0
C 89.19034470 22.66773804 -41.59830187     2    914   918   919   920
H 89.39807156 20.53250845 -41.83112549     6    917    0    0    0
H 90.25037188 23.63722428 -42.99431053     6    917    0    0    0
C 90.16233291 23.55335795 -38.97460853     1    917   921   922   923
H 88.86434217 23.44867928 -37.36107582     6    920    0    0    0
H 90.56553799 25.58631679 -39.08269354     6    920    0    0    0
H 92.01925445 22.57479348 -38.52838297     6    920    0    0    0
H 92.68023637 28.17007806 -71.65871666     6     925    0    0    0 
C 91.78843626 29.09004893 -69.98558459     1     924    926    927    928
H 90.71283432 30.63259221 -70.64760583     6     925    0    0    0
H 90.36545457 27.82693440 -69.07394318     6     925    0    0    0
C 93.75563493 30.02876710 -68.14245958     2     925    929    930    931
H 94.68073818 31.53021504 -69.24482439     6     928    0    0    0
H 92.86117330 30.82106743 -66.52416192     6     928    0    0    0
C 95.61224936 27.83424146 -67.15595649     2     928    932   933   934
H 96.49596924 27.04383891 -68.83521406     6     931    0    0    0
H 97.12387171 28.82940605 -66.20580412     6     931    0    0    0
C 94.38769616 26.01014292 -65.28828723     2     931   935   936   937
H 92.88562183 26.94084708 -64.29762255     6    934    0    0    0
H 93.65315749 24.32583267 -66.24112257     6    934    0    0    0
C 96.33308050 25.17880015 -63.17986247     2    934   938   939   940
H 98.20206353 24.74972934 -63.91204353     6    937    0    0    0
H 96.78723594 26.84823694 -61.92783679     6    937    0    0    0
C 95.57424893 22.73468535 -61.70761336     2    937   941   942   943
H 93.53437062 22.76611894 -61.34725224     6    940    0    0    0
H 96.02421730 21.16473927 -62.97935065     6    940    0    0    0
C 97.15420100 22.18370539 -59.28665085     2    940   944   945   946
H 96.93287375 23.89749519 -58.01783601     6    943    0    0    0
H 96.20539491 20.58532746 -58.31627142     6    943    0    0    0
C 100.01461283 21.51844593 -59.98125204     2    943   947   948   949
H 100.16805083 20.02675134 -61.31880569     6    946    0    0    0
H 101.12618636 23.10409398 -60.78949616     6    946    0    0    0
C 101.49953801 20.82578509 -57.58210656     2    946   950   951   952
H 101.21379653 22.00130400 -55.99222851     6    949    0    0    0
H 100.75148702 18.93640952 -57.19263091     6    949    0    0    0
C 104.20462607 20.47562478 -58.07891810     2    949   953   954   955
H 104.73589732 19.31240729 -59.72203001     6    952    0    0    0
H 104.96901761 22.26790279 -58.64677683     6    952    0    0    0
C 105.70735430 19.45886720 -55.92202390     2    952   956   957   958
H 105.08903422 20.39192462 -54.06165139     6    955    0    0    0
H 105.26872689 17.47321784 -55.76720507     6    955    0    0    0
C 108.53436731 19.55210515 -56.22085033     1    955   959   960   961
H 109.28962671 19.24334183 -54.33285079     6    958    0    0    0
H 109.19095083 21.27844760 -56.90295841     6    958    0    0    0
H 109.06349087 18.03432957 -57.46516617     6    958    0    0    0
H 70.03342377 23.49367423 -33.92758738     6     963    0    0    0 
C 71.24569981 22.43194749 -32.86426708     1     962    964    965    966
H 70.03378483 21.99221384 -31.19636458     6     963    0    0    0
H 71.60787930 20.71655284 -34.01418406     6     963    0    0    0
C 73.24963450 24.34980913 -32.48973833     2     963    967    968    969
H 74.99696355 23.57252141 -31.71937821     6     966    0    0    0
H 74.06384719 24.81904933 -34.38170612     6     966    0    0    0
C 72.39646954 26.58988490 -30.91380965     2     966    970   971   972
H 71.07689700 25.82694173 -29.50388574     6     969    0    0    0
H 73.96056323 27.18775685 -29.62078144     6     969    0    0    0
C 71.22564955 28.68512427 -32.48914074     2     969   973   974   975
H 72.46020120 29.51162119 -33.81913996     6    972    0    0    0
H 69.74183083 27.90156731 -33.54477168     6    972    0    0    0
C 69.58390839 30.64456022 -30.92327705     2    972   976   977   978
H 68.53061270 29.64277049 -29.49718699     6    975    0    0    0
H 70.87457867 31.78404229 -29.97523174     6    975    0    0    0
C 67.74423646 32.22702853 -32.38460940     2    975   979   980   981
H 68.76764018 33.46540342 -33.73516478     6    978    0    0    0
H 66.55758461 31.07912489 -33.52504631     6    978    0    0    0
C 66.07512028 34.02755415 -30.71552695     2    978   982   983   984
H 65.27480243 33.02122881 -29.16946260     6    981    0    0    0
H 67.51744531 35.43046076 -30.01344075     6    981    0    0    0
C 64.07190157 35.29750464 -32.23310514     2    981   985   986   987
H 65.06407994 36.66365775 -33.69782191     6    984    0    0    0
H 62.95323336 33.93668770 -33.35015405     6    984    0    0    0
C 62.33565572 36.94452748 -30.61491697     2    984   988   989   990
H 60.76507978 37.70279067 -31.73705451     6    987    0    0    0
H 61.23208311 35.89691542 -29.23510702     6    987    0    0    0
C 63.89940279 39.05197419 -29.34660486     2    987   991   992   993
H 64.97753575 38.16127816 -27.77699488     6    990    0    0    0
H 65.22302129 39.97653580 -30.53365546     6    990    0    0    0
C 62.13281531 40.89667221 -28.08246307     2    990   994   995   996
H 60.89401243 41.81482862 -29.46342022     6    993    0    0    0
H 60.80417435 40.19378967 -26.63404645     6    993    0    0    0
C 63.58913531 42.92752525 -26.73079919     1    993   997   998   999
H 64.22927051 42.38663636 -24.94983447     6    996    0    0    0
H 62.36449649 44.46836795 -26.19693510     6    996    0    0    0
H 65.18933368 43.50877867 -27.83563589     6    996    0    0    0
H 64.12941155 7.59170878 -34.59443982     6     1001    0    0    0 
C 63.89492381 9.31201250 -35.69302851     1     1000    1002    1003    1004
H 65.44498674 9.36975878 -37.02654836     6     1001    0    0    0
H 62.18891034 8.71501154 -36.50137448     6     1001    0    0    0
C 63.72849254 11.79915118 -34.20504436     2     1001    1005    1006    1007
H 63.17970680 13.15037953 -35.53928711     6     1004    0    0    0
H 62.08233695 11.71926571 -33.08963393     6     1004    0    0    0
C 65.93213107 12.83825904 -32.68755552     2     1004    1008   1009   1010
H 66.79774982 11.32597759 -31.50115040     6     1007    0    0    0
H 67.52063218 13.43774485 -33.97008298     6     1007    0    0    0
C 65.22825303 15.03154846 -31.02333640     2     1007   1011   1012   1013
H 64.31074298 16.61208041 -31.94992933     6    1010    0    0    0
H 63.87511354 14.24140731 -29.79962230     6    1010    0    0    0
C 67.31210458 15.84080978 -29.01214418     2    1010   1014   1015   1016
H 67.45308703 14.18088148 -27.85574391     6    1013    0    0    0
H 69.13657164 16.19554530 -29.93144034     6    1013    0    0    0
C 66.29960354 18.24862332 -27.56927261     2    1013   1017   1018   1019
H 66.56521740 19.99276500 -28.67537626     6    1016    0    0    0
H 64.27186369 18.04324864 -27.23204267     6    1016    0    0    0
C 67.40276295 18.69833254 -24.89726872     2    1016   1020   1021   1022
H 67.26391054 16.93525966 -23.85235011     6    1019    0    0    0
H 69.56023937 18.66160893 -25.08673282     6    1019    0    0    0
C 66.26361154 20.94741165 -23.21888054     2    1019   1023   1024   1025
H 64.25852650 20.70502785 -23.51501339     6    1022    0    0    0
H 66.66617330 20.70488158 -21.26638495     6    1022    0    0    0
C 67.39372949 23.64583454 -23.84419314     2    1022   1026   1027   1028
H 69.19253195 23.94279927 -22.97493092     6    1025    0    0    0
H 67.53582960 24.07327686 -25.94680332     6    1025    0    0    0
C 65.73033468 25.70011621 -22.75754872     2    1025   1029   1030   1031
H 64.06551736 25.48917108 -23.90101611     6    1028    0    0    0
H 65.27825979 25.52344275 -20.75772503     6    1028    0    0    0
C 67.28784426 28.28386230 -23.03998925     2    1028   1032   1033   1034
H 68.63401453 28.53268923 -21.45501219     6    1031    0    0    0
H 68.38577907 28.30289361 -24.90865613     6    1031    0    0    0
C 65.41110341 30.41626462 -23.34428912     1    1031   1035   1036   1037
H 66.27765880 32.30756436 -23.34963795     6    1034    0    0    0
H 64.31415541 30.38857658 -21.56803012     6    1034    0    0    0
H 64.17850735 30.13505737 -25.03715586     6    1034    0    0    0
H 57.27974253 24.06520815 -56.65849721     6     1039    0    0    0 
C 57.33455778 23.54399737 -58.58374901     1     1038    1040    1041    1042
H 56.01760034 21.99674691 -58.56721961     6     1039    0    0    0
H 56.43189024 25.11688975 -59.59086237     6     1039    0    0    0
C 59.94070973 22.77997186 -59.63587583     2     1039    1043    1044    1045
H 61.44621111 23.94891980 -58.85135695     6     1042    0    0    0
H 60.11190830 20.83308149 -58.92899315     6     1042    0    0    0
C 60.58654805 22.35542742 -62.50960462     2     1042    1046   1047   1048
H 59.19022552 21.10444616 -63.50585078     6     1045    0    0    0
H 60.69634823 24.18251551 -63.50846313     6     1045    0    0    0
C 63.22138505 21.12202711 -62.51040307     2     1045   1049   1050   1051
H 64.48604455 21.91239896 -61.03950928     6    1048    0    0    0
H 63.00672299 19.08777662 -62.03270872     6    1048    0    0    0
C 64.54903374 21.26926633 -65.22510165     2    1048   1052   1053   1054
H 63.24468834 21.16464634 -66.78910120     6    1051    0    0    0
H 65.40159604 23.18338454 -65.53912438     6    1051    0    0    0
C 66.48375020 19.17190152 -65.60166962     2    1051   1055   1056   1057
H 67.88037303 19.22156551 -64.16028790     6    1054    0    0    0
H 65.26302558 17.48401974 -65.35969763     6    1054    0    0    0
C 67.57326611 19.12507898 -68.19933403     2    1054   1058   1059   1060
H 66.12485971 19.12559915 -69.75367400     6    1057    0    0    0
H 68.40606507 20.87919777 -68.62677785     6    1057    0    0    0
C 69.81363509 17.30748012 -68.63429667     2    1057   1061   1062   1063
H 71.21967883 17.53634581 -67.29253797     6    1060    0    0    0
H 68.92445032 15.57770170 -68.18221968     6    1060    0    0    0
C 70.71194487 16.95127892 -71.29763795     2    1060   1064   1065   1066
H 69.50254449 15.52178498 -72.18658427     6    1063    0    0    0
H 70.59028354 18.78183810 -72.33355072     6    1063    0    0    0
C 73.40820403 15.92722296 -71.49229230     2    1063   1067   1068   1069
H 74.39528645 17.25265414 -70.38056181     6    1066    0    0    0
H 73.60857492 14.01111299 -70.59261545     6    1066    0    0    0
C 74.43091310 15.69787096 -74.12981404     2    1066   1070   1071   1072
H 74.00991948 13.83557260 -75.15115024     6    1069    0    0    0
H 73.58222208 16.94117064 -75.50577354     6    1069    0    0    0
C 77.28706907 16.08771614 -74.22687755     1    1069   1073   1074   1075
H 77.75343973 17.93949109 -73.98531557     6    1072    0    0    0
H 78.00191914 15.63399500 -76.09719264     6    1072    0    0    0
H 78.51032360 14.97194073 -72.88431888     6    1072    0    0    0
H 84.81626974 36.95815089 -75.24118085     6     1077    0    0    0 
C 83.09008619 36.95088737 -74.21243276     1     1076    1078    1079    1080
H 83.21021476 38.28461356 -72.81487745     6     1077    0    0    0
H 81.68564751 37.55194552 -75.54626570     6     1077    0    0    0
C 82.28938142 34.30735157 -73.29832914     2     1077    1081    1082    1083
H 80.26779964 34.19112560 -72.88804269     6     1080    0    0    0
H 82.39845712 32.90486678 -74.78804888     6     1080    0    0    0
C 83.80372615 33.62108810 -70.77891640     2     1080    1084   1085   1086
H 85.80129361 33.71577574 -71.23883232     6     1083    0    0    0
H 83.65873522 34.96858689 -69.36731397     6     1083    0    0    0
C 83.23585098 30.92024189 -69.79274418     2     1083   1087   1088   1089
H 81.31196026 30.67986336 -69.36217408     6    1086    0    0    0
[...]
 1762      H      97.9574097200    32.5508440800   -32.9054516100
 1763      H      99.0590252200    34.8418178200   -30.9218683800
 1764      C      95.4386978700    35.9095282700   -32.3562437500
 1765      H      95.5119644900    38.0772506400   -32.3767207600
 1766      H      94.1984625600    35.5562584100   -33.9124202500
 1767      C      94.2306547100    35.3864454300   -29.8769184700
 1768      H      94.5881912300    33.3686318800   -29.6419993300
 1769      H      95.0354151500    36.5818085400   -28.3548688400
 1770      C      91.4451328100    35.8890019200   -30.0191488100
 1771      H      91.1981474000    37.7909512500   -30.5175086100
 1772      H      90.4548130000    34.9116208500   -31.5533152800
 1773      C      90.0142502400    35.2520645500   -27.6592842900
 1774      H      89.8000276300    33.1667189100   -27.4763547100
 1775      H      91.0001972700    35.9107593200   -25.8768044600
 1776      C      87.5649861700    36.7626592200   -27.5515241200
 1777      H      87.7542982600    38.7797805900   -27.2859924800
 1778      H      86.7277793700    36.4926895600   -29.4525095600
 1779      C      85.5791452500    35.5663929300   -25.6956505500
 1780      H      85.1259066600    33.7842105900   -26.4847131600
 1781      H      86.6130944100    35.1561460500   -23.9611857700
 1782      C      83.1163106400    36.8935923100   -25.2257536900
 1783      H      82.2816136100    37.3661956900   -27.0046086400
 1784      H      81.6974222800    35.5914363500   -24.5183639200
 1785      C      83.4405552500    38.9719546000   -23.3576951100
 1786      H      84.1338067300    38.3133858800   -21.4705449900
 1787      H      84.8746628800    40.1969194900   -24.3176977700
 1788      C      81.0277275900    40.3837484300   -22.7508706000
 1789      H      80.5066223800    41.1660995600   -24.6091422600
 1790      H      79.4983280200    38.9584039200   -22.2702394400
 1791      C      81.4270809100    42.4227668700   -20.6999062000
 1792      H      82.1974030700    41.5825823800   -19.0165356900
 1793      H      82.9125899400    43.7664628400   -20.9548429400
 1794      C      79.2114930200    44.1258490200   -19.9257279600
 1795      H      77.6719062600    43.2289084600   -18.9387924400
 1796      H      78.4237651700    44.8154982000   -21.7005331600
 1797      H      79.8948832100    45.7694846400   -19.0808974300
 1798      H      74.6739925000    40.5816811000   -71.7927420700
 1799      C      74.3474363100    38.8031075100   -71.0075338100
 1800      H      72.3548808000    38.3918689000   -71.0953433100
 1801      H      75.0933641400    37.3334738900   -72.3493230900
 1802      C      75.5768037900    38.2485655600   -68.4845588200
 1803      H      77.5552069600    38.5486408100   -68.8412909300
 1804      H      75.0134894200    39.6170197900   -66.9525143900
 1805      C      75.3816971300    35.3744960700   -67.6921681100
 1806      H      73.4245703700    34.8729589900   -67.2387099500
 1807      H      75.7142719200    34.3038586800   -69.3620955300
 1808      C      77.2168273700    34.4642688700   -65.6785091200
 1809      H      79.1928975400    34.4056248500   -66.2756777300
 1810      H      76.9768456900    35.7825786000   -64.0867987100
 1811      C      76.3681153400    31.9064349000   -64.6996235800
 1812      H      74.3909007500    31.7595954900   -64.1026747100
 1813      H      76.0391346500    30.7791635500   -66.3564608200
 1814      C      78.1030851700    30.5583938000   -62.6787463400
 1815      H      80.0826662600    30.6083233100   -63.0915133900
 1816      H      78.1329671700    31.8408290500   -61.1137677800
 1817      C      76.9821239600    27.8904195000   -61.9549771100
 1818      H      75.1780420300    28.0047700800   -61.0907065400
 1819      H      76.3952149800    26.8759742000   -63.5810493600
 1820      C      78.7404676600    26.4097367700   -60.2783720400
 1821      H      80.5530838000    26.2745660100   -61.2818119400
 1822      H      79.0334459700    27.2794478100   -58.4685142500
 1823      C      77.6527790800    23.6999349100   -59.7151072900
 1824      H      75.7985670300    23.9684002500   -58.8962858400
 1825      H      77.5200541200    22.5262904900   -61.4565233300
 1826      C      79.2572034300    22.2001244000   -57.9147269700
 1827      H      81.1542134200    21.9874788300   -58.7670373600
 1828      H      79.3503646400    23.2218112400   -56.1271399700
 1829      C      78.1606506700    19.7062711800   -57.4609946200
 1830      H      76.4163098700    19.7568937100   -56.6768581500
 1831      H      78.1338553400    18.6412837500   -59.2231754000
 1832      C      79.7809506900    18.2202503900   -55.5706204800
 1833      H      79.6156336300    18.8712628400   -53.5987079200
 1834      H      81.7788733500    18.1471744000   -55.8846335600
 1835      H      79.3047550900    16.2147629700   -55.7060618000
 1836      H      80.4449466900    28.9102619400   -53.4915570800
 1837      C      82.3144402900    28.1989811400   -53.2930826200
 1838      H      82.9130796900    29.0869378700   -51.4981322800
 1839      H      82.2757664300    26.1345808700   -53.2744970400
 1840      C      83.9810487100    28.9779166500   -55.5522394300
 1841      H      85.7821044500    27.8894607900   -55.4661243100
 1842      H      83.0218417300    28.4873224100   -57.2991650300
 1843      C      84.8951933400    31.7628373300   -55.7449487400
 1844      H      83.4286896300    33.2657054800   -55.6205455400
 1845      H      86.1060671600    32.3834429400   -54.1702995300
 1846      C      86.5891988000    32.1047834700   -58.0554604700
 1847      H      88.5498011000    32.2237426800   -57.4420864100
 1848      H      86.3432955600    30.5887055700   -59.3276975100
 1849      C      86.1510154800    34.7129918300   -59.5117486600
 1850      H      84.2667796800    35.2887099000   -60.1027085100
 1851      H      86.8282716700    36.2799610300   -58.3988705200
 1852      C      87.8171159900    34.4699529300   -61.9065155800
 1853      H      89.8221511400    34.7535049800   -61.4305138900
 1854      H      87.5877437700    32.7468395200   -62.8760647000
 1855      C      87.2392498700    36.4150273000   -64.0439534500
 1856      H      85.3163737300    36.4886015800   -64.6049386100
 1857      H      87.6895279300    38.4060067800   -63.5002351500
 1858      C      88.6925534100    35.8642391900   -66.4182950300
 1859      H      90.7804264500    35.4452697000   -66.0905057700
 1860      H      87.7336662500    34.3245463200   -67.1029269800
 1861      C      88.3120897900    38.0434606500   -68.2603362400
 1862      H      86.3766012200    38.3722809700   -68.8248111400
 1863      H      88.7526301300    39.6791935300   -67.1226417100
 1864      C      89.9793343500    37.5703137000   -70.5989066700
 1865      H      91.9039719000    37.0080262200   -70.0240801700
 1866      H      89.2866813600    35.8479477300   -71.6253550900
 1867      C      89.9580732000    40.0634380200   -72.1614322600
 1868      H      88.0049822700    40.4360538000   -72.8706142900
 1869      H      90.2674073700    41.6884449700   -70.9443204600
 1870      C      91.8290018800    39.9242076600   -74.4817297700
 1871      H      92.0087265700    41.8873467400   -75.0141568000
 1872      H      91.1551949000    38.5389837400   -75.9050360200
 1873      H      93.6282106700    39.1830483400   -73.8720976500
 1874      H      70.9366125100    54.0981700500   -43.2145098700
 1875      C      69.4497871800    52.8414500100   -43.6943054800
 1876      H      67.5209688300    53.2817760500   -43.0884892800
 1877      H      69.3615205400    52.8241225400   -45.7482561000
 1878      C      70.0467214500    50.2422063000   -42.5831506400
 1879      H      71.9533793100    49.6352283100   -43.4346715800
 1880      H      70.7880793600    50.3532356200   -40.7084847100
 1881      C      68.1401717200    48.2341005800   -43.1283701200
 1882      H      66.2791937800    48.7274551100   -42.3804715000
 1883      H      67.8511578900    48.0397344000   -45.2401908800
 1884      C      68.7177791700    45.7454119500   -41.7371110100
 1885      H      70.6205648600    45.3054229000   -42.5374480800
 1886      H      68.8323754300    45.8536472500   -39.7650345900
 1887      C      67.2701980800    43.4465485900   -42.5788954800
 1888      H      65.2554904600    43.7130936200   -42.5945650400
 1889      H      67.6641105000    43.0948653200   -44.5834024800
 1890      C      67.6906914800    40.9836403800   -41.0227086000
 1891      H      69.6095056300    40.4226335400   -41.2840380900
 1892      H      67.4030876700    41.3624685600   -38.9620849300
 1893      C      65.9673787700    38.8590693800   -41.9737816700
 1894      H      64.0340089900    39.3563500200   -41.9944685600
 1895      H      66.5058688100    38.4859562500   -43.9105173100
 1896      C      66.0899987900    36.4688207600   -40.3095546500
 1897      H      67.9409347500    35.6212269500   -40.2718403800
 1898      H      65.8231531800    36.9033591100   -38.4532833400
 1899      C      64.3913305600    34.3800064300   -41.4459770100
 1900      H      62.5111175300    34.9666230200   -41.1564482700
 1901      H      64.7848116000    34.0163876500   -43.3468326700
 1902      C      64.6996261100    31.9251259900   -39.9288644200
 1903      H      66.5956490500    31.2506394000   -40.0843691300
 1904      H      64.2670853600    32.2808855500   -38.0229208300
 1905      C      63.1721981100    29.6559335700   -40.9027369200
 1906      H      63.9536594600    29.4165170500   -42.9086311500
 1907      H      63.4173438600    27.7114317800   -39.9263390600
 1908      C      60.3888163100    30.2838309000   -40.9753091700
 1909      H      60.0689866500    32.0665460700   -42.0764805200
 1910      H      59.5122104000    30.3625243300   -39.0553798500
 1911      H      59.2099451300    28.9068891500   -42.1761584500
 ----------------------------------------------------------------
 Nuclear Repulsion Energy =           0.00000000 hartrees
 There are     2498 alpha and     2498 beta electrons

 Total QAlloc Memory Limit   2000 MB
 Mega-Array Size       204 MB
 MEM_STATIC part       192 MB
   **** Step 1: MM calculation on the entire system **** 
 OPLSAA force field loaded.
Reading user-defined FF parameters...
 Reading user defined atom types.
 Found 3 user defined AtomTypes
finished.
Determining angles, torsions, etc. from user defined input
Determining VDW/Coulomb pairs... (useList = 0)

 Time req'd to get MM system information: 0.2 s (CPU) 0.2 s (wall)

 ------ MM Energies ------
   Ebond:           555.591386230121
   Eangle:          892.905893256398
   EUreyBrad:         0.000000000000
   Eimptors:          0.000000000000
   Etorsion:        216.669706586885
   Evdw:        1159154.645888399798
   Ecoulomb:        183.590666051465
   Etot:        1161003.403540524654 Kcal/mol (   1850.176702019091 hartree)
 -------------------------
 Time req'd to calc MM energy: 0.1 s (CPU) 0.1 s (wall)
 OPLSAA force field loaded.
Reading user-defined FF parameters...
 Reading user defined atom types.
 Found 3 user defined AtomTypes
finished.
 Time req'd to get MM system information: 0.0 s (CPU) 0.0 s (wall)
 Time req'd to calc MM gradient: 0.2 s (CPU) 0.2 s (wall)
   **** Step 2: MM calculation on the model system **** 
 Reading user defined atom types.
 Found 3 user defined AtomTypes
 ----------------------------------------------------------------
             Standard Nuclear Orientation (Bohr)
    I     Atom           X                Y                Z
 ----------------------------------------------------------------
    1      Fe     73.9710155800    34.0780744400   -44.0656079400
    2      C      72.6091796300    33.1898168700   -41.1384034200
    3      C      73.4346868100    37.2212421200   -44.9995585700
    4      C      76.7065052300    35.0617515100   -42.2972642200
    5      C      75.9730872400    31.8481621500   -45.6192859700
    6      C      70.9059995500    33.1518044200   -45.3605282300
    7      O      71.8478399200    32.5348020500   -39.1649344100
    8      O      72.7909644900    39.3089362100   -45.3582676600
    9      O      78.4880998700    35.6054942700   -41.2174352900
   10      O      77.0839242700    30.1340364900   -46.4208071900
   11      O      68.9885105700    32.4512364400   -46.1873508700
 ----------------------------------------------------------------
 Nuclear Repulsion Energy =         807.39129512 hartrees
 There are       48 alpha and       48 beta electrons
 OPLSAA force field loaded.
Reading user-defined FF parameters...
 Reading user defined atom types.
 Found 3 user defined AtomTypes
finished.
Determining VDW/Coulomb pairs... (useList = 0)

 No MM bonds in system. Return all possible pairs.
 Time req'd to get MM system information: 0.0 s (CPU) 0.0 s (wall)

 ------ MM Energies ------
   Ebond:             0.000000000000
   Eangle:            0.000000000000
   EUreyBrad:         0.000000000000
   Eimptors:          0.000000000000
   Etorsion:          0.000000000000
   Evdw:        1159593.102943517501
   Ecoulomb:         -6.485390291086
   Etot:        1159586.617553226417 Kcal/mol (   1847.918909821883 hartree)
 -------------------------
 Eold: 1850.1767020 mm_energy: 1847.9189098 Enew:    2.2577922
 Time req'd to calc MM energy: 0.0 s (CPU) 0.0 s (wall)
 OPLSAA force field loaded.
Reading user-defined FF parameters...
 Reading user defined atom types.
 Found 3 user defined AtomTypes
finished.
Determining VDW/Coulomb pairs... (useList = 0)

 No MM bonds in system. Return all possible pairs.
 Time req'd to get MM system information: 0.0 s (CPU) 0.0 s (wall)
 Number of fixed atoms: 0
 Time req'd to calc MM gradient: 0.0 s (CPU) 0.0 s (wall)
   **** Step 3: QM calculation on the model system **** 
 Requested basis set is def2-mSVP
 There are 80 shells and 174 basis functions

                       Distance Matrix (Bohrs)
             Fe(  1)   C (  2)   C (  3)   C (  4)   C (  5)   C (  6)
   C (  2)  3.348451
   C (  3)  3.322562  5.642904
   C (  4)  3.402582  4.651363  4.761364
   C (  5)  3.375606  5.761443  5.974741  4.679838
   C (  6)  3.453856  4.552868  4.804673  6.832082  5.238494
   O (  7)  5.559331  2.214331  7.650075  6.309009  7.690760  6.297074
   O (  8)  5.515923  7.435316  2.213937  6.537567  8.115244  6.439206
   O (  9)  5.554201  6.356371  6.515526  2.153083  6.310240  8.981874
   O ( 10)  5.549108  7.567359  8.097244  6.436492  2.194225  6.956858
   O ( 11)  5.654534  6.256726  6.628144  9.028566  7.033542  2.202543
             O (  7)   O (  8)   O (  9)   O ( 10)
   O (  8)  9.226904
   O (  9)  7.598353  7.957344
   O ( 10)  9.264337 10.185150  7.680081
   O ( 11)  7.582683  7.885054 11.175491  8.423755

 A cutoff of  1.0D-11 yielded   2500 shell pairs
 There are     12872 function pairs (     14740 Cartesian)
 Smallest overlap matrix eigenvalue = 2.25E-03
 Guess MOs from SCF MO coefficient file
 Reading MOs from coefficient file
 Reading MOs from coefficient file
 A restricted Kohn-Sham SCF calculation will be
 performed using Pulay DIIS extrapolation
 Exchange:  B88      Correlation:  P86
 Using SG-1 standard quadrature grid
 SCF converges when DIIS error is below 1.0E-08
 Using Q-Chem read-in guess as SCF_GUESS READ specified.

 using 2 threads for integral computing
 -------------------------------------------------------
 OpenMP Integral computing Module                
 Release: version 1.0, May 2013, Q-Chem Inc. Pittsburgh 
 -------------------------------------------------------
 ---------------------------------------
  Cycle       Energy         DIIS Error
 ---------------------------------------
    1   -1830.5202886907      1.97E-09
    2   -1830.5202886903      5.89E-09 Convergence criterion met
 ---------------------------------------
 SCF time:  CPU 2.77 s  wall 1.45 s
 E(QM + QM/MM):    -1830.5202886903 E(MM):    2.2577922 E(Tot): -1828.262496493051 
 SCF   energy in the final basis set = -1828.26249649
 Total energy in the final basis set = -1828.26249649

 --------------------------------------------------------------

                    Orbital Energies (a.u.)
 --------------------------------------------------------------

 Alpha MOs
 -- Occupied --
******** -29.6376 -25.5966 -25.5839 -25.5819 -18.8943 -18.8887 -18.8749
-18.8709 -18.8697 -10.0608 -10.0581 -10.0464 -10.0382 -10.0353  -3.3238
 -2.1578  -2.1339  -2.1309  -1.0811  -1.0600  -1.0454  -1.0447  -1.0394
 -0.5791  -0.5321  -0.5201  -0.5144  -0.5140  -0.4602  -0.4523  -0.4500
 -0.4413  -0.4352  -0.4295  -0.4241  -0.4170  -0.4155  -0.4077  -0.4067
 -0.4051  -0.3999  -0.3989  -0.3788  -0.2796  -0.2754  -0.2364  -0.2259
 -- Virtual --
 -0.0949  -0.0886  -0.0838  -0.0773  -0.0748  -0.0693  -0.0630  -0.0585
 -0.0381  -0.0296  -0.0229   0.0107   0.1850   0.2123   0.2249   0.2532
  0.2960   0.3452   0.3632   0.3993   0.4088   0.4136   0.4275   0.4414
  0.4566   0.4815   0.4989   0.5013   0.5299   0.5661   0.5745   0.5857
  0.6108   0.6181   0.6441   0.6618   0.7358   0.7569   0.7617   0.7661
  0.7842   0.8364   0.8397   0.8522   0.8701   0.9247   0.9495   0.9621
  0.9738   0.9839   0.9879   0.9976   1.0104   1.0233   1.0329   1.0646
  1.2099   1.2518   1.3159   1.3210   1.3987   1.4046   1.4070   1.4146
  1.4185   1.4214   1.4262   1.4313   1.4544   1.4737   1.4763   1.4951
  1.5100   1.5329   1.5646   1.5888   1.6139   1.6555   1.6739   1.6869
  1.7097   1.8289   1.8322   1.8397   1.8415   1.8441   1.8547   1.8579
  1.8679   1.8713   1.8796   1.8866   1.8955   1.8990   1.9030   1.9620
  2.3816   2.4128   2.4200   2.4587   2.4708   2.4759   2.4850   2.4901
  2.5107   2.5123   2.6492   2.6553   2.6619   2.6816   2.6919   2.8233
  2.8358   2.9016   2.9200   2.9832  13.2914  13.3036  13.3381  13.3541
 13.4643  24.9130  24.9309  24.9515  24.9694  25.0279
 --------------------------------------------------------------

          Ground-State Mulliken Net Atomic Charges

     Atom                 Charge (a.u.)
  ----------------------------------------
      1 Fe                   -0.501170
      2 C                     0.223806
      3 C                     0.216116
      4 C                     0.195149
      5 C                     0.214530
      6 C                     0.212249
      7 O                    -0.123601
      8 O                    -0.128937
      9 O                    -0.083036
     10 O                    -0.117295
     11 O                    -0.107810
  ----------------------------------------
  Sum of atomic charges =     0.000000

 -----------------------------------------------------------------
                    Cartesian Multipole Moments
 -----------------------------------------------------------------
    Charge (ESU x 10^10)
                -0.0000
    Dipole Moment (Debye)
         X       0.2194155231      Y       0.1808890481      Z       0.1762023088
       Tot       0.3345314232
    Quadrupole Moments (Debye-Ang)
        XX     -51.3603     XY      12.1164     YY     -64.4048
        XZ       2.4168     YZ      -0.7291     ZZ     -77.4546
    Octopole Moments (Debye-Ang^2)
       XXX   -7031.4073    XXY    -560.3695    XYY   -2408.3406
       YYY   -3664.6704    XXZ    1510.1959    XYZ    -138.3082
       YYZ    1567.4574    XZZ   -2937.4039    YZZ   -1308.4617
       ZZZ    5099.9559
    Hexadecapole Moments (Debye-Ang^3)
      XXXX -576932.6362   XXXY -110508.3343   XXYY -112243.6004
      XYYY -140958.6843   YYYY -135120.4286   XXXZ  176550.2500
      XXYZ   18866.6792   XYYZ   58787.9087   YYYZ   86623.5848
      XXZZ -148455.3868   XYZZ  -48754.7009   YYZZ  -60646.4881
      XZZZ  197522.9810   YZZZ   89863.0981   ZZZZ -232536.1341
 -----------------------------------------------------------------
 Calculating MO derivatives via CPSCF
 Full subspace dimension requested for CIS/TDDFT
 MAX_CIS_SUBSPACE fits in available memory
    1     0    36    0.0404671  
    2     0    36    0.0064173  
    3     0    36    0.0005730  
