                  Welcome to Q-Chem
     A Quantum Leap Into The Future Of Chemistry


 Q-Chem 5.4 (devel), Q-Chem, Inc., Pleasanton, CA (2021)

 E. Epifanovsky,  A. T. B. Gilbert,  Xintian Feng,  Joonho Lee,  Yuezhi Mao,  
 N. Mardirossian,  P. Pokhilko,  A. White,  M. Wormit,  M. P. Coons,  
 A. L. Dempwolff,  Zhengting Gan,  D. Hait,  P. R. Horn,  L. D. Jacobson,  
 I. Kaliman,  J. Kussmann,  A. W. Lange,  Ka Un Lao,  D. S. Levine,  Jie Liu,  
 S. C. McKenzie,  A. F. Morrison,  K. Nanda,  F. Plasser,  D. R. Rehn,  
 M. L. Vidal,  Zhi-Qiang You,  Ying Zhu,  B. Alam,  B. Albrecht,  
 A. Aldossary,  E. Alguire,  J. H. Andersen,  D. Barton,  K. Begam,  A. Behn,  
 Y. A. Bernard,  E. J. Berquist,  H. Burton,  A. Carreras,  K. Carter-Fenk,  
 R. Chakraborty,  A. D. Chien,  K. D. Closser,  V. Cofer-Shabica,  
 S. Dasgupta,  Jia Deng,  M. de Wergifosse,  M. Diedenhofen,  Hainam Do,  
 S. Ehlert,  Po-Tung Fang,  S. Fatehi,  Qingguo Feng,  T. Friedhoff,  
 J. Gayvert,  Qinghui Ge,  G. Gidofalvi,  M. Goldey,  J. Gomes,  
 C. Gonzalez-Espinoza,  S. Gulania,  A. Gunina,  M. W. D. Hanson-Heine,  
 P. H. P. Harbach,  A. W. Hauser,  M. F. Herbst,  M. Hernandez Vera,  
 M. Hodecker,  Z. C. Holden,  S. Houck,  Xunkun Huang,  Kerwin Hui,  
 B. C. Huynh,  M. Ivanov,  Hyunjun Ji,  Hanjie Jiang,  B. Kaduk,  S. Kaehler,  
 K. Khistyaev,  Jaehoon Kim,  P. Klunzinger,  Z. Koczor-Benda,  
 Joong Hoon Koh,  D. Kosenkov,  L. Koulias,  T. Kowalczyk,  C. M. Krauter,  
 K. Kue,  A. Kunitsa,  T. Kus,  A. Landau,  K. V. Lawler,  D. Lefrancois,  
 S. Lehtola,  Rain Li,  Yi-Pei Li,  Jiashu Liang,  M. Liebenthal,  
 Hung-Hsuan Lin,  You-Sheng Lin,  Fenglai Liu,  Kuan-Yu Liu,  
 M. Loipersberger,  A. Luenser,  A. Manjanath,  P. Manohar,  E. Mansoor,  
 S. F. Manzer,  Shan-Ping Mao,  A. V. Marenich,  T. Markovich,  S. Mason,  
 S. A. Maurer,  P. F. McLaughlin,  M. F. S. J. Menger,  J.-M. Mewes,  
 S. A. Mewes,  P. Morgante,  J. W. Mullinax,  K. J. Oosterbaan,  G. Paran,  
 Alexander C. Paul,  Suranjan K. Paul,  F. Pavosevic,  Zheng Pei,  S. Prager,  
 E. I. Proynov,  E. Ramos,  B. Rana,  A. E. Rask,  A. Rettig,  R. M. Richard,  
 F. Rob,  E. Rossomme,  T. Scheele,  M. Scheurer,  M. Schneider,  
 N. Sergueev,  S. M. Sharada,  W. Skomorowski,  D. W. Small,  C. J. Stein,  
 Yu-Chuan Su,  E. J. Sundstrom,  Zhen Tao,  J. Thirman,  T. Tsuchimochi,  
 N. M. Tubman,  S. P. Veccham,  O. Vydrov,  J. Wenzel,  J. Witte,  A. Yamada,  
 Kun Yao,  S. Yeganeh,  S. R. Yost,  A. Zech,  Igor Ying Zhang,  Xing Zhang,  
 Yu Zhang,  D. Zuev,  A. Aspuru-Guzik,  A. T. Bell,  N. A. Besley,  
 K. B. Bravaya,  B. R. Brooks,  D. Casanova,  Jeng-Da Chai,  S. Coriani,  
 C. J. Cramer,  A. E. DePrince, III,  R. A. DiStasio Jr.,  A. Dreuw,  
 B. D. Dunietz,  T. R. Furlani,  W. A. Goddard III,  S. Grimme,  
 S. Hammes-Schiffer,  T. Head-Gordon,  W. J. Hehre,  Chao-Ping Hsu,  
 T.-C. Jagau,  Yousung Jung,  A. Klamt,  Jing Kong,  D. S. Lambrecht,  
 WanZhen Liang,  N. J. Mayhall,  C. W. McCurdy,  J. B. Neaton,  
 C. Ochsenfeld,  J. A. Parkhill,  R. Peverati,  V. A. Rassolov,  Yihan Shao,  
 L. V. Slipchenko,  T. Stauch,  R. P. Steele,  J. E. Subotnik,  
 A. J. W. Thom,  A. Tkatchenko,  D. G. Truhlar,  T. Van Voorhis,  
 T. A. Wesolowski,  K. B. Whaley,  H. L. Woodcock III,  P. M. Zimmerman,  
 S. Faraji,  P. M. W. Gill,  M. Head-Gordon,  J. M. Herbert,  A. I. Krylov

 Additional authors for Version 5.4.1: 
 S. Kotaru,  Shaozhi Li,  Xiangyuan Li,  F. Matz,  A. Molle,  Haisheng Ren,  
 Yingli Su,  Hung-Yi Tsai,  C. Utku,  Fang Wang

 Contributors to earlier versions of Q-Chem not listed above: 
 R. D. Adamson,  B. Austin,  R. Baer,  J. Baker,  G. J. O. Beran,  
 K. Brandhorst,  S. T. Brown,  E. F. C. Byrd,  A. K. Chakraborty,  
 G. K. L. Chan,  Chun-Min Chang,  Yunqing Chen,  C.-L. Cheng,  
 Siu Hung Chien,  D. M. Chipman,  D. L. Crittenden,  H. Dachsel,  
 R. J. Doerksen,  A. D. Dutoi,  R. G. Edgar,  J. Fosso-Tande,  
 L. Fusti-Molnar,  D. Ghosh,  A. Ghysels,  A. Golubeva-Zadorozhnaya,  
 J. Gonthier,  M. S. Gordon,  S. R. Gwaltney,  G. Hawkins,  J. E. Herr,  
 A. Heyden,  S. Hirata,  E. G. Hohenstein,  G. Kedziora,  F. J. Keil,  
 C. Kelley,  Jihan Kim,  R. A. King,  R. Z. Khaliullin,  P. P. Korambath,  
 W. Kurlancheek,  A. Laurent,  A. M. Lee,  M. S. Lee,  S. V. Levchenko,  
 Ching Yeh Lin,  D. Liotard,  E. Livshits,  R. C. Lochan,  I. Lotan,  
 L. A. Martinez-Martinez,  P. E. Maslen,  N. Nair,  D. P. O'Neill,  
 D. Neuhauser,  E. Neuscamman,  C. M. Oana,  R. Olivares-Amaya,  R. Olson,  
 T. M. Perrine,  B. Peters,  P. A. Pieniazek,  A. Prociuk,  Y. M. Rhee,  
 J. Ritchie,  M. A. Rohrdanz,  E. Rosta,  N. J. Russ,  H. F. Schaefer III,  
 M. W. Schmidt,  N. E. Schultz,  S. Sharma,  N. Shenvi,  C. D. Sherrill,  
 A. C. Simmonett,  A. Sodt,  T. Stein,  D. Stuck,  K. S. Thanthiriwatte,  
 V. Vanovschi,  L. Vogt,  Tao Wang,  A. Warshel,  M. A. Watson,  
 C. F. Williams,  Q. Wu,  X. Xu,  Jun Yang,  W. Zhang,  Yan Zhao

 Please cite Q-Chem as follows:
 Y. Shao et al., Mol. Phys. 113, 184-215 (2015)
 DOI: 10.1080/00268976.2014.952696

 Q-Chem 5.4.1 for Intel X86 EM64T Linux

 Parts of Q-Chem use Armadillo 9.900.5 (Nocturnal Misbehaviour).
 http://arma.sourceforge.net/

 Q-Chem begins on Sun Jul  3 09:42:05 2022  

 Host: p09r14n10.grace.hpc.yale.internal
0

     Scratch files written to /home/tl686/scratch60/qchem_dev/scratch/qchem36985//
 Processing $rem in /home/tl686/qchem_dev/qchem/config/preferences:
 Processing $rem in /home/tl686/.qchemrc:
Applying user defined connections for MM calculations

 Checking the input file for inconsistencies... 	...done.

--------------------------------------------------------------
User input:
--------------------------------------------------------------
$molecule
0   1
Fe 110.59104044 -5.56582062 37.77693903    -1  0   0   0   0
C 112.13042038 -8.00866065 39.73617047    -2  0   0   0   0 
C 107.72341822 -6.49800078 36.04179814    -2  0   0   0   0
C 112.14780924 -2.57313606 37.92343887    -2  0   0   0   0
C 112.29758431 -6.56964203 34.88370712    -2  0   0   0   0
C 108.55972102 -4.30777214 40.10807521    -2  0   0   0   0
O 113.07199969 -9.49407405 40.99658780    -3  0   0   0   0
O 105.93001442 -7.12100265 34.97367869    -3  0   0   0   0 
O 113.32034612 -0.68797611 38.26730099    -3  0   0   0   0
O 113.22275202 -7.28116260 32.97181633    -3  0   0   0   0 
O 106.96472836 -3.46227670 41.37513797    -3  0   0   0   0
H 139.02316435 -4.44462243 46.85506646      6     13    0    0    0 
C 138.28586138 -5.49627794 48.44766562     1     12    14    15    16
H 139.59587945 -5.53278954 49.91911893     6     13    0    0    0
H 136.54136443 -4.62649110 49.23228232     6     13    0    0    0
C 137.78331261 -8.30588358 47.76701473     2     13    17    18    19
H 139.65265104 -9.18290459 47.40806835     6     16    0    0    0
H 137.36881624 -9.28227241 49.55678455     6     16    0    0    0
C 135.70746145 -8.85827874 45.80594670     2     16    20   21   22
H 134.00544888 -8.42952930 46.83343022     6     19    0    0    0
H 135.93553496 -7.48749445 44.41505225     6     19    0    0    0
C 135.80332933 -11.60128246 44.68735647     2     19   23   24   25
H 137.19164187 -11.86493162 43.18288386     6    22    0    0    0
H 136.07908081 -13.14710710 46.06472412     6    22    0    0    0
C 133.18300183 -12.21879787 43.64923246     2    22   26   27   28
H 131.80433464 -12.13795889 45.31965466     6    25    0    0    0
H 132.47784325 -10.76927501 42.35941919     6    25    0    0    0
C 132.93972322 -14.93659797 42.51472624     2    25   29   30   31
H 134.30604619 -15.11792593 40.93121645     6    28    0    0    0
H 133.63225015 -16.39786026 43.78820389     6    28    0    0    0
C 130.30643140 -15.54622598 41.54768147     2    28   32   33   34
H 129.02828273 -15.37297829 43.18734630     6    31    0    0    0
H 129.72783780 -14.05570590 40.12934233     6    31    0    0    0
C 130.23754886 -18.20234948 40.51432600     2    31   35   36   37
H 131.93258749 -18.69194570 39.58328630     6    34    0    0    0
H 129.99386081 -19.48080052 42.12573970     6    34    0    0    0
C 128.09312626 -18.42094993 38.58436404     2    34   38   39   40
H 126.08313297 -18.26486006 39.25342746     6    37    0    0    0
H 128.07512010 -16.78419278 37.47839876     6    37    0    0    0
C 128.10058964 -20.94367793 37.00111132     2    37   41   42   43
H 129.21746198 -20.66498008 35.32153508     6    40    0    0    0
H 128.98709798 -22.26380235 38.34982629     6    40    0    0    0
C 125.43429983 -21.91645489 36.25777323     2    40   44   45   46
H 124.19122967 -22.13660594 37.94696224     6    43    0    0    0
H 124.49693169 -20.53801703 35.07068957     6    43    0    0    0
C 125.62635639 -24.41254847 34.95224962     1    43   47   48   49
H 127.17121992 -24.38662849 33.48277483     6    46    0    0    0
H 123.85858007 -24.76516531 33.93546045     6    46    0    0    0
H 126.03660115 -25.75738546 36.42696879     6    46    0    0    0
H 117.21837848 -17.01268255 38.32740539     6     51    0    0    0 
C 116.17349626 -15.17078782 38.22670568     1     50    52    53    54
H 114.08752567 -15.76186088 38.08262052     6     51    0    0    0
H 116.57482799 -14.07484198 39.99614153     6     51    0    0    0
C 117.16922585 -13.50889352 36.04890982     2     51    55    56    57
H 116.07804996 -11.77658319 36.27499602     6     54    0    0    0
H 119.15405191 -12.94177828 36.44563650     6     54    0    0    0
C 116.77471637 -14.83289851 33.47048457     2     54    58   59   60
H 114.81132126 -15.39031774 33.30668202     6     57    0    0    0
H 117.12624985 -13.51209753 32.04310575     6     57    0    0    0
C 118.25544011 -17.16118538 32.82285137     2     57   61   62   63
H 120.09379741 -17.14291320 33.62376570     6    60    0    0    0
H 117.53745566 -18.82309364 33.84831607     6    60    0    0    0
C 118.45239489 -17.99213833 30.01956495     2    60   64   65   66
H 116.58215711 -17.99261554 28.91341129     6    63    0    0    0
H 119.53065128 -16.45170953 29.23546930     6    63    0    0    0
C 119.90799615 -20.49522338 29.97408432     2    63   67   68   69
H 121.26872905 -20.25948324 28.34748765     6    66    0    0    0
H 121.42007138 -20.80214234 31.48281845     6    66    0    0    0
C 118.31103702 -22.86553299 29.53199830     2    66   70   71   72
H 116.81385623 -22.88158508 31.03122659     6    69    0    0    0
H 117.31666406 -22.69904627 27.82707189     6    69    0    0    0
C 119.86952842 -25.36424867 29.63694705     2    69   73   74   75
H 121.22981210 -25.18877419 28.22849260     6    72    0    0    0
H 120.83778049 -25.52760871 31.46541010     6    72    0    0    0
C 118.23567310 -27.76111565 29.26413000     2    72   76   77   78
H 116.55444241 -27.49109907 30.48740646     6    75    0    0    0
H 117.42725481 -27.89150274 27.34161627     6    75    0    0    0
C 119.90438783 -30.16244048 30.01119098     2    75   79   80   81
H 121.51981453 -30.37582199 28.78538732     6    78    0    0    0
H 120.92625278 -29.78662768 31.75835230     6    78    0    0    0
C 118.33054515 -32.50422177 30.56286031     2    78   82   83   84
H 116.90402650 -31.85060020 31.83870612     6    81    0    0    0
H 117.30613268 -33.19980220 28.80994872     6    81    0    0    0
C 119.60597706 -34.78304423 31.75098806     1    81   85   86   87
H 118.19464000 -35.80963462 32.73729545     6    84    0    0    0
H 121.22113469 -34.09082897 32.80165899     6    84    0    0    0
H 120.35437239 -35.79985541 30.11846227     6    84    0    0    0
H 141.56179217 2.91325697 28.30505233     6     89    0    0    0 
C 141.23269327 1.23698700 29.40958278     1     88    90    91    92
H 142.02748041 1.46878761 31.26213638     6     89    0    0    0
H 139.20786568 1.07762790 29.71953883     6     89    0    0    0
C 142.56845404 -1.04669703 28.23610654     2     89    93    94    95
H 141.64604445 -1.49239924 26.30367224     6     92    0    0    0
H 144.51164049 -0.56067437 27.81066453     6     92    0    0    0
C 142.00028579 -3.37014370 29.85035715     2     92    96   97   98
H 143.02661415 -3.39070151 31.65610801     6     95    0    0    0
H 140.05877292 -3.35500635 30.57962258     6     95    0    0    0
C 142.59266198 -5.81533860 28.40200512     2     95   99   100   101
H 141.47613635 -5.90402141 26.63603638     6    98    0    0    0
H 144.65841275 -5.75378435 28.04624248     6    98    0    0    0
C 142.10099502 -8.18793439 29.85303069     2    98   102   103   104
H 142.68741837 -8.09916410 31.77401925     6    101    0    0    0
H 140.12647161 -8.52174689 29.88876338     6    101    0    0    0
C 143.36808107 -10.37628716 28.81973983     2    101   105   106   107
H 143.56462628 -10.23460905 26.80046106     6    104    0    0    0
H 145.38940115 -10.28277900 29.44895529     6    104    0    0    0
C 142.44527349 -12.95304484 29.72339806     2    104   108   109   110
H 142.60192021 -13.29648721 31.79000716     6    107    0    0    0
H 140.48644666 -13.09844139 29.29598919     6    107    0    0    0
C 143.89565086 -15.16961266 28.52309100     2    107   111   112   113
H 143.59515868 -15.20082498 26.44759260     6    110    0    0    0
H 145.84694322 -14.87351533 29.07822461     6    110    0    0    0
C 143.15971653 -17.98036786 29.46205098     2    110   114   115   116
H 143.33350559 -18.03981958 31.46616511     6    113    0    0    0
H 141.09027859 -18.25753827 29.24952242     6    113    0    0    0
C 144.70894594 -20.17316269 28.30220036     2    113   117   118   119
H 144.23986064 -20.07858436 26.37498773     6    116    0    0    0
H 146.80644733 -20.16311948 28.27560195     6    116    0    0    0
C 143.90862093 -22.82832258 29.33569544     2    116   120   121   122
H 144.81383746 -24.37007931 28.36212935     6    119    0    0    0
H 144.20554469 -23.13685510 31.43511365     6    119    0    0    0
C 140.93494561 -23.12670641 29.15233433     1    119   123   124   125
H 140.21558279 -25.18177807 29.33461302     6    122    0    0    0
H 140.22200220 -22.49016970 27.40957557     6    122    0    0    0
H 139.89400321 -22.08191821 30.65122309     6    122    0    0    0
H 129.30190197 22.55082799 17.70586005     6     127    0    0    0 
C 129.04743158 20.54493762 18.24380894     1     126    128    129    130
H 127.53912857 19.73425220 17.00694743     6     127    0    0    0
H 130.79804885 19.51686395 17.75036670     6     127    0    0    0
C 128.22350224 20.43190402 21.10053854     2     127    131    132    133
H 129.77052412 21.28388815 22.09097118     6     130    0    0    0
H 126.77215289 21.90960634 21.60168960     6     130    0    0    0
C 127.39621146 17.79615496 22.06023354     2     130    134   135   136
H 126.09249154 17.10115608 20.74338724     6     133    0    0    0
H 128.97334800 16.69337009 22.09490816     6     133    0    0    0
C 126.15231429 18.12425056 24.66494931     2     133   137   138   139
H 127.40125626 18.66768942 26.05546424     6    136    0    0    0
H 124.60408321 19.61167337 24.86309817     6    136    0    0    0
C 124.90790910 15.61515066 25.35124735     2    136   140   141   142
H 123.01840532 15.77029712 24.50811182     6    139    0    0    0
H 126.10112631 13.92792638 24.85837284     6    139    0    0    0
C 124.59785574 15.58141737 28.24792854     2    139   143   144   145
H 126.29381735 15.61220139 29.27951110     6    142    0    0    0
H 123.40691505 17.20273668 28.77108261     6    142    0    0    0
C 122.87194594 13.23721263 29.19774969     2    142   146   147   148
H 121.16848688 13.15785189 28.13226353     6    145    0    0    0
H 123.87246468 11.30977399 29.09800933     6    145    0    0    0
C 122.25381713 13.61052367 32.01731534     2    145   149   150   151
H 123.95727353 14.36471730 33.05892058     6    148    0    0    0
H 120.91869320 14.98277505 32.33408844     6    148    0    0    0
C 121.35212727 11.06628262 33.20932357     2    148   152   153   154
H 119.58847551 10.71627183 32.01440651     6    151    0    0    0
H 122.76090138 9.64476233 32.73887588     6    151    0    0    0
C 120.66139437 11.40046073 36.01890219     2    151   155   156   157
H 120.78394978 9.50128233 36.58089362     6    154    0    0    0
H 122.12393952 12.48239648 36.92621781     6    154    0    0    0
C 117.99582736 12.31530278 36.74000464     2    154   158   159   160
H 117.53863158 13.82861728 35.58269295     6    157    0    0    0
H 116.51466279 10.97934092 36.53160210     6    157    0    0    0
C 117.90058154 13.13502137 39.54694737     1    157   161   162   163
H 116.08604090 13.88792538 39.96283985     6    160    0    0    0
H 118.89662630 15.00577386 39.89786030     6    160    0    0    0
H 118.54110612 11.67935016 40.92132854     6    160    0    0    0
H 127.18043193 -12.00093827 3.54613762     6     165    0    0    0 
C 128.16843580 -10.68553689 4.69247785     1     164    166    167    168
H 128.39722727 -11.37559292 6.58533144     6     165    0    0    0
H 130.12370196 -11.04519970 4.06167321     6     165    0    0    0
C 127.35269604 -8.00357524 4.34937903     2     165    169    170    171
H 127.32987603 -7.45599987 2.44819976     6     168    0    0    0
H 125.49023697 -7.63388369 5.24064711     6     168    0    0    0
C 129.36136549 -6.18441898 5.54562065     2     168    172   173   174
H 130.00552319 -6.70213943 7.36419310     6     171    0    0    0
H 131.01714491 -6.52647972 4.37542849     6     171    0    0    0
C 128.43386670 -3.41184810 5.61581020     2     171   175   176   177
H 127.42323074 -2.97361375 3.81258472     6    174    0    0    0
H 126.73674599 -3.26808540 6.82800949     6    174    0    0    0
C 130.49117987 -1.55126745 6.47395601     2    174   178   179   180
H 130.87234434 -1.78965149 8.45924408     6    177    0    0    0
H 132.24921807 -1.86444871 5.61875492     6    177    0    0    0
C 129.90801673 1.12411783 5.80226798     2    177   181   182   183
H 130.01411192 1.46313081 3.72738698     6    180    0    0    0
H 127.92078015 1.47181784 6.46056194     6    180    0    0    0
C 131.38126225 3.34874072 7.14421948     2    180   184   185   186
H 131.27290851 3.09223846 9.21284487     6    183    0    0    0
H 133.39833340 3.21657148 6.73321274     6    183    0    0    0
C 130.32982166 5.94738320 6.35803938     2    183   187   188   189
H 130.57228504 6.38456827 4.38257777     6    186    0    0    0
H 128.32425404 5.98303145 6.76405666     6    186    0    0    0
C 131.42766265 8.30903336 7.78455745     2    186   190   191   192
H 130.99110978 7.92847826 9.70671045     6    189    0    0    0
H 133.44649464 8.24067080 7.55148076     6    189    0    0    0
C 130.15580650 10.70644632 6.88954030     2    189   193   194   195
H 131.03521405 11.19917807 5.07899184     6    192    0    0    0
H 128.19421804 10.26127285 6.46303192     6    192    0    0    0
C 130.62247273 13.06558338 8.67938135     2    192   196   197   198
H 130.39459189 12.47624954 10.66279020     6    195    0    0    0
H 132.43862000 13.98205626 8.54180586     6    195    0    0    0
C 128.62935052 14.97440560 7.91107191     1    195   199   200   201
H 128.24262019 16.13534037 9.64939630     6    198    0    0    0
H 126.75369468 14.21616230 7.58635707     6    198    0    0    0
H 129.06201052 16.15346673 6.36646376     6    198    0    0    0
H 121.73080343 -11.68136903 13.78918186     6     203    0    0    0 
C 122.07902550 -9.84007071 12.86455843     1     202    204    205    206
H 120.37391597 -8.77155813 12.94076366     6     203    0    0    0
H 123.59699301 -8.78835435 13.94678217     6     203    0    0    0
C 122.94228329 -10.39568169 10.10651214     2     203    207    208    209
H 123.16443125 -8.70417904 8.71284242     6     206    0    0    0
H 124.98254886 -10.74885613 10.22938119     6     206    0    0    0
C 121.57701841 -12.53114819 8.84074002     2     206    210   211   212
H 122.67863321 -13.17119694 7.34926469     6     209    0    0    0
H 121.43548514 -14.07601833 10.34622216     6     209    0    0    0
C 118.94161747 -11.93479138 7.68509005     2     209   213   214   215
H 117.85557065 -10.82027702 9.05686032     6    212    0    0    0
H 118.95730656 -10.80985675 6.06922274     6    212    0    0    0
C 117.37030309 -14.33913154 7.13622729     2    212   216   217   218
H 118.39469728 -15.23085896 5.52879453     6    215    0    0    0
H 117.70928076 -15.61853995 8.73729091     6    215    0    0    0
C 114.77599208 -13.73583084 6.52606109     2    215   219   220   221
H 114.03438355 -12.81500753 8.34659017     6    218    0    0    0
H 114.84958984 -12.44174583 4.94598341     6    218    0    0    0
C 113.10943148 -16.12805292 5.96181975     2    218   222   223   224
H 113.77906905 -16.76743989 4.20737578     6    221    0    0    0
H 113.41692547 -17.58632878 7.36720046     6    221    0    0    0
C 110.33980773 -15.70885873 5.94939831     2    221   225   226   227
H 110.13949192 -14.80792088 7.66620523     6    224    0    0    0
H 109.73449175 -14.29929572 4.55331402     6    224    0    0    0
C 109.03331915 -18.33511304 5.54015451     2    224   228   229   230
H 109.46083528 -19.06831361 3.72742579     6    227    0    0    0
H 109.61962360 -19.75786504 6.90775321     6    227    0    0    0
C 106.24503772 -18.03764402 5.97239091     2    227   231   232   233
H 105.97155411 -17.67295060 7.94604340     6    230    0    0    0
H 105.68929151 -16.54639999 4.96132084     6    230    0    0    0
C 104.41164622 -20.31566768 5.53262072     2    230   234   235   236
H 104.29468531 -20.69302971 3.53848511     6    233    0    0    0
H 105.08274308 -21.91374981 6.51438602     6    233    0    0    0
C 101.83852354 -19.55270041 6.50157155     1    233   237   238   239
H 100.45017472 -20.93805164 5.88305727     6    236    0    0    0
H 101.35300488 -17.53995918 5.96551423     6    236    0    0    0
H 101.87964798 -19.72842412 8.61409305     6    236    0    0    0
H 130.15736216 -33.74628761 28.16664791     6     241    0    0    0 
C 129.96321407 -32.93896302 26.31783927     1     240    242    243    244
H 131.43337299 -33.83790888 25.13647922     6     241    0    0    0
H 128.32251593 -33.60170889 25.27818461     6     241    0    0    0
C 130.32447571 -30.03834610 26.27880035     2     241    245    246    247
H 131.98416334 -29.80742947 27.44277021     6     244    0    0    0
H 130.87902661 -29.20355860 24.29489092     6     244    0    0    0
C 128.06156976 -28.70880204 27.41153266     2     244    248   249   250
H 128.62377215 -26.91064122 28.16737598     6     247    0    0    0
H 126.57946753 -28.27014299 25.96969614     6     247    0    0    0
C 126.67718659 -29.91357505 29.55661548     2     247   251   252   253
H 125.06632954 -28.73864631 29.91608388     6    250    0    0    0
H 125.79895038 -31.64086185 28.90119819     6    250    0    0    0
C 128.24080297 -30.08988759 31.99834625     2    250   254   255   256
H 130.13146583 -30.78873991 31.68476879     6    253    0    0    0
H 128.42245440 -28.19250801 32.89062700     6    253    0    0    0
C 126.91102915 -31.62730972 34.08108952     2    253   257   258   259
H 127.98227312 -31.42847365 35.83812875     6    256    0    0    0
H 125.11505936 -30.74191114 34.46044702     6    256    0    0    0
C 126.94772455 -34.48605060 33.57671014     2    256   260   261   262
H 125.92142073 -34.82684143 31.80234561     6    259    0    0    0
H 128.98758094 -34.96380432 33.11607013     6    259    0    0    0
C 126.02898396 -36.18156008 35.76167904     2    259   263   264   265
H 127.56851635 -36.27275755 37.22546007     6    262    0    0    0
H 124.24617776 -35.19327670 36.47464324     6    262    0    0    0
C 125.19269810 -38.77984042 34.83010408     2    262   266   267   268
H 124.22184684 -39.77970537 36.32241812     6    265    0    0    0
H 124.08936455 -38.58599697 33.08003204     6    265    0    0    0
C 127.36287556 -40.27600184 33.80887260     2    265   269   270   271
H 128.06129290 -39.30535640 32.27117131     6    268    0    0    0
H 128.66149701 -40.31321616 35.26442653     6    268    0    0    0
C 126.57292979 -43.07214256 33.13352067     2    268   272   273   274
H 125.88983483 -44.19379453 34.77920544     6    271    0    0    0
H 124.90589353 -43.00101855 31.80351227     6    271    0    0    0
C 128.69142561 -44.45465100 31.77152252     1    271   275   276   277
H 129.00015017 -43.72877143 29.87193054     6    274    0    0    0
H 128.61338489 -46.49908322 31.72411372     6    274    0    0    0
H 130.36181990 -43.76480039 32.63257342     6    274    0    0    0
H 136.05154657 -11.77986878 17.56776260     6     279    0    0    0 
C 135.30677229 -10.81552466 15.77506760     1     278    280    281    282
H 135.58544435 -8.71550749 15.75566275     6     279    0    0    0
H 136.52720232 -11.64756689 14.32287805     6     279    0    0    0
C 132.52203167 -11.47526325 14.96747135     2     279    283    284    285
H 131.28791867 -10.53709755 16.46771197     6     282    0    0    0
H 132.06068882 -10.64610407 13.13244937     6     282    0    0    0
C 131.93845327 -14.32767378 14.90989204     2     282    286   287   288
H 133.49649143 -15.28215250 13.94975060     6     285    0    0    0
H 132.15422730 -14.77598494 16.91604650     6     285    0    0    0
C 129.28614371 -15.01698741 13.92754888     2     285   289   290   291
H 127.97649296 -13.56925218 14.58410814     6    288    0    0    0
H 129.13333493 -14.76046964 11.94068011     6    288    0    0    0
C 128.28505690 -17.62410736 14.58636612     2    288   292   293   294
H 129.46255863 -18.86983246 13.37195951     6    291    0    0    0
H 128.50618317 -18.12617495 16.62991355     6    291    0    0    0
C 125.70226202 -18.40759109 13.62580446     2    291   295   296   297
H 124.20975682 -16.99508841 13.86226112     6    294    0    0    0
H 125.65322348 -18.59117249 11.52824012     6    294    0    0    0
C 124.77998149 -20.97030015 14.64608021     2    294   298   299   300
H 126.01215809 -22.41665215 14.03788999     6    297    0    0    0
H 124.93459895 -21.01134394 16.68260711     6    297    0    0    0
C 122.15095270 -21.88257174 13.80053994     2    297   301   302   303
H 120.74251584 -20.76631219 14.73692581     6    300    0    0    0
H 121.91430192 -21.28304550 11.69548145     6    300    0    0    0
C 121.73578623 -24.69932071 14.14575170     2    300   304   305   306
H 123.43046146 -25.73505896 13.58842953     6    303    0    0    0
H 121.35526983 -25.19546917 16.06890908     6    303    0    0    0
C 119.33689253 -25.67934390 12.75685438     2    303   307   308   309
H 117.74507177 -24.64154517 13.34904040     6    306    0    0    0
H 119.34625158 -25.27455124 10.68417319     6    306    0    0    0
C 118.80776318 -28.37968622 13.51560543     2    306   310   311   312
H 120.64620190 -29.33934202 13.29737921     6    309    0    0    0
H 118.35227588 -28.43244901 15.50054079     6    309    0    0    0
C 116.75427395 -29.85027438 12.31417507     1    309   313   314   315
H 117.16926342 -30.24242618 10.34768260     6    312    0    0    0
H 114.95508495 -28.76381897 12.24549569     6    312    0    0    0
H 116.57237758 -31.57355933 13.52527127     6    312    0    0    0
H 134.41721824 -3.20055184 32.41340983     6     317    0    0    0 
C 134.80139057 -1.69185628 33.76368285     1     316    318    319    320
H 134.74387811 -2.68324537 35.54623313     6     317    0    0    0
H 136.73166877 -0.87205515 33.49485464     6     317    0    0    0
C 132.75186212 0.36101071 33.87964068     2     317    321    322    323
H 133.38785106 1.67853669 35.19475357     6     320    0    0    0
H 132.71940016 1.48081762 32.22266030     6     320    0    0    0
C 130.26857164 -0.96377461 34.55429029     2     320    324   325   326
H 129.63952636 -2.36321861 33.19874714     6     323    0    0    0
H 130.55382237 -1.84704113 36.32256551     6     323    0    0    0
C 128.22747633 1.09239736 35.02165787     2     323   327   328   329
H 129.00639539 2.58243881 36.41572739     6    326    0    0    0
H 127.78749350 2.06402222 33.26106049     6    326    0    0    0
C 125.71394495 -0.04590568 35.86897819     2    326   330   331   332
H 124.91539361 -1.02093082 34.28769850     6    329    0    0    0
H 125.88065958 -1.63656830 37.34640690     6    329    0    0    0
C 123.69656373 1.97676906 36.54795863     2    329   333   334   335
H 123.35875309 3.55012282 35.19613826     6    332    0    0    0
H 121.89797059 1.21201429 36.84056589     6    332    0    0    0
C 124.27781770 3.21124828 39.15609962     2    332   336   337   338
H 124.91781343 2.01746544 40.66659414     6    335    0    0    0
H 125.95232323 4.30834960 39.19484147     6    335    0    0    0
C 121.95730065 4.58809533 40.33893204     2    335   339   340   341
H 122.58758247 6.21207235 41.60623037     6    338    0    0    0
H 120.91468967 5.70395435 38.88214190     6    338    0    0    0
C 119.96839809 2.88776679 41.66636233     2    338   342   343   344
H 118.74594266 2.23852203 40.14882956     6    341    0    0    0
H 120.89594903 1.34325367 42.59234333     6    341    0    0    0
C 118.17611566 4.26597666 43.50898544     2    341   345   346   347
H 117.03085288 2.97834327 44.57299934     6    344    0    0    0
H 119.30687149 5.25987760 44.94963400     6    344    0    0    0
C 116.32473328 5.97619025 42.17975749     2    344   348   349   350
H 117.48170354 7.21749233 41.05779048     6    347    0    0    0
H 115.23766222 4.75914881 41.00911284     6    347    0    0    0
C 114.69015123 7.69718698 43.98838833     1    347   351   352   353
H 113.18046214 8.66617208 42.96159357     6    350    0    0    0
H 115.82260307 9.30745627 44.74394972     6    350    0    0    0
H 113.78156421 6.59850854 45.54746014     6    350    0    0    0
H 127.48837643 -25.46592102 22.54302994     6     355    0    0    0 
C 129.08123925 -24.22833126 22.18129366     1     354    356    357    358
H 130.49368245 -24.60795299 23.58218429     6     355    0    0    0
H 129.96874689 -24.81602773 20.48009147     6     355    0    0    0
C 128.43638187 -21.36469516 22.01621342     2     355    359    360    361
H 127.46327461 -21.10098372 20.30806039     6     358    0    0    0
H 127.06120427 -21.05114791 23.55513488     6     358    0    0    0
C 130.60720576 -19.46599517 22.36819132     2     358    362   363   364
H 131.50049294 -19.70381616 24.20579861     6     361    0    0    0
H 131.92449515 -19.72170544 20.75321973     6     361    0    0    0
C 129.59181601 -16.78475621 22.38743454     2     361   365   366   367
H 129.52285814 -16.21243179 20.43502312     6    364    0    0    0
H 127.80964039 -16.56001633 23.11702524     6    364    0    0    0
C 131.26190964 -14.98625142 23.79698660     2    364   368   369   370
H 131.65597967 -15.49661180 25.66288991     6    367    0    0    0
H 132.96538852 -14.94823536 22.72049617     6    367    0    0    0
C 130.36837205 -12.04793895 23.80930336     2    367   371   372   373
H 129.28847285 -11.74411517 22.13131165     6    370    0    0    0
H 129.01935544 -11.83895963 25.30466342     6    370    0    0    0
C 132.63470580 -10.11843804 23.91682871     2    370   374   375   376
H 133.22044512 -9.77128894 25.93109586     6    373    0    0    0
H 134.40326436 -10.91200698 23.10208173     6    373    0    0    0
C 132.16326954 -7.44281449 22.76283912     2    373   377   378   379
H 133.77729585 -6.88905197 21.70076635     6    376    0    0    0
H 130.81675374 -7.75738168 21.32787413     6    376    0    0    0
C 131.36999329 -5.43636585 24.71799911     2    376   380   381   382
H 129.94123873 -6.24701254 26.05107445     6    379    0    0    0
H 133.10735805 -4.95047259 25.75119823     6    379    0    0    0
C 130.23636542 -3.10539284 23.53240623     2    379   383   384   385
H 131.72360268 -1.83911655 22.64260808     6    382    0    0    0
H 128.82192613 -3.78286693 22.16042372     6    382    0    0    0
C 128.51638793 -1.58391173 25.34016203     2    382   386   387   388
H 127.63241253 -0.14772215 24.19655394     6    385    0    0    0
H 126.85785222 -2.69968727 25.98189755     6    385    0    0    0
C 129.83264565 -0.23668106 27.54804768     1    385   389   390   391
H 128.36806499 0.71694500 28.69207963     6    388    0    0    0
H 131.13362434 1.21306845 26.84091214     6    388    0    0    0
H 130.84232686 -1.71428665 28.47339476     6    388    0    0    0
H 104.51707811 3.98967453 60.01538243     6     393    0    0    0 
C 103.15845096 2.70353975 59.18923048     1     392    394    395    396
H 101.57931654 2.35819304 60.54726352     6     393    0    0    0
H 102.30048801 3.61715777 57.58148674     6     393    0    0    0
C 104.36575070 0.32793109 58.37886635     2     393    397    398    399
H 105.69339570 0.55091347 56.98009984     6     396    0    0    0
H 105.35385386 -0.64771344 59.96610453     6     396    0    0    0
C 102.36208431 -1.60664934 57.55637163     2     396    400   401   402
H 101.03788768 -1.99494317 59.07880333     6     399    0    0    0
H 101.65555578 -0.78191434 55.90983123     6     399    0    0    0
C 103.52125146 -4.16836346 56.71669244     2     399   403   404   405
H 104.58023076 -3.71306593 55.04483638     6    402    0    0    0
H 104.73256847 -4.92990911 58.24312512     6    402    0    0    0
C 101.96774519 -6.42451676 55.99192062     2    402   406   407   408
H 101.11854083 -7.56468306 57.55151041     6    405    0    0    0
H 100.48297347 -6.10252375 54.88357769     6    405    0    0    0
C 103.52982701 -8.46474858 54.61687628     2    405   409   410   411
H 104.59346751 -7.45242553 53.17999573     6    408    0    0    0
H 104.77137495 -9.29634110 56.03817080     6    408    0    0    0
C 102.04122817 -10.79879631 53.58471418     2    408   412   413   414
H 100.57271663 -11.45340842 54.78930791     6    411    0    0    0
H 101.02271028 -10.48379209 51.82600199     6    411    0    0    0
C 103.85314069 -13.15522297 53.29191529     2    411   415   416   417
H 105.25002393 -12.66352652 51.78310099     6    414    0    0    0
H 105.03177514 -13.65846663 54.96862100     6    414    0    0    0
C 102.10431037 -15.48031985 52.68451888     2    414   418   419   420
H 100.99202452 -15.91353998 54.42084573     6    417    0    0    0
H 100.87029408 -14.92565432 51.05496419     6    417    0    0    0
C 103.54682144 -17.67491845 51.47039132     2    417   421   422   423
H 104.15436653 -17.14884385 49.70203501     6    420    0    0    0
H 105.19667276 -18.12044048 52.55444223     6    420    0    0    0
C 102.03898719 -20.02816612 51.04265263     2    420   424   425   426
H 101.87942987 -21.24643245 52.82912776     6    423    0    0    0
H 100.14271359 -19.31604260 50.43143401     6    423    0    0    0
C 102.89901950 -21.59109070 48.72914944     1    423   427   428   429
H 101.69051492 -23.23806525 48.46837250     6    426    0    0    0
H 104.73633442 -22.32818592 49.41098835     6    426    0    0    0
H 102.99121964 -20.40139469 46.98268376     6    426    0    0    0
H 122.27160787 -18.88505524 52.20315662     6     431    0    0    0 
C 123.53417093 -17.35020978 52.84342772     1     430    432    433    434
H 125.08523722 -18.24917182 53.86815147     6     431    0    0    0
H 124.31016032 -16.56581111 51.12571398     6     431    0    0    0
C 121.78094157 -15.47734342 54.39022599     2     431    435    436    437
H 120.17867125 -15.03021527 53.21979392     6     434    0    0    0
H 120.81569350 -16.32312288 56.06845168     6     434    0    0    0
C 123.18086345 -13.09244066 55.39472512     2     434    438   439   440
H 124.69842152 -14.04082504 56.40462054     6     437    0    0    0
H 124.13807823 -12.03244496 53.80610132     6     437    0    0    0
C 121.66512680 -11.20949572 56.90373971     2     437   441   442   443
H 122.86342705 -9.89915448 57.91374990     6    440    0    0    0
H 120.50578410 -9.99399635 55.80447636     6    440    0    0    0
C 119.65031504 -12.36158938 58.76703951     2    440   444   445   446
H 118.09342702 -13.22394809 57.76018209     6    443    0    0    0
H 120.50219281 -13.96302436 59.79545305     6    443    0    0    0
C 118.53788739 -10.29428267 60.38219483     2    443   447   448   449
H 120.09200131 -9.58797229 61.66541703     6    446    0    0    0
H 117.73570233 -8.83279083 59.11712083     6    446    0    0    0
C 116.31616289 -11.23970176 61.89157712     2    446   450   451   452
H 114.78765703 -11.85839883 60.76460217     6    449    0    0    0
H 116.85842455 -12.98661299 62.99759697     6    449    0    0    0
C 115.01771980 -9.12054824 63.59677761     2    449   453   454   455
H 116.22564340 -8.72743674 65.25568491     6    452    0    0    0
H 114.89444777 -7.31377560 62.66728533     6    452    0    0    0
C 112.44191468 -9.71436448 64.46857987     2    452   456   457   458
H 111.10004043 -9.87344313 62.91614060     6    455    0    0    0
H 112.31951430 -11.64082407 65.31913026     6    455    0    0    0
C 111.46716676 -7.64422050 66.29247399     2    455   459   460   461
H 112.59341217 -7.65647280 67.96121063     6    458    0    0    0
H 111.70466880 -5.85054059 65.28482713     6    458    0    0    0
C 108.77372288 -8.37035048 67.24267411     2    458   462   463   464
H 107.37683033 -8.78718937 65.76682191     6    461    0    0    0
H 108.81379728 -10.10832614 68.36799027     6    461    0    0    0
C 107.76984250 -6.13559067 68.79773506     1    461   465   466   467
H 107.92708914 -4.40493176 67.58446665     6    464    0    0    0
H 109.26446273 -5.50082461 70.09276684     6    464    0    0    0
H 105.88012807 -6.10365113 69.65263774     6    464    0    0    0
H 141.09216301 -6.78942426 20.80003901     6     469    0    0    0 
C 139.54464933 -7.76207815 21.71966355     1     468    470    471    472
H 138.80325683 -6.49210874 23.12795077     6     469    0    0    0
H 138.03889586 -8.04945528 20.31391331     6     469    0    0    0
C 140.54478918 -10.23285845 22.69976039     2     469    473    474    475
H 142.43562826 -10.12038954 23.00615863     6     472    0    0    0
H 139.72100061 -10.37913755 24.66189937     6     472    0    0    0
C 139.84841933 -12.43135762 20.99011984     2     472    476   477   478
H 137.88412638 -12.72041457 21.00568210     6     475    0    0    0
H 140.22001619 -11.79654017 19.08204528     6     475    0    0    0
C 141.00065061 -15.01018336 21.83136038     2     475   479   480   481
H 143.06152116 -14.86644245 21.80029130     6    478    0    0    0
H 140.45185986 -15.51389803 23.84797390     6    478    0    0    0
C 140.20267651 -16.95210095 19.76178058     2    478   482   483   484
H 138.22056132 -16.55255301 19.20302831     6    481    0    0    0
H 141.42504694 -16.55273431 18.15851994     6    481    0    0    0
C 140.60211302 -19.72560614 20.47184662     2    481   485   486   487
H 142.54300352 -20.11299256 20.33863626     6    484    0    0    0
H 139.62932487 -19.88194544 22.37642268     6    484    0    0    0
C 139.12028160 -21.56104974 18.62462059     2    484   488   489   490
H 137.32313319 -20.55769809 18.30571860     6    487    0    0    0
H 139.92855232 -21.77511134 16.73661504     6    487    0    0    0
C 138.81094531 -24.20945770 19.65907723     2    487   491   492   493
H 140.68439939 -25.32733191 19.53638564     6    490    0    0    0
H 138.53793426 -24.08113675 21.73354358     6    490    0    0    0
C 136.46188793 -25.61428325 18.60173595     2    490   494   495   496
H 134.80487178 -24.60641673 18.61260379     6    493    0    0    0
H 136.70377718 -25.93603665 16.52060136     6    493    0    0    0
C 135.71494257 -28.20120930 19.92714424     2    493   497   498   499
H 137.30543560 -29.43945164 20.05455920     6    496    0    0    0
H 134.96157953 -27.64409083 21.84979030     6    496    0    0    0
C 133.46282509 -29.76448972 18.72273959     2    496   500   501   502
H 131.73817504 -28.62164871 18.84434765     6    499    0    0    0
H 133.72827295 -30.22253901 16.70940632     6    499    0    0    0
C 133.41495044 -32.22763949 20.29053286     1    499   503   504   505
H 131.67778417 -33.07240409 19.73453650     6    502    0    0    0
H 133.35167991 -32.19430445 22.26391247     6    502    0    0    0
H 134.96624902 -33.40424825 19.69404518     6    502    0    0    0
H 127.72018401 -38.28941529 45.28051623     6     507    0    0    0 
C 125.78421659 -37.49894955 45.09848797     1     506    508    509    510
H 125.07066784 -37.95234287 43.14978407     6     507    0    0    0
H 124.45252031 -38.52181380 46.39451912     6     507    0    0    0
C 125.62471833 -34.77581630 45.86084226     2     507    511    512    513
H 126.54379065 -34.41793895 47.56421737     6     510    0    0    0
H 126.68350386 -33.47345126 44.52966129     6     510    0    0    0
C 122.90771313 -33.77788913 46.08469824     2     510    514   515   516
H 121.94729699 -34.00023532 44.30779619     6     513    0    0    0
H 122.11926257 -34.95124736 47.38409742     6     513    0    0    0
C 122.87931547 -31.04134870 47.05739841     2     513   517   518   519
H 123.81241910 -30.84903965 48.87612269     6    516    0    0    0
H 124.13684443 -29.89553877 45.87774785     6    516    0    0    0
C 120.15356688 -30.09528672 47.27042156     2    516   520   521   522
H 119.77797557 -29.88673253 45.23928115     6    519    0    0    0
H 118.91586746 -31.50900854 47.91551375     6    519    0    0    0
C 119.80845971 -27.48696799 48.58440202     2    519   523   524   525
H 120.14045009 -27.92368032 50.53945799     6    522    0    0    0
H 121.41849109 -26.46376593 47.92544964     6    522    0    0    0
C 117.23648669 -26.32189714 48.43715762     2    522   526   527   528
H 116.65801075 -25.75220949 46.53537054     6    525    0    0    0
H 115.87570305 -27.72971348 49.05109499     6    525    0    0    0
C 116.90350353 -24.01670264 50.40854503     2    525   529   530   531
H 116.76155265 -24.95332382 52.20924526     6    528    0    0    0
H 118.42952819 -22.57543308 50.13658225     6    528    0    0    0
C 114.24282071 -22.67708999 49.96741901     2    528   532   533   534
H 114.14851264 -21.94779651 48.03258349     6    531    0    0    0
H 112.83161935 -24.03223454 49.98670312     6    531    0    0    0
C 113.55758620 -20.68144369 51.99225902     2    531   535   536   537
H 113.32642683 -21.65619151 53.84235888     6    534    0    0    0
H 115.20307654 -19.47580926 52.56093827     6    534    0    0    0
C 111.47621963 -18.76049426 51.26503395     2    534   538   539   540
H 112.26398717 -17.87872362 49.54121170     6    537    0    0    0
H 109.74859364 -19.78748162 50.54306620     6    537    0    0    0
C 110.60353569 -16.96657870 53.41008292     1    537   541   542   543
H 109.44174913 -15.28609365 52.79686513     6    540    0    0    0
H 112.22938555 -16.20311786 54.47294519     6    540    0    0    0
H 109.35843143 -18.14882022 54.63872308     6    540    0    0    0
H 114.06324887 -5.04492147 47.78271005     6     545    0    0    0 
C 112.37315187 -3.97598366 47.80622979     1     544    546    547    548
H 110.67442244 -5.24605632 47.50791247     6     545    0    0    0
H 112.18996509 -3.39799583 49.80996268     6     545    0    0    0
C 112.47969846 -1.61460445 46.04893355     2     545    549    550    551
H 114.12105260 -0.55699581 46.77355271     6     548    0    0    0
H 112.80584394 -2.01062521 44.08656906     6     548    0    0    0
C 110.05105310 -0.04122748 46.19440245     2     548    552   553   554
H 108.63350235 -1.49283848 46.00761078     6     551    0    0    0
H 109.98831751 0.68607637 48.18990110     6     551    0    0    0
C 109.63784291 1.96781181 44.11689644     2     551   555   556   557
H 111.33918473 3.16091423 44.20811839     6    554    0    0    0
H 109.66751979 0.96843941 42.30483849     6    554    0    0    0
C 107.18037696 3.29587125 44.49598182     2    554   558   559   560
H 105.62597788 1.99840191 44.84355529     6    557    0    0    0
H 107.38591374 4.27393607 46.16961059     6    557    0    0    0
C 106.60834741 5.07676885 42.18674689     2    557   561   562   563
H 108.31868526 6.19623224 41.77056087     6    560    0    0    0
H 106.46424193 3.66811504 40.71023207     6    560    0    0    0
C 104.21916901 6.53333821 42.40511184     2    560   564   565   566
H 102.52582422 5.40095800 43.06821866     6    563    0    0    0
H 104.55165982 8.09997698 43.84198481     6    563    0    0    0
C 103.64137126 7.69127513 39.81638919     2    563   567   568   569
H 104.92198520 9.33095028 39.29858287     6    566    0    0    0
H 103.87402795 6.15755313 38.43374673     6    566    0    0    0
C 100.79444734 8.22761548 39.22654372     2    566   570   571   572
H 99.92120880 6.40335296 39.55354903     6    569    0    0    0
H 100.23210835 9.38968112 40.70693734     6    569    0    0    0
C 100.28540376 9.29246690 36.51725712     2    569   573   574   575
H 101.57962501 10.96427406 36.38403702     6    572    0    0    0
H 100.58179054 8.06424877 34.92451375     6    572    0    0    0
C 97.42620453 10.28885000 36.31625956     2    572   576   577   578
H 96.93053974 11.83335271 37.60363513     6    575    0    0    0
H 97.30091051 11.40620169 34.58063676     6    575    0    0    0
C 95.45485336 8.28190426 36.19278591     1    575   579   580   581
H 95.38997013 7.16936838 34.50825155     6    578    0    0    0
H 93.63341065 9.25058155 36.31480416     6    578    0    0    0
H 95.62655211 7.15591546 37.88412153     6    578    0    0    0
H 129.57943878 -6.74293238 13.61997594     6     583    0    0    0 
C 128.89177200 -5.24466208 12.47205031     1     582    584    585    586
H 130.56200955 -4.32430620 11.57042530     6     583    0    0    0
H 127.43622516 -6.12345001 11.23572883     6     583    0    0    0
C 127.78533989 -3.14413700 14.19227045     2     583    587    588    589
H 126.61942094 -4.01253545 15.64801830     6     586    0    0    0
H 129.35332305 -2.29120113 15.12594510     6     586    0    0    0
C 126.51156293 -1.04177282 12.66034219     2     586    590   591   592
H 127.52651168 -0.60834568 10.86929948     6     589    0    0    0
H 124.82717647 -1.73012259 11.73638821     6     589    0    0    0
C 126.33625230 1.45906378 13.97514748     2     589   593   594   595
H 125.04972229 1.00319545 15.56104093     6    592    0    0    0
H 128.19516582 2.17258180 14.49409979     6    592    0    0    0
C 124.91916919 3.61705898 12.58437665     2    592   596   597   598
H 125.99405489 4.21824506 11.11389523     6    595    0    0    0
H 123.22497800 2.89529246 11.98506100     6    595    0    0    0
C 124.41019110 5.88991079 14.33232645     2    595   599   600   601
H 123.08880237 5.16177486 15.78723574     6    598    0    0    0
H 126.02053107 6.44763438 15.38535737     6    598    0    0    0
C 123.11797292 8.22826363 13.10018612     2    598   602   603   604
H 124.29568895 8.76641544 11.60896796     6    601    0    0    0
H 121.33348898 7.83829987 12.30299796     6    601    0    0    0
C 122.50450970 10.17160865 15.03895143     2    601   605   606   607
H 121.06016447 9.26461588 16.24265563     6    604    0    0    0
H 124.26967760 10.32516902 16.14137780     6    604    0    0    0
C 121.43083425 12.60636800 14.00966525     2    604   608   609   610
H 122.87058509 13.28843199 12.76655538     6    607    0    0    0
H 119.75504350 12.03081871 12.92806249     6    607    0    0    0
C 120.91964586 14.57642202 16.02314363     2    607   611   612   613
H 119.39473935 14.04343383 17.33068576     6    610    0    0    0
H 122.51921069 14.66503378 17.33978460     6    610    0    0    0
C 120.33777812 17.16627964 14.69675509     2    610   614   615   616
H 121.93216296 17.65453103 13.46175978     6    613    0    0    0
H 118.82031075 17.19901780 13.21086286     6    613    0    0    0
C 119.94310624 19.28568868 16.55648486     1    613   617   618   619
H 121.75050244 20.06054920 17.43125000     6    616    0    0    0
H 118.80614080 18.53381252 18.12213957     6    616    0    0    0
H 118.68583721 20.83332597 15.81195438     6    616    0    0    0
H 94.32308319 -18.13190459 28.89452718     6     621    0    0    0 
C 95.21869712 -16.33121898 28.29643170     1     620    622    623    624
H 93.78066211 -14.90237496 28.13283089     6     621    0    0    0
H 96.38344185 -15.66693192 29.83592762     6     621    0    0    0
C 96.65655851 -16.75957747 25.85201863     2     621    625    626    627
H 97.66081766 -15.12392856 25.41599628     6     624    0    0    0
H 97.81255729 -18.40141534 26.03784633     6     624    0    0    0
C 95.15480645 -17.55826305 23.58497723     2     624    628   629   630
H 93.78266072 -19.08441748 23.92086745     6     627    0    0    0
H 94.02045338 -15.85147324 23.21041085     6     627    0    0    0
C 96.82647507 -18.00011247 21.21167809     2     627   631   632   633
H 98.23122429 -16.53201925 20.89237035     6    630    0    0    0
H 98.01785259 -19.62046537 21.67658585     6    630    0    0    0
C 95.28149374 -18.65057133 18.90555406     2    630   634   635   636
H 93.66245862 -19.93416675 19.37049661     6    633    0    0    0
H 94.28560475 -16.80159218 18.80881322     6    633    0    0    0
C 96.84093427 -19.82689936 16.73473057     2    633   637   638   639
H 98.32354889 -18.42383370 16.09247206     6    636    0    0    0
H 98.09310491 -21.43856812 17.20954700     6    636    0    0    0
C 95.20215820 -20.56519260 14.34635739     2    636   640   641   642
H 93.67951247 -21.86465395 14.93615618     6    639    0    0    0
H 94.33969731 -18.90515787 13.44487734     6    639    0    0    0
C 96.70592201 -22.10871583 12.41017072     2    639   643   644   645
H 98.15222449 -21.05494727 11.60607402     6    642    0    0    0
H 97.44989043 -23.76448708 13.32307343     6    642    0    0    0
C 95.25595536 -23.19795395 9.97363120     2    642   646   647   648
H 93.69015111 -24.37642988 10.60638894     6    645    0    0    0
H 94.61130841 -21.65486322 8.89799019     6    645    0    0    0
C 96.75707147 -24.78826528 8.19725014     2    645   649   650   651
H 98.30189409 -23.48991025 7.68676320     6    648    0    0    0
H 97.54426639 -26.26386578 9.36150857     6    648    0    0    0
C 95.14154919 -25.90917512 6.13990751     2    648   652   653   654
H 93.41621112 -26.57219650 6.95530461     6    651    0    0    0
H 94.68512674 -24.40816009 4.64064435     6    651    0    0    0
C 96.39572365 -28.20598973 4.89365260     1    651   655   656   657
H 98.35956064 -27.78884695 4.29272357     6    654    0    0    0
H 95.07652764 -29.16474747 3.54658437     6    654    0    0    0
H 96.58718911 -29.67262909 6.35072763     6    654    0    0    0
H 121.37307876 -5.04443019 16.33572395     6     659    0    0    0 
C 121.02800293 -3.23882541 17.27022739     1     658    660    661    662
H 120.07083485 -3.71191809 19.02887781     6     659    0    0    0
H 122.60132488 -2.12723516 17.75301368     6     659    0    0    0
C 119.41874763 -1.55229270 15.51269997     2     659    663    664    665
H 120.42284546 -0.24544899 14.32554169     6     662    0    0    0
H 118.46777447 -2.95420551 14.29732313     6     662    0    0    0
C 117.38762550 -0.00269318 16.86463248     2     662    666   667   668
H 115.71804063 0.15013302 15.67639112     6     665    0    0    0
H 116.77992763 -1.07622808 18.52548247     6     665    0    0    0
C 118.13028836 2.70461981 17.73113151     2     665   669   670   671
H 120.11437647 2.76518974 18.10693846     6    668    0    0    0
H 117.94162809 3.82787093 16.02372386     6    668    0    0    0
C 116.50768153 4.12472090 19.71385126     2    668   672   673   674
H 114.75155274 4.53621252 18.85364115     6    671    0    0    0
H 115.85646209 2.91774939 21.35540822     6    671    0    0    0
C 117.72493828 6.53916460 20.58851382     2    671   675   676   677
H 118.99733134 5.81595475 21.83834795     6    674    0    0    0
H 118.78076250 7.50144797 19.16928768     6    674    0    0    0
C 116.06818132 8.66240286 21.68915561     2    674   678   679   680
H 117.18715300 10.39249511 22.29253200     6    677    0    0    0
H 114.95233133 9.41227558 20.24994303     6    677    0    0    0
C 114.30542148 7.70207060 23.73054316     2    677   681   682   683
H 113.15875273 6.22126173 22.97378492     6    680    0    0    0
H 115.57152753 6.77692464 25.13098638     6    680    0    0    0
C 112.73585527 9.60001125 25.28961540     2    680   684   685   686
H 111.50982900 10.61507164 23.98195460     6    683    0    0    0
H 111.59927245 8.57715283 26.59427606     6    683    0    0    0
C 114.14397897 11.80476572 26.48532222     2    683   687   688   689
H 115.48954937 10.91000738 27.70776393     6    686    0    0    0
H 115.50718839 12.98398167 25.36052908     6    686    0    0    0
C 112.33841093 13.62818136 27.83960497     2    686   690   691   692
H 111.32294131 14.64299407 26.38149952     6    689    0    0    0
H 110.94688012 12.68013829 28.87921485     6    689    0    0    0
C 113.66830262 15.60131452 29.38545065     1    689   693   694   695
H 112.35999157 16.80227253 30.26688559     6    692    0    0    0
H 114.87485880 16.81834107 28.19504960     6    692    0    0    0
H 114.77372919 14.48125726 30.81350672     6    692    0    0    0
H 94.91215991 9.35521360 45.22218898     6     697    0    0    0 
C 96.57810870 10.31819872 45.81161824     1     696    698    699    700
H 97.13298148 11.61312970 44.20635536     6     697    0    0    0
H 95.95976421 11.61299097 47.14763106     6     697    0    0    0
C 98.75614425 8.40780851 46.63614765     2     697    701    702    703
H 97.89718906 7.10305270 48.01471228     6     700    0    0    0
H 99.46578983 7.34776177 45.01535109     6     700    0    0    0
C 100.88183037 9.87888341 48.21349133     2     700    704   705   706
H 101.52683948 11.62914229 47.45662523     6     703    0    0    0
H 99.91254821 10.36411786 49.93574604     6     703    0    0    0
C 103.01877793 8.29723645 49.21029984     2     703   707   708   709
H 102.28475921 6.38869772 49.44754334     6    706    0    0    0
H 104.43131464 8.17278114 47.65778645     6    706    0    0    0
C 104.29411226 9.21316384 51.70599843     2    706   710   711   712
H 104.88635719 11.17800133 51.66243950     6    709    0    0    0
H 102.95792726 9.10798838 53.18763643     6    709    0    0    0
C 106.70608897 7.65320752 52.35749885     2    709   713   714   715
H 105.97186123 5.67729814 52.47895864     6    712    0    0    0
H 108.17270259 7.74363475 50.89044659     6    712    0    0    0
C 107.58412704 8.13953036 55.03778546     2    712   716   717   718
H 108.43380759 9.98499402 55.05207759     6    715    0    0    0
H 105.79623089 8.14132838 56.10144040     6    715    0    0    0
C 109.47450970 6.15440344 56.01131595     2    715   719   720   721
H 108.75623710 4.17684218 56.07815066     6    718    0    0    0
H 110.85322745 5.98582726 54.50997305     6    718    0    0    0
C 110.50872991 6.96924141 58.53198974     2    718   722   723   724
H 111.53141697 8.71626563 58.13970702     6    721    0    0    0
H 109.07727926 7.12231780 59.78357899     6    721    0    0    0
C 112.49752271 5.14843450 59.54863864     2    721   725   726   727
H 111.83671560 3.21964624 59.25470446     6    724    0    0    0
H 114.31978814 5.30142674 58.68758754     6    724    0    0    0
C 112.83377846 5.48938714 62.40797940     2    724   728   729   730
H 111.05234398 5.11708420 63.27631999     6    727    0    0    0
H 114.19920512 4.22439682 63.09802791     6    727    0    0    0
C 113.66229118 8.10992176 63.17233081     1    727   731   732   733
H 114.27621048 8.41452030 65.15104655     6    730    0    0    0
H 112.01773903 9.29939104 62.98966517     6    730    0    0    0
H 114.84581320 8.90236799 61.74984274     6    730    0    0    0
H 143.07442186 -4.84668738 39.50750498     6     735    0    0    0 
C 142.72222080 -4.41187150 37.51045740     1     734    736    737    738
H 143.53939572 -2.51183863 37.33383344     6     735    0    0    0
H 143.99238299 -5.47498396 36.24909123     6     735    0    0    0
C 139.79610211 -4.72637485 36.88624977     2     735    739    740    741
H 138.72776797 -3.54817992 38.17701389     6     738    0    0    0
H 139.57298713 -4.18425420 34.92398370     6     738    0    0    0
C 138.97366752 -7.55923491 37.11210540     2     738    742   743   744
H 140.43426220 -8.67908366 35.95914940     6     741    0    0    0
H 139.44683805 -8.07001516 39.10473066     6     741    0    0    0
C 136.28520893 -8.17482740 36.36800561     2     741   745   746   747
H 134.84898995 -7.33140284 37.55163148     6    744    0    0    0
H 135.68777151 -7.65370767 34.48451009     6    744    0    0    0
C 136.02974566 -11.09722789 36.38898428     2    744   748   749   750
H 136.77678127 -11.79514106 38.05760636     6    747    0    0    0
H 134.04204299 -11.66494485 36.39576103     6    747    0    0    0
C 137.55534716 -12.37617710 34.25334029     2    747   751   752   753
H 137.75427482 -11.18036940 32.64306700     6    750    0    0    0
H 139.54358419 -12.53896271 34.87385173     6    750    0    0    0
C 136.86990565 -14.97827340 33.46326041     2    750   754   755   756
H 138.18695313 -15.85699213 32.07362159     6    753    0    0    0
H 136.61693474 -16.09065295 35.20953656     6    753    0    0    0
C 134.40682519 -15.03578064 31.97502630     2    753   757   758   759
H 133.01629804 -13.71773144 32.74009686     6    756    0    0    0
H 134.84197404 -14.67021541 30.00266699     6    756    0    0    0
C 132.95705528 -17.49329458 31.93474554     2    756   760   761   762
H 132.19554195 -17.78673028 33.86281200     6    759    0    0    0
H 131.31297077 -17.18044266 30.78583463     6    759    0    0    0
C 134.48094633 -19.83220637 31.08739008     2    759   763   764   765
H 135.68709664 -19.34267831 29.46515267     6    762    0    0    0
H 135.87503541 -20.29727280 32.62757124     6    762    0    0    0
C 132.80756214 -22.22905643 30.98167948     2    762   766   767   768
H 132.25403395 -22.68723786 32.81422257     6    765    0    0    0
H 131.27007096 -21.84413706 29.84425748     6    765    0    0    0
C 133.89403615 -24.47104338 29.63877111     1    765   769   770   771
H 135.54097618 -25.07975903 30.58434900     6    768    0    0    0
H 134.35684089 -23.90628701 27.73698648     6    768    0    0    0
H 132.65063294 -26.19197200 29.70270130     6    768    0    0    0
H 96.82734134 -21.94301967 28.66974831     6     773    0    0    0 
C 95.40018921 -23.38363216 28.54906743     1     772    774    775    776
H 93.37094261 -22.75770923 28.25460164     6     773    0    0    0
H 95.85902097 -24.37867363 26.79137765     6     773    0    0    0
C 95.53401157 -24.91111067 31.02288067     2     773    777    778    779
H 94.05805713 -26.33511695 30.89021467     6     776    0    0    0
H 97.39623585 -25.59107696 31.06182860     6     776    0    0    0
C 94.85109269 -23.24144880 33.22479311     2     776    780   781   782
H 96.03174894 -21.53869424 33.17787480     6     779    0    0    0
H 92.93145980 -22.65696815 33.08730688     6     779    0    0    0
C 95.12550831 -24.69166358 35.81241811     2     779   783   784   785
H 94.09087251 -26.37843285 35.73468645     6    782    0    0    0
H 97.01977260 -25.21542942 36.12138587     6    782    0    0    0
C 94.31012859 -23.09018411 37.93897726     2    782   786   787   788
H 95.05022589 -21.10242837 37.93686935     6    785    0    0    0
H 92.25637426 -22.78932998 37.81773039     6    785    0    0    0
C 95.14494012 -24.30803662 40.36251631     2    785   789   790   791
H 94.29025811 -26.24702630 40.37874836     6    788    0    0    0
H 97.21500004 -24.63460338 40.61147178     6    788    0    0    0
C 94.31337975 -22.77487710 42.61257996     2    788   792   793   794
H 95.14145579 -20.84925307 42.25674380     6    791    0    0    0
H 92.24486721 -22.50121707 42.68350083     6    791    0    0    0
C 95.13553299 -23.83438692 45.04754602     2    791   795   796   797
H 94.29060481 -25.65533655 45.54645379     6    794    0    0    0
H 97.14027088 -23.89224591 45.01851818     6    794    0    0    0
C 94.77259911 -22.14999815 47.55243614     2    794   798   799   800
H 96.16910378 -20.67584020 47.37705811     6    797    0    0    0
H 92.89829829 -21.26436750 47.60134547     6    797    0    0    0
C 95.36615804 -23.88576875 49.79628967     2    797   801   802   803
H 94.14591961 -25.51154784 49.96984170     6    800    0    0    0
H 97.29809555 -24.62359408 49.86406113     6    800    0    0    0
C 94.94083403 -22.41301983 52.28302329     2    800   804   805   806
H 96.04122885 -20.61353734 52.42098697     6    803    0    0    0
H 92.98174237 -21.83065096 52.45834567     6    803    0    0    0
C 95.62499054 -23.89044213 54.51113548     1    803   807   808   809
H 96.17896552 -22.74498197 56.16888193     6    806    0    0    0
H 97.42153338 -24.88413333 54.35296809     6    806    0    0    0
H 94.23467838 -25.29315330 55.05708132     6    806    0    0    0
H 124.97692757 -7.69515769 23.06685382     6     811    0    0    0 
C 124.48900967 -7.77362818 20.96666209     1     810    812    813    814
H 123.55791430 -6.08117163 20.56739628     6     811    0    0    0
H 126.24002038 -7.74713680 19.90272375     6     811    0    0    0
C 122.74581371 -10.02374821 20.59753525     2     811    815    816    817
H 120.90763702 -9.55104782 21.42162205     6     814    0    0    0
H 122.39040096 -10.50538517 18.61731574     6     814    0    0    0
C 123.72202944 -12.71447209 21.63918713     2     814    818   819   820
H 125.51360210 -13.23550299 20.71550551     6     817    0    0    0
H 124.00257922 -12.55486731 23.61956799     6     817    0    0    0
C 121.65770297 -14.74404990 21.07737678     2     817   821   822   823
H 119.97923820 -14.18536112 22.07480252     6    820    0    0    0
H 120.71500710 -14.50655300 19.32294196     6    820    0    0    0
C 122.48073824 -17.50825904 21.31740233     2    820   824   825   826
H 123.50238741 -18.14998377 19.69509000     6    823    0    0    0
H 123.71177649 -17.68713096 22.82984083     6    823    0    0    0
C 120.29590179 -19.34747853 21.84473617     2    823   827   828   829
H 119.78830719 -19.12779825 23.81451232     6    826    0    0    0
H 118.49099799 -18.87044103 20.95175557     6    826    0    0    0
C 121.03631707 -22.15638905 21.14173317     2    826   830   831   832
H 121.11308355 -21.96140922 19.09685828     6    829    0    0    0
H 122.74593033 -22.73017982 21.97744053     6    829    0    0    0
C 119.01192154 -23.97021862 21.77123770     2    829   833   834   835
H 118.30086691 -23.69162167 23.66206307     6    832    0    0    0
H 117.32508780 -23.70818634 20.53926670     6    832    0    0    0
C 120.08718093 -26.65555212 21.79058865     2    832   836   837   838
H 121.31962797 -26.78167170 20.09658674     6    835    0    0    0
H 121.60005784 -26.72500567 23.27728160     6    835    0    0    0
C 117.92859812 -28.55055737 21.72122370     2    835   839   840   841
H 116.21197264 -28.06389767 22.77209275     6    838    0    0    0
H 117.14623693 -28.68763534 19.78734678     6    838    0    0    0
C 118.65065948 -31.10368714 22.68642831     2    838   842   843   844
H 120.02264398 -32.04360311 21.37824863     6    841    0    0    0
H 119.58648614 -30.93693739 24.54327520     6    841    0    0    0
C 116.43841740 -32.99186888 23.00764995     1    841   845   846   847
H 115.06993561 -32.50177743 24.44791942     6    844    0    0    0
H 117.06560204 -34.81081617 23.55759785     6    844    0    0    0
H 115.38350125 -33.09986898 21.20039033     6    844    0    0    0
H 112.22986845 20.46411890 16.85831312     6     849    0    0    0 
C 111.31803856 18.70442234 17.46783436     1     848    850    851    852
H 111.05062053 19.15043558 19.37972920     6     849    0    0    0
H 109.46705352 18.32105102 16.50939369     6     849    0    0    0
C 112.99137238 16.23199073 17.32522640     2     849    853    854    855
H 114.90318695 16.86600159 17.99242619     6     852    0    0    0
H 112.18370840 14.93841026 18.68911406     6     852    0    0    0
C 113.11368991 14.82548477 14.72449708     2     852    856   857   858
H 111.21806516 14.92336874 13.89653087     6     855    0    0    0
H 114.40318484 15.98589174 13.67072417     6     855    0    0    0
C 113.76919557 12.09134974 14.94194926     2     855   859   860   861
H 115.64869808 11.85913090 15.62259497     6    858    0    0    0
H 112.39917852 11.27949268 16.31102157     6    858    0    0    0
C 113.69297656 10.65944855 12.28045623     2    858   862   863   864
H 112.06873070 11.38112996 11.25815905     6    861    0    0    0
H 115.28597033 11.07895848 11.01574343     6    861    0    0    0
C 113.74144377 7.79183398 12.60415953     2    861   865   866   867
H 114.99309616 7.29620185 14.19907002     6    864    0    0    0
H 111.92243839 7.06258253 13.18056324     6    864    0    0    0
C 114.90582668 6.71766330 10.20558577     2    864   868   869   870
H 113.50141038 6.99283635 8.74230879     6    867    0    0    0
H 116.72544080 7.43373961 9.82646824     6    867    0    0    0
C 115.01558102 3.79623683 10.77470562     2    867   871   872   873
H 116.28540450 3.58315987 12.45070028     6    870    0    0    0
H 113.23250944 3.07296315 11.64628860     6    870    0    0    0
C 115.84714501 2.21963799 8.45326258     2    870   874   875   876
H 114.90399816 0.31376941 8.75654476     6    873    0    0    0
H 115.17844296 3.14524582 6.78372567     6    873    0    0    0
C 118.70349909 1.88864270 8.17615086     2    873   877   878   879
H 119.70943795 3.67534778 8.66996185     6    876    0    0    0
H 119.30154439 0.78267620 9.73847085     6    876    0    0    0
C 119.67225005 0.81900736 5.58635286     2    876   880   881   882
H 119.17851826 -1.23861202 5.51783623     6    879    0    0    0
H 118.58275898 1.87388938 4.12010491     6    879    0    0    0
C 122.56579516 1.24426324 5.18154699     1    879   883   884   885
H 123.58470813 -0.15844241 6.53091105     6    882    0    0    0
H 123.10114988 3.23507715 5.51524995     6    882    0    0    0
H 123.07498578 0.76596376 3.22130580     6    882    0    0    0
H 114.66492448 -20.05548319 24.82951002     6     887    0    0    0 
C 113.28106029 -19.00909278 23.68573611     1     886    888    889    890
H 114.05620705 -18.80544562 21.82721775     6     887    0    0    0
H 111.66356445 -20.19221579 23.62902403     6     887    0    0    0
C 112.79849651 -16.29796974 24.36108007     2     887    891    892    893
H 111.68626411 -15.35494311 22.91618047     6     890    0    0    0
H 111.62828795 -16.10284415 26.07727178     6     890    0    0    0
C 115.14642644 -14.63374487 24.43786458     2     890    894   895   896
H 116.73655999 -15.64304637 25.43452027     6     893    0    0    0
H 115.71373303 -14.40399951 22.43047194     6     893    0    0    0
C 114.80351074 -12.05919892 25.75653495     2     893   897   898   899
H 112.91006335 -11.58995696 25.33243379     6    896    0    0    0
H 115.03776677 -12.22057817 27.77481483     6    896    0    0    0
C 116.84595270 -10.09246599 24.97146517     2    896   900   901   902
H 118.78894693 -10.65383269 25.24341781     6    899    0    0    0
H 116.46555744 -9.97971684 23.02149634     6    899    0    0    0
C 116.34858869 -7.29095176 25.84854391     2    899   903   904   905
H 114.55417648 -6.72232636 25.05248580     6    902    0    0    0
H 116.04244447 -7.23886543 27.77460336     6    902    0    0    0
C 118.52265125 -5.55751740 25.08381265     2    902   906   907   908
H 120.20157485 -6.19819728 25.90430696     6    905    0    0    0
H 118.60470276 -5.71508845 22.90623001     6    905    0    0    0
C 118.06612560 -2.86323230 26.16964815     2    905   909   910   911
H 116.25576729 -2.20304336 25.32178145     6    908    0    0    0
H 117.72744569 -2.99738376 28.16097786     6    908    0    0    0
C 120.31984562 -1.13215770 25.72948035     2    908   912   913   914
H 121.97650534 -1.93039764 26.61556379     6    911    0    0    0
H 120.90313335 -0.78489163 23.82941935     6    911    0    0    0
C 119.91980433 1.46392681 26.96249247     2    911   915   916   917
H 118.05888511 2.18569736 26.48940543     6    914    0    0    0
H 119.59959147 1.32323474 28.95645495     6    914    0    0    0
C 122.16894075 3.17282547 26.21792709     2    914   918   919   920
H 123.83949091 2.59005447 27.31415178     6    917    0    0    0
H 122.86204928 2.83411655 24.31721419     6    917    0    0    0
C 121.81073042 5.97506898 27.11569449     1    917   921   922   923
H 121.70513515 5.96683525 29.13447517     6    920    0    0    0
H 120.19004272 6.98856730 26.40251443     6    920    0    0    0
H 123.49360404 7.16517101 27.01781283     6    920    0    0    0
H 99.81075845 -5.31107500 14.38042586     6     925    0    0    0 
C 101.18084021 -4.90604025 12.94328306     1     924    926    927    928
H 102.11658214 -6.64913569 12.48279390     6     925    0    0    0
H 100.32557725 -4.09806424 11.19101465     6     925    0    0    0
C 102.96774964 -3.02144133 14.16519129     2     925    929    930    931
H 101.67055231 -1.37589472 14.57978811     6     928    0    0    0
H 103.44121143 -3.67949889 16.22099081     6     928    0    0    0
C 105.22595669 -2.36160483 12.45866006     2     928    932   933   934
H 104.75732868 -1.63202802 10.51481025     6     931    0    0    0
H 106.32042422 -0.86907046 13.15604914     6     931    0    0    0
C 106.89408513 -4.78962555 12.12730022     2     931   935   936   937
H 107.82674272 -5.08273373 13.85191891     6    934    0    0    0
H 105.81504953 -6.36531233 11.58400570     6    934    0    0    0
C 109.03876246 -4.53509922 10.20476492     2    934   938   939   940
H 108.32184449 -4.13430370 8.26623169     6    937    0    0    0
H 110.16671044 -2.74592708 10.70830888     6    937    0    0    0
C 110.72027063 -6.82072238 10.02633021     2    937   941   942   943
H 111.37573832 -7.41835455 11.92245977     6    940    0    0    0
H 109.57272960 -8.26123375 9.34984708     6    940    0    0    0
C 113.05875234 -6.51305080 8.32003638     2    940   944   945   946
H 113.96260866 -4.76918029 8.91555193     6    943    0    0    0
H 114.39209397 -8.10083792 8.59988545     6    943    0    0    0
C 112.67034202 -6.14033057 5.40146827     2    943   947   948   949
H 111.81064681 -7.83014061 4.53499885     6    946    0    0    0
H 111.30671256 -4.62247192 5.10371200     6    946    0    0    0
C 115.18267640 -5.53436056 4.06608251     2    946   950   951   952
H 116.06090878 -4.21251780 5.40140896     6    949    0    0    0
H 116.41002313 -7.15884191 4.00386156     6    949    0    0    0
C 114.68449778 -4.62956932 1.31016025     2    949   953   954   955
H 113.96255379 -6.14500436 0.24584871     6    952    0    0    0
H 113.23101612 -3.13747046 1.20342718     6    952    0    0    0
C 117.13636306 -3.51098326 0.06369283     2    952   956   957   958
H 116.79130395 -2.52026695 -1.68227941     6    955    0    0    0
H 117.62775468 -1.98099477 1.28339726     6    955    0    0    0
C 119.25057005 -5.55822218 -0.27778054     1    955   959   960   961
H 120.86370748 -4.66588672 -0.95404352     6    958    0    0    0
H 118.83393712 -6.95425832 -1.65199953     6    958    0    0    0
H 119.69381455 -6.35343960 1.42514690     6    958    0    0    0
H 124.66224368 -13.95809464 44.76710941     6     963    0    0    0 
C 123.62053969 -15.78858751 44.22701826     1     962    964    965    966
H 123.25296196 -15.80965132 42.14641115     6     963    0    0    0
H 124.86101515 -17.43306997 44.67127000     6     963    0    0    0
C 121.18992000 -15.99312818 45.79857114     2     963    967    968    969
H 119.73978580 -17.18843471 44.86923066     6     966    0    0    0
H 121.64781637 -16.92463752 47.62127633     6     966    0    0    0
C 120.14344632 -13.44970265 46.49351369     2     966    970   971   972
H 121.60082244 -12.38504607 47.55003991     6     969    0    0    0
H 119.83074955 -12.24853614 44.91400257     6     969    0    0    0
C 117.86226340 -13.63469201 48.25067749     2     969   973   974   975
H 116.16795027 -14.37677733 47.26521818     6    972    0    0    0
H 118.18806121 -14.91160672 49.75596749     6    972    0    0    0
C 117.00371328 -11.25038295 49.60732159     2    972   976   977   978
H 118.45694238 -10.69530861 50.94815619     6    975    0    0    0
H 116.83652933 -9.57667389 48.41450583     6    975    0    0    0
C 114.38189610 -11.37989845 50.83487311     2    975   979   980   981
H 112.72165077 -11.74196936 49.75498269     6    978    0    0    0
H 114.65592550 -13.07131182 52.07497965     6    978    0    0    0
C 114.03078978 -9.15639732 52.72539680     2    978   982   983   984
H 115.38697673 -9.22214221 54.21498216     6    981    0    0    0
H 113.93012634 -7.25084012 51.97031844     6    981    0    0    0
C 111.49246283 -9.57373854 54.34620699     2    981   985   986   987
H 109.85178834 -9.50097293 53.15381494     6    984    0    0    0
H 111.76549359 -11.46129893 55.21016172     6    984    0    0    0
C 111.09196817 -7.47088835 56.38898936     2    984   988   989   990
H 109.34384961 -7.73768985 57.25084987     6    987    0    0    0
H 112.50210593 -7.78014499 57.97352040     6    987    0    0    0
C 111.10774067 -4.71718706 55.54270503     2    987   991   992   993
H 110.47092222 -4.85975813 53.58831575     6    990    0    0    0
H 109.76198134 -3.68884658 56.79982093     6    990    0    0    0
C 113.70071851 -3.37129198 55.60745798     2    990   994   995   996
H 114.73820597 -3.44746767 57.36219487     6    993    0    0    0
H 114.95901112 -4.26408394 54.35536515     6    993    0    0    0
C 113.32717415 -0.58050868 54.94911500     1    993   997   998   999
H 113.02892751 -0.21609315 52.99253996     6    996    0    0    0
H 115.09523394 0.41749872 55.27748891     6    996    0    0    0
H 111.83232123 0.52842799 55.86987829     6    996    0    0    0
H 131.96874609 -27.39637624 42.33109435     6     1001    0    0    0 
C 131.08465989 -25.74704182 41.58060449     1     1000    1002    1003    1004
H 132.45241080 -24.56318322 40.73319100     6     1001    0    0    0
H 129.59550831 -26.36435820 40.29910440     6     1001    0    0    0
C 129.75546811 -24.49941827 43.85006748     2     1001    1005    1006    1007
H 128.30885718 -23.29892060 43.00808833     6     1004    0    0    0
H 128.94740909 -25.78633705 45.26470907     6     1004    0    0    0
C 131.63395293 -22.84832417 45.38940855     2     1004    1008   1009   1010
H 132.98046749 -24.12920390 46.31727247     6     1007    0    0    0
H 132.66653738 -21.57116725 44.06282777     6     1007    0    0    0
C 130.27204180 -21.16008752 47.32839607     2     1007   1011   1012   1013
H 129.14046024 -19.85248488 46.15354849     6    1010    0    0    0
H 128.96828871 -22.25866949 48.56332812     6    1010    0    0    0
C 131.97412355 -19.56470835 48.91403614     2    1010   1014   1015   1016
H 133.23549241 -20.69346603 50.13123676     6    1013    0    0    0
H 133.14044580 -18.50043545 47.53902383     6    1013    0    0    0
C 130.50549659 -17.62244408 50.36984762     2    1013   1017   1018   1019
H 129.31321102 -16.45733825 49.21857241     6    1016    0    0    0
H 129.39617123 -18.57092908 51.78070263     6    1016    0    0    0
C 132.42949442 -15.81535130 51.69463736     2    1016   1020   1021   1022
H 133.81443886 -17.03685498 52.54687255     6    1019    0    0    0
H 133.66378706 -15.01815488 50.33274899     6    1019    0    0    0
C 131.26938987 -13.60922399 53.32484326     2    1019   1023   1024   1025
H 129.81375941 -14.48197188 54.48525652     6    1022    0    0    0
H 132.51020231 -12.87716752 54.80983200     6    1022    0    0    0
C 130.23644898 -11.36318429 51.86316082     2    1022   1026   1027   1028
H 131.76112398 -11.17923948 50.51607865     6    1025    0    0    0
H 128.60049638 -12.12912212 50.89836510     6    1025    0    0    0
C 129.47204919 -9.07299720 53.29000781     2    1025   1029   1030   1031
H 127.73580172 -9.47892517 54.42703849     6    1028    0    0    0
H 130.88273064 -8.50299098 54.65414076     6    1028    0    0    0
C 128.33492665 -7.14826053 51.46489196     2    1028   1032   1033   1034
H 129.56806785 -6.67872682 49.95471484     6    1031    0    0    0
H 126.72935885 -8.07274053 50.46568931     6    1031    0    0    0
C 127.21178436 -4.72358138 52.87309125     1    1031   1035   1036   1037
H 125.76898655 -3.82223544 51.73694310     6    1034    0    0    0
H 128.64816949 -3.35563247 53.31490229     6    1034    0    0    0
H 126.23288227 -5.27540999 54.63941521     6    1034    0    0    0
H 103.95197631 -20.74617940 31.77403922     6     1039    0    0    0 
C 102.43547511 -21.19948899 30.53787154     1     1038    1040    1041    1042
H 101.04456467 -22.40982619 31.45743466     6     1039    0    0    0
H 101.73019295 -19.45221450 29.94462150     6     1039    0    0    0
C 103.57683560 -22.59974824 28.23182905     2     1039    1043    1044    1045
H 105.29737511 -21.67516577 27.54740964     6     1042    0    0    0
H 104.38826469 -24.32191340 28.83493231     6     1042    0    0    0
C 101.46860204 -23.67741978 26.43777380     2     1042    1046   1047   1048
H 100.17512634 -24.94720911 27.67403502     6     1045    0    0    0
H 100.30355467 -22.06862525 25.86127579     6     1045    0    0    0
C 102.18241749 -25.01795437 23.88346351     2     1045   1049   1050   1051
H 103.49048250 -23.69164918 23.11534537     6    1048    0    0    0
H 103.31612430 -26.65966652 24.42759290     6    1048    0    0    0
C 99.91138838 -25.44244719 22.12388261     2    1048   1052   1053   1054
H 98.21656108 -26.15347343 23.14660830     6    1051    0    0    0
H 99.54622415 -23.58068922 21.45186702     6    1051    0    0    0
C 100.29792551 -27.40758713 20.19277083     2    1051   1055   1056   1057
H 102.00181339 -26.94716710 19.03859795     6    1054    0    0    0
H 100.71335430 -29.23228044 21.01964420     6    1054    0    0    0
C 97.99643693 -27.51997885 18.42355598     2    1054   1058   1059   1060
H 96.22089739 -27.40019815 19.45099684     6    1057    0    0    0
H 97.96769313 -25.77604006 17.27122496     6    1057    0    0    0
C 97.98197377 -29.88640730 16.79235526     2    1057   1061   1062   1063
H 99.45805471 -29.65332837 15.45800269     6    1060    0    0    0
H 98.30317613 -31.63766706 17.91819762     6    1060    0    0    0
C 95.46447211 -30.20863990 15.24438252     2    1060   1064   1065   1066
H 93.69516454 -30.15664851 16.28030645     6    1063    0    0    0
H 95.25382738 -28.75207758 13.78852400     6    1063    0    0    0
C 95.54901908 -32.79086457 13.78595684     2    1063   1067   1068   1069
H 97.36025661 -32.98850581 12.53336942     6    1066    0    0    0
H 95.29611164 -34.46868781 14.96467266     6    1066    0    0    0
C 93.47478964 -33.20428414 11.84171448     2    1066   1070   1071   1072
H 91.95318523 -34.14997238 12.64049378     6    1069    0    0    0
H 92.69931171 -31.34876033 11.18999148     6    1069    0    0    0
C 94.45184913 -34.37382935 9.42824872     1    1069   1073   1074   1075
H 93.01918455 -35.08464351 8.30924897     6    1072    0    0    0
H 95.37727301 -36.12980812 10.02112038     6    1072    0    0    0
H 95.70986323 -33.16917177 8.37999333     6    1072    0    0    0
H 89.52857269 -10.83571487 10.59865721     6     1077    0    0    0 
C 89.75753039 -11.38460257 12.38949439     1     1076    1078    1079    1080
H 89.88064845 -9.75402810 13.72352574     6     1077    0    0    0
H 88.04237507 -12.20627817 13.17727583     6     1077    0    0    0
C 92.09765035 -13.22278228 12.54789957     2     1077    1081    1082    1083
H 92.41843764 -13.79156145 14.54690602     6     1080    0    0    0
H 91.62018548 -14.91118555 11.45741116     6     1080    0    0    0
C 94.65497619 -12.08661188 11.60692376     2     1080    1084   1085   1086
[...]
 1619      H      87.9677408600   -25.2224769000    37.1972693900
 1620      H      84.7787389300   -25.4267554800    38.0160440300
 1621      C      87.3351911200   -26.8511183200    40.8259389800
 1622      H      85.9699097600   -28.2682824000    41.5132668300
 1623      H      89.2139636100   -27.6520129200    40.8319954000
 1624      C      87.1279909800   -24.4541229700    42.4651564500
 1625      H      88.3724354100   -23.0526733500    41.7264208000
 1626      H      85.2684808100   -23.6366969700    42.3378233300
 1627      C      87.7942710600   -25.0007100200    45.3118130600
 1628      H      87.3128881500   -26.8910979800    46.0369515900
 1629      H      89.8113314100   -24.7724840000    45.6440161100
 1630      C      86.3245244900   -23.2797617500    47.2103797300
 1631      H      86.6224315600   -21.2758396900    46.6309089000
 1632      H      84.3242171300   -23.5470674700    47.3698074300
 1633      C      87.4343425100   -23.4788203400    49.9157165500
 1634      H      87.3902878300   -25.4575878800    50.5039207500
 1635      H      89.4419308500   -23.1253255800    49.6714857000
 1636      C      86.1418897500   -21.7839736100    51.9226645600
 1637      H      86.6424652700   -19.8125058700    51.6173147600
 1638      H      84.1068621900   -22.1428445400    51.8147213700
 1639      C      87.0236806300   -22.2510224200    54.6322799300
 1640      H      86.5007860900   -24.0353520100    55.5629198500
 1641      H      89.0354372800   -22.4953579000    54.5788984400
 1642      C      86.0814668200   -20.1466973600    56.4080643200
 1643      H      86.6566169800   -18.2565344400    55.9523634800
 1644      H      86.9557264600   -20.5050312100    58.3144346300
 1645      H      83.9933371600   -19.9875348200    56.5330474500
 1646      H     112.1038721100   -44.2137243100    47.2431989700
 1647      C     110.9243001900   -42.9053413600    46.3344555700
 1648      H     111.7322872100   -42.5444813700    44.4669626300
 1649      H     108.9567437300   -43.4794014200    45.9726934500
 1650      C     111.1259251500   -40.5002453100    48.1057724500
 1651      H     110.0393906800   -38.8265278400    47.3629922200
 1652      H     110.2670650700   -41.1256484300    49.9003769200
 1653      C     113.8608425800   -39.5594707400    48.4828034400
 1654      H     115.2666134500   -41.0526446500    48.4357420900
 1655      H     114.2369927600   -38.2994635100    46.7815200700
 1656      C     114.3320137100   -38.0545587400    50.9677343000
 1657      H     113.4286074700   -38.9193095700    52.5683258100
 1658      H     116.2532001400   -37.8348035900    51.5315726000
 1659      C     113.3892162600   -35.3767240800    50.5989552200
 1660      H     114.8126040200   -34.3671678400    49.3894165400
 1661      H     111.7152264100   -35.3643330900    49.3488308600
 1662      C     113.0331225300   -33.8257685900    53.0111477100
 1663      H     111.8619730500   -34.8963569500    54.4411189100
 1664      H     114.9752245200   -33.5525925100    53.8637678600
 1665      C     111.5779024300   -31.3329357200    52.4394977900
 1666      H     112.7323869800   -30.0341284800    51.4694495300
 1667      H     109.8758274900   -31.6695120800    51.1695729100
 1668      C     110.6579174800   -30.1115501700    54.8530636200
 1669      H     109.4385397000   -31.3626256300    55.9679417800
 1670      H     112.1220364200   -29.6047916100    56.4220407800
 1671      C     109.2754565200   -27.5718894000    54.4027919000
 1672      H     110.6148658700   -26.2103183600    53.3705979200
 1673      H     107.9216060200   -27.9971319200    52.9698390200
 1674      C     107.8739570600   -26.3834363100    56.5817661100
 1675      H     106.4137509800   -27.7046935100    57.4065929300
 1676      H     109.2535222000   -25.7861771000    58.0241144600
 1677      C     106.6500015400   -24.0034052000    55.6392322800
 1678      H     107.8321091800   -22.6739319200    54.6682446300
 1679      H     105.1532754300   -24.4339053400    54.3197915400
 1680      C     105.5435339400   -22.7040297900    57.8428112200
 1681      H     104.7167341300   -20.8749125100    57.3481516800
 1682      H     106.8716783200   -22.1853237900    59.2005279000
 1683      H     103.9909456100   -23.7655501200    58.8275229600
 1684      H     123.4648190400   -28.9309011200    39.8868911500
 1685      C     121.4750867100   -29.5164194900    39.5341400900
 1686      H     121.5076566200   -31.2240698700    38.2993773900
 1687      H     120.5947711100   -29.9931078900    41.2838095100
 1688      C     119.9715626000   -27.2209196200    38.5521096200
 1689      H     119.9369941500   -25.8736271200    40.0079604200
 1690      H     120.8674276500   -26.1766772100    36.9608195200
 1691      C     117.2458525600   -27.9239428300    37.6917922200
 1692      H     117.4756682600   -29.6916991700    36.6719453300
 1693      H     116.0730398600   -28.5365940200    39.2579582700
 1694      C     115.9204246600   -25.9320576500    36.2815342600
 1695      H     117.0070534400   -25.4870552900    34.5256524300
 1696      H     114.2682444000   -26.8757763100    35.4835484700
 1697      C     115.5195584300   -23.5234120600    37.8025646000
 1698      H     114.9180796200   -23.6533165900    39.7875412600
 1699      H     117.1970493100   -22.2371044200    37.7436538800
 1700      C     113.3535040000   -22.0661390300    36.5191858200
 1701      H     113.6436298700   -20.0313588900    36.9660121000
 1702      H     113.3824898100   -22.2812524400    34.4113389600
 1703      C     110.8576949100   -22.8772700900    37.6628141900
 1704      H     110.8265998400   -25.0596850700    37.4603606100
 1705      H     110.9005053100   -22.5908911100    39.7383696700
 1706      C     108.3634823500   -22.0535312100    36.4729170700
 1707      H     108.4777747100   -20.1000356800    36.2040751400
 1708      H     107.9114562500   -22.8663924300    34.6414311200
 1709      C     106.0672958300   -22.7051026600    38.3033877100
 1710      H     105.9893052300   -24.6833375700    38.8970210000
 1711      H     106.3304176500   -21.6520465300    40.0489224100
 1712      C     103.4465257200   -21.8059183100    37.3265512300
 1713      H     103.3849042500   -19.6615136600    36.9801357700
 1714      H     102.8609954100   -22.7117058000    35.5815130800
 1715      C     101.3984132200   -22.3182491000    39.3509787000
 1716      H      99.6543328000   -21.6799759400    38.4828083400
 1717      H     101.3231249800   -24.2616457700    39.9683112100
 1718      C     101.4743385100   -20.5177924600    41.6195148100
 1719      H      99.8309148100   -20.6981889200    42.9611038400
 1720      H     101.8250526000   -18.5321071000    41.0305857700
 1721      H     103.3173763100   -20.9656542100    42.6992576300
 1722      H     124.0296014000    -3.8882343500    57.5580596400
 1723      C     122.1644891900    -3.5210880700    58.4074644900
 1724      H     121.6562505100    -5.3240248300    59.2016524100
 1725      H     122.5180198700    -2.1823292900    59.8580757100
 1726      C     120.3450529000    -2.4334602100    56.4485983900
 1727      H     118.5541411500    -2.0331013900    57.2357989000
 1728      H     121.1095935600    -0.5582901200    55.8101288200
 1729      C     120.1103017800    -4.2423906500    54.2251389100
 1730      H     121.7540540200    -5.5083124100    54.1323252400
 1731      H     118.5742223200    -5.5738182600    54.7975022200
 1732      C     119.5675251300    -3.0144811500    51.5633935600
 1733      H     117.7895393800    -2.0459124900    51.6885845400
 1734      H     121.0840112800    -1.7633543900    51.0648974500
 1735      C     119.2862482800    -4.9949849300    49.4866380400
 1736      H     120.6968231000    -6.3845765200    49.8529839500
 1737      H     117.4616427800    -5.8151546200    49.5694736300
 1738      C     119.7134431800    -3.6106393500    46.9089623800
 1739      H     118.3238309900    -2.0200725300    46.5736752600
 1740      H     121.4095165000    -2.6115296200    46.9891337900
 1741      C     119.5073942300    -5.6889532500    44.7945948400
 1742      H     121.1428275100    -6.9276292500    45.0723043800
 1743      H     117.7968538700    -6.7683810900    45.0261993400
 1744      C     119.2200654400    -4.3461545800    42.2054425000
 1745      H     117.4121011000    -3.4066876100    42.0142503600
 1746      H     120.6338633500    -2.9269529600    42.0627545300
 1747      C     119.4624957500    -6.1955260600    39.8354980000
 1748      H     120.8563305000    -7.6608751500    40.2622963900
 1749      H     117.7751300400    -7.3460121600    39.5261893500
 1750      C     119.8703723200    -4.5099526900    37.2634773200
 1751      H     118.4446023300    -3.0426472900    37.2375553400
 1752      H     121.6876828100    -3.5220592000    37.3281669600
 1753      C     119.5567655300    -6.0504862100    34.7637761200
 1754      H     121.1914615400    -7.2433605900    34.8311553200
 1755      H     117.7876172800    -7.1819008300    34.5675688800
 1756      C     119.6201241900    -4.4209689600    32.5311809000
 1757      H     119.3573616300    -5.5485627700    30.7700241500
 1758      H     121.4660129700    -3.5843439700    32.2910592800
 1759      H     117.9920782500    -3.0775044300    32.6890748300
 1760      H     130.7688256100     9.3026447100    29.3646310600
 1761      C     131.0165167300    10.7777453800    30.7053396700
 1762      H     133.0094754300    11.1741568400    31.2560440600
 1763      H     130.1536501900    12.4498043800    29.8254185300
 1764      C     129.5768801200    10.1465746400    33.2046295700
 1765      H     127.8017974400     9.4539325700    32.5925615600
 1766      H     130.6963414700     8.6932256800    34.1634134100
 1767      C     129.2928224000    12.4038751700    34.9083935000
 1768      H     131.1424422300    13.1237365100    35.5152406000
 1769      H     128.2503948200    13.7842197500    33.7443633900
 1770      C     127.8914321600    11.8353283500    37.4875384200
 1771      H     126.7390842000    13.3817367600    37.9558002700
 1772      H     126.6018790100    10.2009785900    36.9963311700
 1773      C     129.5591549900    10.9913196400    39.7507801700
 1774      H     130.7232829100     9.3295148200    39.1258873400
 1775      H     130.8033660400    12.5108810800    40.3074927400
 1776      C     127.8678506000    10.0036735800    41.9330091000
 1777      H     126.2553633200    11.1792072800    42.2051382600
 1778      H     127.0011326500     8.2412488400    41.3754696400
 1779      C     129.2093265300     9.9200141400    44.5996073300
 1780      H     130.7522075000     8.5122618600    44.5024112200
 1781      H     129.8268859500    11.8190288100    44.8934055400
 1782      C     127.2852124900     9.4177705700    46.7149996100
 1783      H     126.0821508600    11.1125044800    46.7146017800
 1784      H     126.0953775900     7.8746521300    46.1644373100
 1785      C     128.5174930700     9.0349035700    49.1661109500
 1786      H     130.5429188300     8.3189182300    49.0425399600
 1787      H     128.7497246500    10.9317446200    49.8958512400
 1788      C     126.9927666300     7.3932241700    51.0825983000
 1789      H     124.9655310400     7.8193150600    51.3390798900
 1790      H     126.8501783800     5.5517004100    50.1068343900
 1791      C     128.0294193600     7.4453386200    53.7108855200
 1792      H     130.0634303700     7.2918351300    53.7151448100
 1793      H     127.5742037800     9.3815089400    54.4627154000
 1794      C     126.6339189600     5.5229429500    55.3556863100
 1795      H     126.9639373100     3.5434599800    54.7590857300
 1796      H     124.6627933400     6.2105964800    55.0639815400
 1797      H     126.8810406200     5.9681344900    57.2458484000
 1798      H      88.1227138000   -10.0403332300    21.5785929200
 1799      C      89.7341527800   -11.1390670200    21.9731483400
 1800      H      90.2549302200   -11.1988150300    23.9485511400
 1801      H      89.4732734900   -13.2445733700    21.5335075200
 1802      C      91.7492771900    -9.9589018700    20.3016914400
 1803      H      91.0192251800   -10.2282850400    18.3524924000
 1804      H      91.7059939900    -7.9997888100    20.6143470800
 1805      C      94.4662388200   -11.0052374500    20.7800383500
 1806      H      94.6413885800   -11.3930646800    22.8549411400
 1807      H      94.5594108500   -12.8876814700    19.7800323700
 1808      C      96.7256163200    -9.4307191400    19.6015325700
 1809      H      96.6624039700    -9.0894804100    17.5389868900
 1810      H      96.4440612100    -7.6050416500    20.5955544400
 1811      C      99.4096328300   -10.4709603000    20.1591890800
 1812      H      99.5585532100   -10.9821828800    22.0551729900
 1813      H      99.7365174400   -12.3242854100    19.3633448800
 1814      C     101.4324026000    -8.7798656500    19.3461153500
 1815      H     101.3733246100    -8.4261991600    17.3310787300
 1816      H     101.1875852500    -6.9696198000    20.1066027300
 1817      C     104.0528573200    -9.8039900000    19.9616761700
 1818      H     104.3064000300    -9.6192833000    22.0062327100
 1819      H     104.2046093400   -11.8923992400    19.5377645800
 1820      C     106.1952226300    -8.3642555400    18.6910526200
 1821      H     106.0729840900    -9.0593571600    16.8741626500
 1822      H     105.5834268800    -6.3535858200    18.7679169800
 1823      C     108.8613772800    -9.0740734600    19.6771202200
 1824      H     108.9785265700    -8.2984183900    21.4636586200
 1825      H     108.9218547600   -11.1725620800    19.9967247500
 1826      C     111.1148183500    -8.1921164200    17.9242645500
 1827      H     110.9677330700    -9.3555108700    16.1063658800
 1828      H     110.8828091000    -6.2331105300    17.2840242300
 1829      C     113.7566459100    -8.5511454100    18.9790318300
 1830      H     113.9184942500    -7.5039863300    20.8499519600
 1831      H     114.2022704100   -10.5829274700    19.3149443300
 1832      C     115.7603270800    -7.4230592400    17.1746014000
 1833      H     115.5284973100    -5.3902940800    16.6090651100
 1834      H     115.9041679400    -8.4684410500    15.3128931600
 1835      H     117.4984706000    -7.4592242500    18.3376688000
 1836      H     110.1690460300    -6.3070594200    28.6933773000
 1837      C     109.0824625400    -4.5420210300    28.7846137500
 1838      H     107.0789849600    -4.9711269900    28.4836124400
 1839      H     109.1757747400    -3.6952231600    30.7158724900
 1840      C     110.0376890300    -2.4547990900    26.9619539400
 1841      H     108.8696920900    -0.8873642600    27.4346725300
 1842      H     111.8434887000    -1.6448076400    27.6533596300
 1843      C     109.8308791100    -2.8507830600    24.0211886200
 1844      H     111.2610775700    -4.2208049600    23.3999042300
 1845      H     107.9854886800    -3.6632322200    23.8055833600
 1846      C     110.4402510900    -0.4268753100    22.4891959600
 1847      H     109.5131593400     1.0842035400    23.5738006800
 1848      H     112.3888088100     0.0166641200    22.5665947000
 1849      C     109.7194245400    -0.7479518400    19.6887489500
 1850      H     111.5145330300    -1.3708745100    18.8612459400
 1851      H     108.3620318800    -2.3034330800    19.2824182600
 1852      C     108.9572784100     1.8334070400    18.5692424100
 1853      H     110.0683482500     3.1062542200    19.8066472500
 1854      H     109.6625741100     2.0505527900    16.6615128700
 1855      C     105.9752814400     2.2973299600    18.7902637500
 1856      H     105.0007774800     0.9212050900    17.6738239500
 1857      H     105.6240038000     1.8360574500    20.8528520700
 1858      C     105.0953080400     5.1049134800    18.2520738800
 1859      H     103.0140080300     5.3566101300    18.6266426200
 1860      H     106.0964306100     6.1473212600    19.5456575000
 1861      C     105.7067232600     5.9071724200    15.4468036800
 1862      H     107.8211596300     5.8812194100    15.2638387900
 1863      H     104.8488644400     4.4343769100    14.3103867300
 1864      C     104.5405595500     8.5212184800    14.6939119600
 1865      H     102.4531298400     8.3005692200    14.7376854000
 1866      H     104.9934989200    10.1814451900    15.9746797800
 1867      C     105.3419254300     9.2804144600    11.9513334400
 1868      H     107.3980402900     9.6704116000    11.7046084100
 1869      H     105.1475357800     7.6911219400    10.5677550100
 1870      C     103.8674399100    11.5548097600    10.9109390600
 1871      H     104.4965770500    11.9549743400     9.0018509000
 1872      H     104.3403982200    13.1649902600    12.0877993300
 1873      H     101.8116212600    11.4557735200    11.0961967300
 1874      H      97.2742343100     3.8488163300    53.4131800000
 1875      C      97.4050640000     1.8095894800    53.2225169900
 1876      H      98.0058254100     1.1976366600    55.0704776200
 1877      H      95.4739414600     1.1834285000    53.0373405400
 1878      C      99.3262538500     1.3757281800    51.0964936900
 1879      H      98.8449688500     2.4962979600    49.4354061800
 1880      H     101.0599569400     2.0533883400    51.7837184100
 1881      C      99.2960054900    -1.5501638500    50.2995889000
 1882      H      99.2235901200    -2.7097985700    51.9584171400
 1883      H      97.5244101700    -2.0135934600    49.3610292100
 1884      C     101.5166829900    -2.3258912300    48.8192765900
 1885      H     101.7088339500    -1.1499548500    47.0555429700
 1886      H     103.0773897600    -1.7092044100    49.9216540900
 1887      C     101.4059312800    -5.2962349000    48.2931883600
 1888      H     101.5944370800    -6.1822313200    50.1917795700
 1889      H      99.6660579700    -5.8731831600    47.4001205200
 1890      C     103.8110816000    -6.0985002900    46.7786380500
 1891      H     103.8742496700    -5.4981928900    44.8311751200
 1892      H     105.3668454200    -5.1716978400    47.6447538200
 1893      C     104.0936757700    -8.9577993800    46.9248889300
 1894      H     103.9309117300    -9.5360619000    48.7883722500
 1895      H     102.6551731700    -9.8709112300    45.6152328400
 1896      C     106.7992129200    -9.9387257100    46.1027225600
 1897      H     107.4365577300    -9.0167088300    44.4503190300
 1898      H     108.2756883500    -9.4534027300    47.5443117300
 1899      C     106.6138704300   -12.8115234200    45.8875673200
 1900      H     105.7658491800   -13.5166231200    47.7219594300
 1901      H     105.0641670800   -13.3540908500    44.5374679600
 1902      C     109.0778833300   -14.2666260800    45.2594902700
 1903      H     110.2945948900   -13.3700114900    43.8450639000
 1904      H     110.0148646300   -14.4155113000    47.0776798600
 1905      C     108.3921303100   -16.9050714800    44.4443006200
 1906      H     107.4379455000   -17.6576963000    46.0372898000
 1907      H     107.2085088500   -16.9732359200    42.8232985600
 1908      C     110.8947257900   -18.2032331700    43.9541837800
 1909      H     111.7093259900   -18.7403942800    45.7399922400
 1910      H     112.2500791800   -17.2569813800    42.7229982900
 1911      H     110.7246289900   -20.1048716200    43.2515565800
 ----------------------------------------------------------------
 Nuclear Repulsion Energy =           0.00000000 hartrees
 There are       48 alpha and       48 beta electrons
 Total job time:  29.37s(wall), 26.31s(cpu) 
 Sun Jul  3 09:42:34 2022

        *************************************************************
        *                                                           *
        *  Thank you very much for using Q-Chem.  Have a nice day.  *
        *                                                           *
        *************************************************************


