                  Welcome to Q-Chem
     A Quantum Leap Into The Future Of Chemistry


 Q-Chem 5.4 (devel), Q-Chem, Inc., Pleasanton, CA (2021)

 E. Epifanovsky,  A. T. B. Gilbert,  Xintian Feng,  Joonho Lee,  Yuezhi Mao,  
 N. Mardirossian,  P. Pokhilko,  A. White,  M. Wormit,  M. P. Coons,  
 A. L. Dempwolff,  Zhengting Gan,  D. Hait,  P. R. Horn,  L. D. Jacobson,  
 I. Kaliman,  J. Kussmann,  A. W. Lange,  Ka Un Lao,  D. S. Levine,  Jie Liu,  
 S. C. McKenzie,  A. F. Morrison,  K. Nanda,  F. Plasser,  D. R. Rehn,  
 M. L. Vidal,  Zhi-Qiang You,  Ying Zhu,  B. Alam,  B. Albrecht,  
 A. Aldossary,  E. Alguire,  J. H. Andersen,  D. Barton,  K. Begam,  A. Behn,  
 Y. A. Bernard,  E. J. Berquist,  H. Burton,  A. Carreras,  K. Carter-Fenk,  
 R. Chakraborty,  A. D. Chien,  K. D. Closser,  V. Cofer-Shabica,  
 S. Dasgupta,  Jia Deng,  M. de Wergifosse,  M. Diedenhofen,  Hainam Do,  
 S. Ehlert,  Po-Tung Fang,  S. Fatehi,  Qingguo Feng,  T. Friedhoff,  
 J. Gayvert,  Qinghui Ge,  G. Gidofalvi,  M. Goldey,  J. Gomes,  
 C. Gonzalez-Espinoza,  S. Gulania,  A. Gunina,  M. W. D. Hanson-Heine,  
 P. H. P. Harbach,  A. W. Hauser,  M. F. Herbst,  M. Hernandez Vera,  
 M. Hodecker,  Z. C. Holden,  S. Houck,  Xunkun Huang,  Kerwin Hui,  
 B. C. Huynh,  M. Ivanov,  Hyunjun Ji,  Hanjie Jiang,  B. Kaduk,  S. Kaehler,  
 K. Khistyaev,  Jaehoon Kim,  P. Klunzinger,  Z. Koczor-Benda,  
 Joong Hoon Koh,  D. Kosenkov,  L. Koulias,  T. Kowalczyk,  C. M. Krauter,  
 K. Kue,  A. Kunitsa,  T. Kus,  A. Landau,  K. V. Lawler,  D. Lefrancois,  
 S. Lehtola,  Rain Li,  Yi-Pei Li,  Jiashu Liang,  M. Liebenthal,  
 Hung-Hsuan Lin,  You-Sheng Lin,  Fenglai Liu,  Kuan-Yu Liu,  
 M. Loipersberger,  A. Luenser,  A. Manjanath,  P. Manohar,  E. Mansoor,  
 S. F. Manzer,  Shan-Ping Mao,  A. V. Marenich,  T. Markovich,  S. Mason,  
 S. A. Maurer,  P. F. McLaughlin,  M. F. S. J. Menger,  J.-M. Mewes,  
 S. A. Mewes,  P. Morgante,  J. W. Mullinax,  K. J. Oosterbaan,  G. Paran,  
 Alexander C. Paul,  Suranjan K. Paul,  F. Pavosevic,  Zheng Pei,  S. Prager,  
 E. I. Proynov,  E. Ramos,  B. Rana,  A. E. Rask,  A. Rettig,  R. M. Richard,  
 F. Rob,  E. Rossomme,  T. Scheele,  M. Scheurer,  M. Schneider,  
 N. Sergueev,  S. M. Sharada,  W. Skomorowski,  D. W. Small,  C. J. Stein,  
 Yu-Chuan Su,  E. J. Sundstrom,  Zhen Tao,  J. Thirman,  T. Tsuchimochi,  
 N. M. Tubman,  S. P. Veccham,  O. Vydrov,  J. Wenzel,  J. Witte,  A. Yamada,  
 Kun Yao,  S. Yeganeh,  S. R. Yost,  A. Zech,  Igor Ying Zhang,  Xing Zhang,  
 Yu Zhang,  D. Zuev,  A. Aspuru-Guzik,  A. T. Bell,  N. A. Besley,  
 K. B. Bravaya,  B. R. Brooks,  D. Casanova,  Jeng-Da Chai,  S. Coriani,  
 C. J. Cramer,  A. E. DePrince, III,  R. A. DiStasio Jr.,  A. Dreuw,  
 B. D. Dunietz,  T. R. Furlani,  W. A. Goddard III,  S. Grimme,  
 S. Hammes-Schiffer,  T. Head-Gordon,  W. J. Hehre,  Chao-Ping Hsu,  
 T.-C. Jagau,  Yousung Jung,  A. Klamt,  Jing Kong,  D. S. Lambrecht,  
 WanZhen Liang,  N. J. Mayhall,  C. W. McCurdy,  J. B. Neaton,  
 C. Ochsenfeld,  J. A. Parkhill,  R. Peverati,  V. A. Rassolov,  Yihan Shao,  
 L. V. Slipchenko,  T. Stauch,  R. P. Steele,  J. E. Subotnik,  
 A. J. W. Thom,  A. Tkatchenko,  D. G. Truhlar,  T. Van Voorhis,  
 T. A. Wesolowski,  K. B. Whaley,  H. L. Woodcock III,  P. M. Zimmerman,  
 S. Faraji,  P. M. W. Gill,  M. Head-Gordon,  J. M. Herbert,  A. I. Krylov

 Additional authors for Version 5.4.1: 
 S. Kotaru,  Shaozhi Li,  Xiangyuan Li,  F. Matz,  A. Molle,  Haisheng Ren,  
 Yingli Su,  Hung-Yi Tsai,  C. Utku,  Fang Wang

 Contributors to earlier versions of Q-Chem not listed above: 
 R. D. Adamson,  B. Austin,  R. Baer,  J. Baker,  G. J. O. Beran,  
 K. Brandhorst,  S. T. Brown,  E. F. C. Byrd,  A. K. Chakraborty,  
 G. K. L. Chan,  Chun-Min Chang,  Yunqing Chen,  C.-L. Cheng,  
 Siu Hung Chien,  D. M. Chipman,  D. L. Crittenden,  H. Dachsel,  
 R. J. Doerksen,  A. D. Dutoi,  R. G. Edgar,  J. Fosso-Tande,  
 L. Fusti-Molnar,  D. Ghosh,  A. Ghysels,  A. Golubeva-Zadorozhnaya,  
 J. Gonthier,  M. S. Gordon,  S. R. Gwaltney,  G. Hawkins,  J. E. Herr,  
 A. Heyden,  S. Hirata,  E. G. Hohenstein,  G. Kedziora,  F. J. Keil,  
 C. Kelley,  Jihan Kim,  R. A. King,  R. Z. Khaliullin,  P. P. Korambath,  
 W. Kurlancheek,  A. Laurent,  A. M. Lee,  M. S. Lee,  S. V. Levchenko,  
 Ching Yeh Lin,  D. Liotard,  E. Livshits,  R. C. Lochan,  I. Lotan,  
 L. A. Martinez-Martinez,  P. E. Maslen,  N. Nair,  D. P. O'Neill,  
 D. Neuhauser,  E. Neuscamman,  C. M. Oana,  R. Olivares-Amaya,  R. Olson,  
 T. M. Perrine,  B. Peters,  P. A. Pieniazek,  A. Prociuk,  Y. M. Rhee,  
 J. Ritchie,  M. A. Rohrdanz,  E. Rosta,  N. J. Russ,  H. F. Schaefer III,  
 M. W. Schmidt,  N. E. Schultz,  S. Sharma,  N. Shenvi,  C. D. Sherrill,  
 A. C. Simmonett,  A. Sodt,  T. Stein,  D. Stuck,  K. S. Thanthiriwatte,  
 V. Vanovschi,  L. Vogt,  Tao Wang,  A. Warshel,  M. A. Watson,  
 C. F. Williams,  Q. Wu,  X. Xu,  Jun Yang,  W. Zhang,  Yan Zhao

 Please cite Q-Chem as follows:
 Y. Shao et al., Mol. Phys. 113, 184-215 (2015)
 DOI: 10.1080/00268976.2014.952696

 Q-Chem 5.4.1 for Intel X86 EM64T Linux

 Parts of Q-Chem use Armadillo 9.900.5 (Nocturnal Misbehaviour).
 http://arma.sourceforge.net/

 Q-Chem begins on Wed Jun  1 23:30:23 2022  

 Host: p09r14n13.grace.hpc.yale.internal
0

     Scratch files written to /home/tl686/scratch60/qchem_dev/scratch/qchem244581//
 Processing $rem in /home/tl686/qchem_dev/qchem/config/preferences:
 Processing $rem in /home/tl686/.qchemrc:
Applying user defined connections for MM calculations

 Checking the input file for inconsistencies... 	...done.

--------------------------------------------------------------
User input:
--------------------------------------------------------------
$molecule
0   1
 Fe 1475.93565545 68.10164964 59.52402686    -1  0   0   0   0
C 1476.97031696 67.12465982 56.43527846    -2  0   0   0   0 
C 1474.76900173 69.37316399 62.43437065    -2  0   0   0   0
C 1473.11740436 69.17125822 58.08423454    -2  0   0   0   0
C 1476.90585792 65.13238545 61.11444119    -2  0   0   0   0
C 1478.37563633 70.61199907 59.33379429    -2  0   0   0   0
O 1477.59233361 66.66028921 54.42599251    -3  0   0   0   0
O 1474.09602758 70.18820538 64.33200881    -3  0   0   0   0 
O 1471.52899343 70.38067211 57.18969611    -3  0   0   0   0
O 1477.72261633 63.29522426 61.91126736    -3  0   0   0   0 
O 1479.87388200 72.15681165 59.44013343    -3  0   0   0   0
H 1457.84024844 53.29567609 51.00910223      6     13    0    0    0 
C 1457.70309072 53.48891798 48.96093111     1     12    14    15    16
H 1455.62691811 53.53397020 48.59390545     6     13    0    0    0
H 1458.68027960 55.28031458 48.27550227     6     13    0    0    0
C 1459.40153881 51.38003933 47.72817487     2     13    17    18    19
H 1458.37755504 49.53745952 48.10635714     6     16    0    0    0
H 1459.06357457 51.56140974 45.69306298     6     16    0    0    0
C 1462.18130045 51.63138315 48.52174669     2     16    20   21   22
H 1462.86890112 53.49430669 47.89458187     6     19    0    0    0
H 1462.13841884 51.56547110 50.58713322     6     19    0    0    0
C 1463.81328808 49.66298074 47.16845620     2     19   23   24   25
H 1463.30202710 47.74614328 47.98650998     6    22    0    0    0
H 1463.46602477 49.46741631 45.15908371     6    22    0    0    0
C 1466.70440628 50.05724583 48.01296875     2    22   26   27   28
H 1467.43012609 51.84139316 47.37608945     6    25    0    0    0
H 1466.68883755 50.24013729 50.07305703     6    25    0    0    0
C 1468.58198188 47.96900060 47.14769211     2    25   29   30   31
H 1467.74127593 46.15813550 47.49310776     6    28    0    0    0
H 1469.03329888 48.36580669 45.13936926     6    28    0    0    0
C 1470.93073449 47.92104155 48.80473283     2    28   32   33   34
H 1471.82596295 49.67179331 48.80335653     6    31    0    0    0
H 1470.25493863 47.81511579 50.77311629     6    31    0    0    0
C 1472.81583222 45.74307328 48.36003131     2    31   35   36   37
H 1471.95686916 43.83729303 48.52250435     6    34    0    0    0
H 1473.40072064 45.88369594 46.25162970     6    34    0    0    0
C 1475.26101127 45.82919203 50.04341000     2    34   38   39   40
H 1475.97875894 47.72129781 49.98133422     6    37    0    0    0
H 1474.64688728 45.60473729 52.11772287     6    37    0    0    0
C 1477.38732107 43.79152781 49.55782658     2    37   41   42   43
H 1476.46835867 42.05183740 49.93008334     6    40    0    0    0
H 1477.85263666 44.16874250 47.61721847     6    40    0    0    0
C 1479.76037445 44.08341078 51.33045981     2    40   44   45   46
H 1480.27327043 45.99843583 51.43212296     6    43    0    0    0
H 1479.22498511 43.31768080 53.15824657     6    43    0    0    0
C 1482.06418681 42.87057669 49.98898132     1    43   47   48   49
H 1481.46125263 41.23628717 49.04087205     6    46    0    0    0
H 1483.31040710 42.41488514 51.46342228     6    46    0    0    0
H 1482.67116799 44.00630308 48.43418112     6    46    0    0    0
H 1480.81700983 59.69874020 54.96575191     6     51    0    0    0 
C 1479.21749838 60.37391686 55.96134601     1     50    52    53    54
H 1479.98618281 61.57440460 57.58940219     6     51    0    0    0
H 1478.17577268 61.61626304 54.69512735     6     51    0    0    0
C 1477.23956896 58.44495575 56.87708169     2     51    55    56    57
H 1475.79744726 59.42694349 57.94531488     6     54    0    0    0
H 1476.24398108 57.48557287 55.24571359     6     54    0    0    0
C 1478.31294042 56.16132163 58.36093315     2     54    58   59   60
H 1479.20992518 56.84448593 60.10387003     6     57    0    0    0
H 1476.80481897 54.96478820 58.94226766     6     57    0    0    0
C 1479.98670735 54.35731484 56.82678215     2     57   61   62   63
H 1479.20396212 54.24521890 54.92486090     6    60    0    0    0
H 1481.81872511 55.33132748 56.71097319     6    60    0    0    0
C 1480.30432619 51.70364335 57.87996324     2    60   64   65   66
H 1481.26476406 51.57966832 59.71022241     6    63    0    0    0
H 1478.46916910 50.77383000 58.25611953     6    63    0    0    0
C 1481.39950166 49.92245417 55.97301170     2    63   67   68   69
H 1481.33929514 48.09632663 56.86937903     6    66    0    0    0
H 1480.07887809 49.57058211 54.30792714     6    66    0    0    0
C 1484.10241570 50.41310126 55.14159711     2    66   70   71   72
H 1484.33168856 52.26085486 54.33442593     6    69    0    0    0
H 1485.42710787 50.32511368 56.82438680     6    69    0    0    0
C 1485.11280601 48.49311173 53.08833651     2    69   73   74   75
H 1484.96790016 46.48348981 53.85272267     6    72    0    0    0
H 1484.14300151 48.52826010 51.20710902     6    72    0    0    0
C 1487.76320023 49.15417108 52.46390136     2    72   76   77   78
H 1487.74811136 51.18516185 51.76629553     6    75    0    0    0
H 1488.97426469 49.04472034 54.19332840     6    75    0    0    0
C 1489.23668174 47.49756944 50.50292797     2    75   79   80   81
H 1489.05706133 45.53444375 51.32790696     6    78    0    0    0
H 1488.22295862 47.69149776 48.71084626     6    78    0    0    0
C 1491.89204013 48.34059062 50.09657052     2    78   82   83   84
H 1491.94959039 50.32265712 49.70128679     6    81    0    0    0
H 1493.10778732 48.16001011 51.80826064     6    81    0    0    0
C 1493.20689405 47.09608236 47.79761494     1    81   85   86   87
H 1495.20481883 47.64762386 47.47304060     6    84    0    0    0
H 1492.20406915 47.47641462 46.10667892     6    84    0    0    0
H 1493.19278450 45.01978143 48.04592453     6    84    0    0    0
H 1460.33659048 48.00438715 66.64797798     6     89    0    0    0 
C 1460.97020919 45.99005960 66.85811765     1     88    90    91    92
H 1462.48373446 45.94368671 68.33274941     6     89    0    0    0
H 1459.30102757 44.97173005 67.67098531     6     89    0    0    0
C 1461.83198518 44.67921016 64.37372401     2     89    93    94    95
H 1460.41644324 44.89762964 62.92029788     6     92    0    0    0
H 1463.46426300 45.63203896 63.68879046     6     92    0    0    0
C 1462.49263673 41.92033427 64.82657655     2     92    96   97   98
H 1463.98368182 41.63433310 66.34218549     6     95    0    0    0
H 1460.68626748 41.13819377 65.36854058     6     95    0    0    0
C 1463.39369056 40.67318298 62.48703946     2     95   99   100   101
H 1461.90685465 40.59671865 61.21836305     6    98    0    0    0
H 1464.98050332 41.72199129 61.73057085     6    98    0    0    0
C 1464.22883863 38.06271181 63.18709582     2    98   102   103   104
H 1466.08677821 38.29374673 63.97022914     6    101    0    0    0
H 1462.99515028 37.03754649 64.49123619     6    101    0    0    0
C 1464.65604758 36.44892492 60.78276138     2    101   105   106   107
H 1462.83562898 35.96818101 59.99779845     6    104    0    0    0
H 1465.23355485 37.67603441 59.32447755     6    104    0    0    0
C 1466.29567801 34.19651242 61.09474113     2    104   108   109   110
H 1468.26761041 34.62821155 61.74119734     6    107    0    0    0
H 1465.40598045 33.11558559 62.58661829     6    107    0    0    0
C 1466.07158304 32.57652224 58.73789997     2    107   111   112   113
H 1464.67872863 31.03988737 59.24405068     6    110    0    0    0
H 1465.38037039 33.52149686 57.01657842     6    110    0    0    0
C 1468.50943256 31.22064264 58.25148226     2    110   114   115   116
H 1469.95676813 32.82787936 58.24857388     6    113    0    0    0
H 1469.15884116 29.94631957 59.65855748     6    113    0    0    0
C 1468.40752397 29.60336223 55.77192798     2    113   117   118   119
H 1467.08968386 28.08234126 56.01646986     6    116    0    0    0
H 1467.45518289 30.64141897 54.23180209     6    116    0    0    0
C 1470.85802667 28.80524488 54.66466969     2    116   120   121   122
H 1470.54638655 27.90992520 52.82705169     6    119    0    0    0
H 1471.86256666 30.55658059 54.25667320     6    119    0    0    0
C 1472.69366460 27.49625225 56.40084253     1    119   123   124   125
H 1474.47669281 28.47512002 56.52161653     6    122    0    0    0
H 1472.74856274 25.57975278 55.58433843     6    122    0    0    0
H 1471.89928891 26.93201025 58.30606144     6    122    0    0    0
H 1448.51833368 47.09660767 69.52279563     6     127    0    0    0 
C 1450.41046574 46.68538182 70.32174184     1     126    128    129    130
H 1450.76290313 44.60466555 70.19355253     6     127    0    0    0
H 1451.58431479 47.66280834 68.95982171     6     127    0    0    0
C 1451.01652434 47.92396075 72.91406531     2     127    131    132    133
H 1450.06499406 49.82198487 72.71130978     6     130    0    0    0
H 1449.85367431 46.84065090 74.24532540     6     130    0    0    0
C 1453.86267473 47.84949533 73.65134887     2     130    134   135   136
H 1454.25714089 46.02566870 74.64135200     6     133    0    0    0
H 1454.88499506 47.93813425 71.81816499     6     133    0    0    0
C 1454.45067900 50.18929055 75.20369516     2     133   137   138   139
H 1452.68177700 50.66314202 76.06902557     6    136    0    0    0
H 1455.88535399 49.73591476 76.49165801     6    136    0    0    0
C 1455.09862542 52.64399523 73.57976993     2    136   140   141   142
H 1456.98575285 52.42121430 72.99782458     6    139    0    0    0
H 1454.00164238 52.70696181 71.82698624     6    139    0    0    0
C 1454.84240999 55.20280141 74.85133345     2    139   143   144   145
H 1452.78220281 55.96846027 74.75396640     6    142    0    0    0
H 1455.37368252 55.01438403 76.92528001     6    142    0    0    0
C 1456.47506736 57.20584529 73.58549980     2    142   146   147   148
H 1458.50091783 56.96494652 74.00737706     6    145    0    0    0
H 1456.29974458 57.05767678 71.55254543     6    145    0    0    0
C 1455.76130096 59.97116668 74.21749916     2    145   149   150   151
H 1453.98701815 60.39413123 73.29749576     6    148    0    0    0
H 1455.36855871 60.11380322 76.24532847     6    148    0    0    0
C 1457.60712676 61.94427176 73.55346753     2    148   152   153   154
H 1459.38133262 61.63067423 74.64381971     6    151    0    0    0
H 1458.11419340 61.68603886 71.53947192     6    151    0    0    0
C 1456.78767045 64.61923062 73.90323825     2    151   155   156   157
H 1457.90005106 65.63108895 72.60030027     6    154    0    0    0
H 1454.83264038 64.90521796 73.26074968     6    154    0    0    0
C 1457.05068400 65.80574566 76.56148075     2    154   158   159   160
H 1458.75810424 65.20815659 77.65122362     6    157    0    0    0
H 1457.30243884 67.69695327 75.90730921     6    157    0    0    0
C 1454.73170670 65.50442163 78.14145306     1    157   161   162   163
H 1454.79707343 66.84798958 79.76021757     6    160    0    0    0
H 1454.34876175 63.53468544 78.67904317     6    160    0    0    0
H 1452.99540481 66.14545442 77.13223728     6    160    0    0    0
H 1463.38845717 40.03589719 70.77796664     6     165    0    0    0 
C 1463.39539411 39.16202490 72.57563138     1     164    166    167    168
H 1462.46494225 37.37924089 72.51397608     6     165    0    0    0
H 1465.41605721 38.75555431 73.14737510     6     165    0    0    0
C 1462.27235442 40.87289758 74.56403683     2     165    169    170    171
H 1463.04921851 42.70805246 74.29858224     6     168    0    0    0
H 1460.25094782 40.80737359 74.10782902     6     168    0    0    0
C 1462.93672530 40.08294549 77.20703185     2     168    172   173   174
H 1462.93925840 37.96439562 77.32693937     6     171    0    0    0
H 1464.89697887 40.52372682 77.54402480     6     171    0    0    0
C 1461.29940414 41.24558664 79.24773930     2     171   175   176   177
H 1460.83353612 43.17259448 78.66756830     6    174    0    0    0
H 1459.63724577 40.27884129 79.09921322     6    174    0    0    0
C 1462.33599797 40.99725577 81.95652182     2    174   178   179   180
H 1461.09280166 39.77078820 83.15199561     6    177    0    0    0
H 1464.15489756 40.22120738 82.04289432     6    177    0    0    0
C 1462.62096753 43.57782850 83.19865877     2    177   181   182   183
H 1463.96399203 44.62827505 81.92067244     6    180    0    0    0
H 1460.75935968 44.52937004 83.30652179     6    180    0    0    0
C 1463.64879662 43.37174885 85.97178899     2    180   184   185   186
H 1462.47367064 42.07244512 87.13753052     6    183    0    0    0
H 1465.39126628 42.35691798 86.16786315     6    183    0    0    0
C 1464.02327683 46.08022752 87.17692846     2    183   187   188   189
H 1465.68680202 47.07458487 86.56199888     6    186    0    0    0
H 1462.53668662 47.36107244 86.58580467     6    186    0    0    0
C 1464.44936247 46.03890414 90.01142915     2    186   190   191   192
H 1462.83952954 45.35668394 90.99539869     6    189    0    0    0
H 1465.62583265 44.50570517 90.60837461     6    189    0    0    0
C 1465.34036731 48.62865279 91.10767169     2    189   193   194   195
H 1467.09496933 49.13755958 90.02303840     6    192    0    0    0
H 1463.92936811 50.04211067 90.48203790     6    192    0    0    0
C 1465.53893248 48.78841375 93.98558883     2    192   196   197   198
H 1463.80341198 48.37470566 95.19343160     6    195    0    0    0
H 1466.74175290 47.37477090 94.89639964     6    195    0    0    0
C 1466.64994566 51.41643621 94.92466289     1    195   199   200   201
H 1466.62768768 51.21175577 96.92618454     6    198    0    0    0
H 1465.54031480 52.99556293 94.42980373     6    198    0    0    0
H 1468.67100913 51.67711332 94.35802630     6    198    0    0    0
H 1485.19710085 42.03880255 73.32271803     6     203    0    0    0 
C 1483.96979154 42.00831611 74.88733720     1     202    204    205    206
H 1483.76176925 44.02912371 75.31714557     6     203    0    0    0
H 1482.18866238 41.15324094 74.52755005     6     203    0    0    0
C 1485.19010364 40.43949915 76.97982487     2     203    207    208    209
H 1484.23777071 40.89043711 78.74145871     6     206    0    0    0
H 1485.10742687 38.37245297 76.68360676     6     206    0    0    0
C 1488.10199781 40.98758077 77.28040976     2     206    210   211   212
H 1489.30406180 39.32510029 77.38846196     6     209    0    0    0
H 1488.94347986 41.48986372 75.43609904     6     209    0    0    0
C 1488.46492764 42.85202028 79.45478548     2     209   213   214   215
H 1486.89876563 44.11587471 79.45580305     6    212    0    0    0
H 1488.41357884 41.86618324 81.20450939     6    212    0    0    0
C 1490.97694875 44.11114333 79.55334639     2    212   216   217   218
H 1492.45539073 42.58081409 79.21458293     6    215    0    0    0
H 1491.09447938 45.24587213 77.76379999     6    215    0    0    0
C 1490.97163633 45.99681178 81.80404929     2    215   219   220   221
H 1489.48435933 47.39959726 81.75138556     6    218    0    0    0
H 1490.84893665 45.09940252 83.66231337     6    218    0    0    0
C 1493.59625285 47.25235554 81.74570586     2    218   222   223   224
H 1494.83667589 45.61659054 81.48697169     6    221    0    0    0
H 1493.90797468 48.43628242 79.99146464     6    221    0    0    0
C 1494.36864987 49.01485821 84.00903937     2    221   225   226   227
H 1492.75608196 50.33769331 84.33989225     6    224    0    0    0
H 1494.48367266 47.96121384 85.85181306     6    224    0    0    0
C 1496.89445682 50.33994200 83.50004493     2    224   228   229   230
H 1498.27484366 49.17491196 82.58713738     6    227    0    0    0
H 1496.51516118 51.71611373 82.02634496     6    227    0    0    0
C 1497.93117417 51.80057783 85.84793616     2    227   231   232   233
H 1496.84029646 53.51142579 86.23165352     6    230    0    0    0
H 1497.95915185 50.46122368 87.49458170     6    230    0    0    0
C 1500.76050792 52.57947987 85.58667685     2    230   234   235   236
H 1501.95817788 50.93598388 85.93071308     6    233    0    0    0
H 1501.09952782 53.44205221 83.74696498     6    233    0    0    0
C 1501.39709669 54.55837557 87.44485602     1    233   237   238   239
H 1503.45219137 54.95896386 87.28372770     6    236    0    0    0
H 1500.88146132 54.10743150 89.37687827     6    236    0    0    0
H 1500.42329326 56.30879492 86.81935545     6    236    0    0    0
H 1493.75098786 40.07713849 45.95835371     6     241    0    0    0 
C 1493.39452386 38.92168721 47.54250492     1     240    242    243    244
H 1494.80540886 37.29364599 47.45518432     6     241    0    0    0
H 1493.68766831 39.88951663 49.31370034     6     241    0    0    0
C 1490.69856727 37.75931485 47.39158978     2     241    245    246    247
H 1490.36317132 37.18359280 45.39721545     6     244    0    0    0
H 1490.94690002 35.86697621 48.23642893     6     244    0    0    0
C 1488.50862666 39.42886467 48.42429026     2     244    248   249   250
H 1486.84830108 38.32313340 48.78782011     6     247    0    0    0
H 1489.05245350 40.29382267 50.25770641     6     247    0    0    0
C 1487.96657319 41.66286585 46.63365845     2     247   251   252   253
H 1487.01754312 43.03957190 47.91450808     6    250    0    0    0
H 1489.85036551 42.43662235 46.15952535     6    250    0    0    0
C 1486.24781005 41.01447650 44.18735964     2    250   254   255   256
H 1486.53696099 39.30420360 43.19053847     6    253    0    0    0
H 1484.49241453 40.50208448 45.06614811     6    253    0    0    0
C 1485.74908987 43.33299737 42.49363934     2    253   257   258   259
H 1484.04073175 42.87958159 41.53696739     6    256    0    0    0
H 1485.20730414 44.99511091 43.47430618     6    256    0    0    0
C 1487.74252027 43.77387542 40.51648572     2    256   260   261   262
H 1489.89917296 43.70006873 40.99786326     6    259    0    0    0
H 1487.58508695 42.33442311 39.13141631     6    259    0    0    0
C 1487.71586460 46.31365193 39.09248236     2    259   263   264   265
H 1486.02515184 46.51212184 38.00796819     6    262    0    0    0
H 1487.26387792 47.79194372 40.39782861     6    262    0    0    0
C 1489.96156272 47.09741038 37.49579728     2    262   266   267   268
H 1489.96315330 49.09787753 37.41044473     6    265    0    0    0
H 1491.74372044 46.62021511 38.45438880     6    265    0    0    0
C 1489.92166427 45.78107550 34.80524706     2    265   269   270   271
H 1489.78486411 43.73147709 35.17952410     6    268    0    0    0
H 1488.26694501 46.34570142 33.82656527     6    268    0    0    0
C 1492.27532347 46.54979689 33.25717520     2    268   272   273   274
H 1492.22129231 48.54261142 33.35562335     6    271    0    0    0
H 1494.04548657 46.34811361 34.22764513     6    271    0    0    0
C 1492.34402036 45.90360531 30.49446861     1    271   275   276   277
H 1492.96771995 43.81778100 30.36012102     6    274    0    0    0
H 1493.71892983 47.16941146 29.68729460     6    274    0    0    0
H 1490.81458899 46.36581598 29.35648368     6    274    0    0    0
H 1480.30862749 35.59733193 67.32115009     6     279    0    0    0 
C 1480.16496634 37.35815206 66.32433382     1     278    280    281    282
H 1480.38054780 37.09749507 64.37153333     6     279    0    0    0
H 1478.16958084 37.89863929 66.49550688     6     279    0    0    0
C 1482.33245626 39.14874154 67.41233113     2     279    283    284    285
H 1481.94861797 41.09503586 66.82793585     6     282    0    0    0
H 1481.99079002 39.37270434 69.45815127     6     282    0    0    0
C 1484.98094801 38.45010746 66.73643457     2     282    286   287   288
H 1485.51793290 37.06466361 68.25937000     6     285    0    0    0
H 1485.40896344 37.55398617 64.99847965     6     285    0    0    0
C 1486.86025420 40.47577162 67.02120881     2     285   289   290   291
H 1486.25623959 42.35765700 66.23293890     6    288    0    0    0
H 1486.92463519 41.01768821 69.07292789     6    288    0    0    0
C 1489.62613658 39.85538177 66.43703309     2    288   292   293   294
H 1489.83990152 38.39742254 67.84148656     6    291    0    0    0
H 1489.76266359 38.92275463 64.65835286     6    291    0    0    0
C 1491.56361669 41.86765991 66.88952503     2    291   295   296   297
H 1491.19096303 43.25695734 65.51115567     6    294    0    0    0
H 1491.40862425 42.83839313 68.62903226     6    294    0    0    0
C 1494.39234341 40.88611126 66.77053017     2    294   298   299   300
H 1494.82712916 39.68576463 68.50150495     6    297    0    0    0
H 1494.41160535 39.79680433 64.92068430     6    297    0    0    0
C 1496.35677163 42.87429634 66.77601343     2    297   301   302   303
H 1495.80216695 44.13952168 65.36480351     6    300    0    0    0
H 1496.40368163 43.93858207 68.58298507     6    300    0    0    0
C 1498.93949350 42.07046357 66.04968975     2    300   304   305   306
H 1499.06028540 39.99982699 66.36008648     6    303    0    0    0
H 1499.47097730 42.23242161 64.08264736     6    303    0    0    0
C 1500.99254541 43.34881295 67.75596620     2    303   307   308   309
H 1500.79400100 45.48039375 67.50083129     6    306    0    0    0
H 1500.85423621 42.86495851 69.69294878     6    306    0    0    0
C 1503.61658830 42.39503910 66.87458278     2    306   310   311   312
H 1503.54906968 40.42432255 67.15839989     6    309    0    0    0
H 1504.00249088 42.89615732 64.83368253     6    309    0    0    0
C 1505.84601609 43.15417467 68.54547252     1    309   313   314   315
H 1505.41048599 42.95072504 70.61710846     6    312    0    0    0
H 1506.60922211 45.13616101 67.99965212     6    312    0    0    0
H 1507.47185107 41.91391723 68.23913214     6    312    0    0    0
H 1455.21589456 51.94735088 61.76106885     6     317    0    0    0 
C 1456.32545376 50.37208898 60.93646283     1     316    318    319    320
H 1456.98818289 49.24574181 62.59856720     6     317    0    0    0
H 1454.99708378 49.44032674 59.91865623     6     317    0    0    0
C 1458.68099700 51.49087066 59.43936262     2     317    321    322    323
H 1459.95886776 50.03449028 58.70420776     6     320    0    0    0
H 1458.11077539 52.43130513 57.75339772     6     320    0    0    0
C 1460.12205539 53.26600369 61.19188216     2     320    324   325   326
H 1458.81428938 54.64415437 62.07806571     6     323    0    0    0
H 1460.92740599 51.96416058 62.72263186     6     323    0    0    0
C 1462.32012171 54.61514683 59.79359715     2     323   327   328   329
H 1463.15743246 53.19024820 58.62554201     6    326    0    0    0
H 1461.55607813 55.95091132 58.54710459     6    326    0    0    0
C 1464.23477200 55.74298608 61.65887449     2    326   330   331   332
H 1464.77866761 54.41194189 63.17091324     6    329    0    0    0
H 1465.93494882 56.57592571 60.66374532     6    329    0    0    0
C 1463.14633865 58.20639958 62.89962137     2    329   333   334   335
H 1461.42912047 57.58761182 63.90812466     6    332    0    0    0
H 1464.24942885 58.89707448 64.47117911     6    332    0    0    0
C 1462.59395584 60.41032611 61.13660584     2    332   336   337   338
H 1464.48435293 61.16165577 60.36319007     6    335    0    0    0
H 1461.43339697 59.69218730 59.52899670     6    335    0    0    0
C 1461.18313968 62.62939123 62.35015100     2    335   339   340   341
H 1461.11065207 64.02367719 60.88241466     6    338    0    0    0
H 1459.16675376 62.18221735 62.60255935     6    338    0    0    0
C 1462.36015506 63.78670855 64.74667829     2    338   342   343   344
H 1462.30760970 62.32501379 66.27175672     6    341    0    0    0
H 1464.41063896 64.29903826 64.47922329     6    341    0    0    0
C 1461.21477348 66.22178838 65.70779208     2    341   345   346   347
H 1462.22795381 67.02196178 67.38560442     6    344    0    0    0
H 1461.31952125 67.74544272 64.20368512     6    344    0    0    0
C 1458.43338967 66.24216969 66.47694146     2    344   348   349   350
H 1457.03960554 66.16826049 64.98800403     6    347    0    0    0
H 1458.26111728 64.37490740 67.44527035     6    347    0    0    0
C 1457.77274623 68.48268466 68.30402331     1    347   351   352   353
H 1455.82061061 68.25222421 68.86269847     6    350    0    0    0
H 1457.97059923 70.38258617 67.40063086     6    350    0    0    0
H 1458.85358232 68.61187895 70.05073683     6    350    0    0    0
H 1491.09031381 36.03294038 57.66371348     6     355    0    0    0 
C 1489.34529734 36.10297709 56.55364979     1     354    356    357    358
H 1489.72253254 36.79741985 54.73918661     6     355    0    0    0
H 1488.67944941 34.21507834 56.16899227     6     355    0    0    0
C 1487.41167654 37.98633611 57.88976472     2     355    359    360    361
H 1487.34864060 37.53133316 59.95853887     6     358    0    0    0
H 1488.35269417 39.83565301 57.60342679     6     358    0    0    0
C 1484.74433188 38.15408483 56.88559301     2     358    362   363   364
H 1484.72268843 38.44946650 54.84850930     6     361    0    0    0
H 1483.94607256 36.34235877 57.25386575     6     361    0    0    0
C 1483.07142612 40.04113285 58.18006892     2     361   365   366   367
H 1483.36573785 40.32539033 60.24540583     6    364    0    0    0
H 1483.71137396 41.69416985 57.24550797     6    364    0    0    0
C 1480.19583991 39.51086796 58.05660563     2    364   368   369   370
H 1479.49503246 38.84888253 56.12302264     6    367    0    0    0
H 1479.62474859 37.77675384 59.12508441     6    367    0    0    0
C 1478.75601312 41.99722776 58.79807878     2    367   371   372   373
H 1479.43466141 43.21159629 60.24482012     6    370    0    0    0
H 1478.63677713 43.08154065 57.07528356     6    370    0    0    0
C 1476.02662303 41.36999739 59.62107473     2    370   374   375   376
H 1474.88943973 40.64315191 57.94080943     6    373    0    0    0
H 1476.06358743 39.67621675 60.79542198     6    373    0    0    0
C 1474.78149249 43.72632934 60.68594521     2    373   377   378   379
H 1476.18451576 44.79295423 61.75182307     6    376    0    0    0
H 1474.18256272 45.02454232 59.17353060     6    376    0    0    0
C 1472.48067213 43.23456741 62.25605757     2    376   380   381   382
H 1471.02212522 42.90966276 60.85005022     6    379    0    0    0
H 1472.79194713 41.48113111 63.29800244     6    379    0    0    0
C 1471.96601831 45.35813689 64.11861804     2    379   383   384   385
H 1473.37826511 44.99862272 65.56630041     6    382    0    0    0
H 1472.31521302 47.29600308 63.46650488     6    382    0    0    0
C 1469.46109659 45.29541317 65.55079083     2    382   386   387   388
H 1469.18719291 46.95907831 66.69977453     6    385    0    0    0
H 1467.80411779 45.71075080 64.36427824     6    385    0    0    0
C 1469.53554644 43.06076331 67.40126538     1    385   389   390   391
H 1470.53254032 43.52122079 69.15340532     6    388    0    0    0
H 1469.95208560 41.19775533 66.57974643     6    388    0    0    0
H 1467.62461180 42.91736291 68.13184003     6    388    0    0    0
H 1471.61178835 86.79919196 51.95749614     6     393    0    0    0 
C 1473.10138855 85.34165820 51.73518214     1     392    394    395    396
H 1474.82388686 85.96378705 52.50602146     6     393    0    0    0
H 1472.29903951 83.81781612 52.92459973     6     393    0    0    0
C 1473.51600835 84.47327998 49.05199887     2     393    397    398    399
H 1471.68719784 83.81517550 48.45778241     6     396    0    0    0
H 1473.81497354 85.99108970 47.54708929     6     396    0    0    0
C 1475.24886257 82.07837395 48.88488011     2     396    400   401   402
H 1476.80293719 82.51754140 49.85562903     6     399    0    0    0
H 1474.33744621 80.36296302 49.47609787     6     399    0    0    0
C 1475.97562601 81.55187526 46.14146739     2     399   403   404   405
H 1474.34211438 81.56718775 44.99630485     6    402    0    0    0
H 1477.04989674 83.17699116 45.48053519     6    402    0    0    0
C 1477.40500017 78.97928290 46.18715032     2    402   406   407   408
H 1478.56102483 79.28717961 47.76329824     6    405    0    0    0
H 1475.96774389 77.49922337 46.59022437     6    405    0    0    0
C 1478.93292215 78.37243685 43.79935772     2    405   409   410   411
H 1477.71339439 78.40266716 42.07128021     6    408    0    0    0
H 1480.17965046 79.89500044 43.17534346     6    408    0    0    0
C 1480.17811756 75.78201292 43.96197856     2    408   412   413   414
H 1481.21058754 75.58940151 45.64992910     6    411    0    0    0
H 1478.67580182 74.40980908 44.30704534     6    411    0    0    0
C 1481.98846213 75.26914282 41.75120929     2    411   415   416   417
H 1480.86904262 75.57577974 40.01535412     6    414    0    0    0
H 1483.38412918 76.93261548 41.53663058     6    414    0    0    0
C 1483.25535547 72.52975099 41.86983889     2    414   418   419   420
H 1484.65399202 72.54809982 43.30198300     6    417    0    0    0
H 1481.88239000 71.07210268 42.02513337     6    417    0    0    0
C 1484.71621207 72.15272519 39.37951881     2    417   421   422   423
H 1483.36491199 71.74520615 37.87741309     6    420    0    0    0
H 1485.74322056 73.83189540 38.80903260     6    420    0    0    0
C 1486.80874170 70.31110648 39.26195276     2    420   424   425   426
H 1487.66524364 70.07960988 37.34389377     6    423    0    0    0
H 1488.27169730 71.00021897 40.56292289     6    423    0    0    0
C 1486.09806459 67.65722300 40.00300783     1    423   427   428   429
H 1487.77504800 66.70528171 40.43921367     6    426    0    0    0
H 1484.69183788 66.81607296 38.64578440     6    426    0    0    0
H 1485.11000186 67.79955625 41.91966513     6    426    0    0    0
H 1475.92201915 58.61514105 40.23167097     6     431    0    0    0 
C 1474.00396980 58.76874821 41.21029073     1     430    432    433    434
H 1472.77608439 57.60528942 40.06796974     6     431    0    0    0
H 1474.41082445 57.91691726 43.05622456     6     431    0    0    0
C 1473.11558089 61.46405931 41.28960882     2     431    435    436    437
H 1474.42644734 62.63472689 42.45406769     6     434    0    0    0
H 1473.21302318 62.32436985 39.43142107     6     434    0    0    0
C 1470.38165600 61.73556134 42.45832941     2     434    438   439   440
H 1469.15464061 60.50218870 41.19781661     6     437    0    0    0
H 1470.21450356 60.69419221 44.21949965     6     437    0    0    0
C 1469.60904789 64.47460966 42.84452694     2     437   441   442   443
H 1467.93698857 64.64212049 43.84817438     6    440    0    0    0
H 1471.27316497 65.13501826 43.88391160     6    440    0    0    0
C 1469.78341428 66.24902587 40.55049260     2    440   444   445   446
H 1471.75405668 66.65001374 40.05638354     6    443    0    0    0
H 1468.91340073 65.32053791 38.79909651     6    443    0    0    0
C 1468.30819687 68.71536578 40.90907141     2    443   447   448   449
H 1466.36758234 68.56104399 40.61302339     6    446    0    0    0
H 1468.23665561 69.31711554 42.82736499     6    446    0    0    0
C 1469.61601336 70.78094565 39.28411003     2    446   450   451   452
H 1471.61671218 70.77317130 39.70958384     6    449    0    0    0
H 1469.55879067 70.14491604 37.35411721     6    449    0    0    0
C 1468.60253191 73.47464168 39.65983119     2    449   453   454   455
H 1466.79093306 73.48270232 38.75806089     6    452    0    0    0
H 1468.34665901 74.04524112 41.58181926     6    452    0    0    0
C 1470.48519350 75.51976946 38.62400195     2    452   456   457   458
H 1472.05186750 75.59655616 40.01790351     6    455    0    0    0
H 1471.05313270 74.85781575 36.70854818     6    455    0    0    0
C 1469.51576306 78.18284945 38.58813537     2    455   459   460   461
H 1471.13373234 79.36610515 37.79689062     6    458    0    0    0
H 1467.88754320 78.32240274 37.33593544     6    458    0    0    0
C 1468.95323088 79.05806280 41.23093081     2    458   462   463   464
H 1467.41605222 77.97600848 42.09766715     6    461    0    0    0
H 1470.63904605 78.62314859 42.45657837     6    461    0    0    0
C 1468.41695237 81.86620349 41.61800919     1    461   465   466   467
H 1466.58332758 82.16156224 40.61814054     6    464    0    0    0
H 1469.82886528 83.23505350 40.84060757     6    464    0    0    0
H 1468.30794915 82.41329266 43.50725979     6    464    0    0    0
H 1474.56505006 36.40107364 70.12920395     6     469    0    0    0 
C 1473.26273469 35.05600641 69.28131184     1     468    470    471    472
H 1473.82835804 33.19678171 69.92693203     6     469    0    0    0
H 1471.47845405 35.16859676 70.21911961     6     469    0    0    0
C 1472.77048469 35.32098286 66.48870425     2     469    473    474    475
H 1470.76470645 34.83228890 66.26323732     6     472    0    0    0
H 1472.95822480 37.42003501 66.17724028     6     472    0    0    0
C 1474.65588600 33.67447178 65.06329839     2     472    476   477   478
H 1476.53512810 34.12342500 65.53899874     6     475    0    0    0
H 1474.51864805 31.69480464 65.51371808     6     475    0    0    0
C 1474.44501854 33.93437902 62.24337205     2     475   479   480   481
H 1472.75403798 32.86970231 61.63698675     6    478    0    0    0
H 1473.88530231 35.85733859 61.75063416     6    478    0    0    0
C 1476.77410431 32.96963256 60.83960088     2    478   482   483   484
H 1478.49120540 33.34435449 61.77711485     6    481    0    0    0
H 1476.65186648 30.99871902 61.02297155     6    481    0    0    0
C 1476.90576530 33.40742798 57.97094461     2    481   485   486   487
H 1475.32358837 32.20141708 57.08787359     6    484    0    0    0
H 1476.16997835 35.40834519 57.65193678     6    484    0    0    0
C 1479.62146893 32.80907970 57.16287134     2    484   488   489   490
H 1480.94989574 33.80848842 58.58487040     6    487    0    0    0
H 1479.89834651 30.81011878 57.54274165     6    487    0    0    0
C 1480.15943127 33.50491859 54.35234581     2    487   491   492   493
H 1478.91973062 32.14905889 53.22408025     6    490    0    0    0
H 1479.61941537 35.53934165 54.01142423     6    490    0    0    0
C 1482.78733228 33.03202867 53.24683865     2    490   494   495   496
H 1484.10148249 34.41835078 53.89388517     6    493    0    0    0
H 1483.64747562 31.19698023 53.78114994     6    493    0    0    0
C 1483.09825571 32.98232160 50.40968644     2    493   497   498   499
H 1481.70727059 31.81155226 49.51629563     6    496    0    0    0
H 1482.49065125 34.75929437 49.58916943     6    496    0    0    0
C 1485.56849499 32.12506025 49.42678871     2    496   500   501   502
H 1487.25150319 32.77116831 50.37314924     6    499    0    0    0
H 1485.67927609 30.06672130 49.81559792     6    499    0    0    0
C 1485.87716063 32.46393168 46.55614912     1    499   503   504   505
H 1487.84722991 31.79482177 45.98785584     6    502    0    0    0
H 1485.87253699 34.37751855 45.87383395     6    502    0    0    0
H 1484.20499130 31.72185581 45.49893171     6    502    0    0    0
H 1502.74626657 49.34456764 39.58637007     6     507    0    0    0 
C 1502.01585291 48.34863722 41.24328966     1     506    508    509    510
H 1501.03371121 46.72816792 40.54431204     6     507    0    0    0
H 1503.32750949 47.74448320 42.74696228     6     507    0    0    0
C 1499.93235336 50.14087054 42.30876635     2     507    511    512    513
H 1499.28282985 49.55916198 44.21067336     6     510    0    0    0
H 1500.80279406 52.04182099 42.39864216     6     510    0    0    0
C 1497.62579903 50.37947167 40.61659958     2     510    514   515   516
H 1498.04004256 50.64089667 38.53552883     6     513    0    0    0
H 1496.79109899 48.69396608 40.93677152     6     513    0    0    0
C 1495.97260573 52.53298731 41.65924918     2     513   517   518   519
H 1495.47046628 52.01626024 43.62464009     6    516    0    0    0
H 1496.75851068 54.42996139 41.67097909     6    516    0    0    0
C 1493.51071590 52.89649828 40.19332523     2    516   520   521   522
H 1494.19898929 53.03320981 38.24719509     6    519    0    0    0
H 1492.30642951 51.37868788 40.56436436     6    519    0    0    0
C 1492.05059498 55.37187758 40.75295707     2    519   523   524   525
H 1491.58148385 55.20329911 42.67193526     6    522    0    0    0
H 1493.17128819 57.18012242 40.68236455     6    522    0    0    0
C 1489.65006571 55.53769115 39.02155018     2    522   526   527   528
H 1489.96886613 56.04213369 37.11636362     6    525    0    0    0
H 1488.58895852 53.61325835 38.91740613     6    525    0    0    0
C 1487.51222048 57.39736362 39.86802063     2    525   529   530   531
H 1486.99098217 56.89929112 41.90114981     6    528    0    0    0
H 1488.56934184 59.20562146 39.85969217     6    528    0    0    0
C 1485.20593312 57.88601293 38.03159937     2    528   532   533   534
H 1485.84817077 58.77603466 36.34002835     6    531    0    0    0
H 1484.18152377 56.20752377 37.47114158     6    531    0    0    0
C 1483.30165192 59.56552257 39.48560757     2    531   535   536   537
H 1482.52921068 58.39646676 41.07747193     6    534    0    0    0
H 1484.18353142 60.99912824 40.59983742     6    534    0    0    0
C 1481.34068518 60.91884474 37.81716342     2    534   538   539   540
H 1482.31989974 62.02597747 36.28754304     6    537    0    0    0
H 1480.41539059 59.38407718 36.77015195     6    537    0    0    0
C 1479.66235423 62.81751778 39.35617787     1    537   541   542   543
H 1478.28742888 63.75132750 38.24722330     6    540    0    0    0
H 1480.68639575 64.54435725 40.01532854     6    540    0    0    0
H 1478.78275268 62.15833107 41.06239876     6    540    0    0    0
H 1472.50707590 78.55746928 55.93813703     6     545    0    0    0 
C 1472.85279980 77.58222937 57.68413210     1     544    546    547    548
H 1474.29014220 76.15155116 57.15376694     6     545    0    0    0
H 1473.54485079 79.14946719 58.95788368     6     545    0    0    0
C 1470.64525314 76.23876059 58.86956360     2     545    549    550    551
H 1469.02408475 77.53456069 58.64426941     6     548    0    0    0
H 1470.14034860 74.53309169 57.78788521     6     548    0    0    0
C 1470.93962693 75.45183765 61.62512938     2     548    552   553   554
H 1472.63336117 74.21419780 61.87727911     6     551    0    0    0
H 1471.30351186 77.23229868 62.57447321     6     551    0    0    0
C 1468.54227730 74.28429995 62.73793127     2     551   555   556   557
H 1466.91756687 75.32898491 62.17545669     6    554    0    0    0
H 1468.30467877 72.32832989 61.91413990     6    554    0    0    0
C 1468.44671280 74.23924369 65.68438238     2    554   558   559   560
H 1470.12674512 73.41092461 66.39169254     6    557    0    0    0
H 1468.19243384 76.20247914 66.30094661     6    557    0    0    0
C 1466.44775560 72.62234516 66.73963051     2    557   561   562   563
H 1464.57654608 72.97444912 65.94082330     6    560    0    0    0
H 1466.75652299 70.54756500 66.45535405     6    560    0    0    0
C 1466.11519074 73.28555715 69.59448258     2    560   564   565   566
H 1467.98543253 72.85852178 70.46394064     6    563    0    0    0
H 1465.65242994 75.25673147 69.84372564     6    563    0    0    0
C 1464.09292840 71.83973830 71.10857798     2    563   567   568   569
H 1462.39279188 71.96556929 69.95685486     6    566    0    0    0
H 1464.32065616 69.83710527 70.87052876     6    566    0    0    0
C 1463.54975129 72.76141693 73.80012563     2    566   570   571   572
H 1465.39398291 72.34146857 74.70015809     6    569    0    0    0
H 1463.10572453 74.77653354 73.83662013     6    569    0    0    0
C 1461.33339410 71.36021469 74.97481379     2    569   573   574   575
H 1459.60335895 72.22728362 74.10143493     6    572    0    0    0
H 1461.38726811 69.34946827 74.58126830     6    572    0    0    0
C 1460.98589878 71.69737967 77.85100260     2    572   576   577   578
H 1461.24731704 73.62994992 78.44179843     6    575    0    0    0
H 1459.08453599 71.44664621 78.25118101     6    575    0    0    0
C 1462.63117793 69.97204893 79.49257208     1    575   579   580   581
H 1461.89297026 68.03939179 79.20227666     6    578    0    0    0
H 1462.41641014 70.80796589 81.33193355     6    578    0    0    0
H 1464.53573528 69.87092464 78.75492678     6    578    0    0    0
H 1468.91403964 47.80711141 72.31830561     6     583    0    0    0 
C 1468.94819657 46.91241002 74.21457519     1     582    584    585    586
H 1469.54704861 44.88794538 74.14179937     6     583    0    0    0
H 1470.24035726 47.93882405 75.29363256     6     583    0    0    0
C 1466.26929442 46.96545288 75.29829057     2     583    587    588    589
H 1465.17999766 45.84477743 73.98611882     6     586    0    0    0
H 1466.22564459 45.70475069 77.07713940     6     586    0    0    0
C 1465.33509781 49.66959852 75.77929334     2     586    590   591   592
H 1466.60077189 50.57921431 77.03078334     6     589    0    0    0
H 1465.21034033 50.67041626 73.96299170     6     589    0    0    0
C 1462.69634864 49.78547751 76.90946612     2     589   593   594   595
H 1461.19366660 50.42587370 75.58867408     6    592    0    0    0
H 1462.31218915 47.78429661 77.36970275     6    592    0    0    0
C 1462.49419798 51.45665525 79.18333685     2    592   596   597   598
H 1463.40673957 50.44848803 80.68539870     6    595    0    0    0
H 1463.52426892 53.22444871 78.92096694     6    595    0    0    0
C 1459.63265133 51.78648331 79.85361739     2    595   599   600   601
H 1458.64595059 53.13234070 78.51893044     6    598    0    0    0
H 1458.55774354 49.98281451 79.51967488     6    598    0    0    0
C 1459.32441465 52.66520790 82.58160944     2    598   602   603   604
H 1460.08242106 51.49004090 84.07284451     6    601    0    0    0
H 1460.34480324 54.62312706 82.72493075     6    601    0    0    0
C 1456.48952335 52.94880722 83.15812623     2    601   605   606   607
H 1455.58363940 54.16071734 81.71847916     6    604    0    0    0
H 1455.44625339 51.08518401 83.30634553     6    604    0    0    0
C 1456.03432144 54.33546670 85.61782534     2    604   608   609   610
H 1457.57519816 53.85053557 87.03914468     6    607    0    0    0
H 1456.32147632 56.33828923 85.38790142     6    607    0    0    0
C 1453.50518785 54.03598915 86.76736940     2    607   611   612   613
H 1452.27430522 54.58849678 85.30547306     6    610    0    0    0
H 1453.05802151 52.12081066 87.04176780     6    610    0    0    0
C 1453.02866516 55.62632688 89.19353280     2    610   614   615   616
H 1453.22237872 57.70940639 88.73384437     6    613    0    0    0
H 1451.03789645 55.38032744 89.79020690     6    613    0    0    0
C 1454.93410207 55.11502096 91.42332753     1    613   617   618   619
H 1454.48535517 56.28813437 93.08552753     6    616    0    0    0
H 1456.71195968 55.60624288 90.63605911     6    616    0    0    0
H 1454.90020408 53.11570657 92.20926313     6    616    0    0    0
H 1495.05799856 73.87328469 61.15803614     6     621    0    0    0 
C 1493.27710679 73.12013980 61.84989365     1     620    622    623    624
H 1492.54342627 74.49722988 63.14125079     6     621    0    0    0
H 1491.85007748 72.87847358 60.39816200     6     621    0    0    0
C 1493.50352084 70.76974968 63.50973175     2     621    625    626    627
H 1491.49795331 70.40309498 64.04596475     6     624    0    0    0
H 1494.22457052 69.18638971 62.43634497     6     624    0    0    0
C 1495.09998648 71.30423084 66.05266933     2     624    628   629   630
H 1496.97840592 71.74666538 65.43585137     6     627    0    0    0
H 1494.40037938 72.98875815 66.89743181     6     627    0    0    0
C 1494.95853100 69.24753846 68.07497452     2     627   631   632   633
H 1492.96352837 69.05831677 68.53486203     6    630    0    0    0
H 1495.71601952 67.39306457 67.42011744     6    630    0    0    0
C 1496.53629390 69.97004105 70.35447920     2    630   634   635   636
H 1498.55272800 70.15231358 69.80122842     6    633    0    0    0
H 1496.10622821 71.78694844 71.02209942     6    633    0    0    0
C 1496.30266049 68.04992424 72.48182924     2    633   637   638   639
H 1494.36467581 68.05337346 73.01159242     6    636    0    0    0
H 1497.08657781 66.35196950 71.86539839     6    636    0    0    0
C 1497.83862492 68.99810731 74.65493265     2    636   640   641   642
H 1499.73041749 69.35243861 74.01237701     6    639    0    0    0
H 1497.15811250 70.77002556 75.24440702     6    639    0    0    0
C 1497.90085728 67.01880989 76.69813756     2    639   643   644   645
H 1496.02814475 66.42929088 77.41199779     6    642    0    0    0
H 1498.65066622 65.40955542 75.75893716     6    642    0    0    0
C 1500.02666437 67.40375255 78.70290065     2    642   646   647   648
H 1501.55370871 67.04038975 77.40364925     6    645    0    0    0
H 1500.01041588 69.37628185 79.35679988     6    645    0    0    0
C 1499.81792833 65.33409523 80.72681583     2    645   649   650   651
H 1497.93265184 65.67810913 81.61112570     6    648    0    0    0
H 1499.66123537 63.47838766 79.93028495     6    648    0    0    0
C 1501.82918131 65.61317897 82.89880573     2    648   652   653   654
H 1503.59010455 66.05856511 81.83485588     6    651    0    0    0
H 1500.99842161 67.42436551 83.69645291     6    651    0    0    0
C 1502.03451239 63.49340408 85.02290437     1    651   655   656   657
H 1500.18946258 63.08597944 86.07569415     6    654    0    0    0
H 1503.56215780 64.07557173 86.34597217     6    654    0    0    0
H 1502.69434443 61.82113590 84.01686664     6    654    0    0    0
H 1479.16081693 52.45734677 78.23082797     6     659    0    0    0 
C 1477.15994931 53.11524975 78.02651780     1     658    660    661    662
H 1475.98200105 51.83960542 79.03054012     6     659    0    0    0
H 1476.99987242 54.99835501 78.93681912     6     659    0    0    0
C 1476.29748633 53.19293435 75.25896297     2     659    663    664    665
H 1476.95973977 55.00665877 74.43889059     6     662    0    0    0
H 1477.13292976 51.66200193 74.14134924     6     662    0    0    0
C 1473.47493790 52.87292538 75.14893613     2     662    666   667   668
H 1472.83684564 52.18570496 73.28220022     6     665    0    0    0
H 1472.86065696 51.39290311 76.47112636     6     665    0    0    0
C 1471.95720184 55.41938637 75.84695957     2     665   669   670   671
H 1472.38793323 56.03286293 77.85016655     6    668    0    0    0
H 1472.55216093 56.91364509 74.49061800     6    668    0    0    0
C 1469.19082615 55.11406711 75.82887593     2    668   672   673   674
H 1468.57464426 54.25963184 74.08411419     6    671    0    0    0
H 1468.68342035 53.75162917 77.23851737     6    671    0    0    0
C 1467.63111419 57.56436464 76.01612970     2    671   675   676   677
H 1468.00828348 58.82281760 74.36137349     6    674    0    0    0
H 1465.72504759 57.11755698 75.40140049     6    674    0    0    0
C 1467.32870560 58.94708003 78.48525031     2    674   678   679   680
H 1466.81338625 57.59668794 79.96436236     6    677    0    0    0
H 1469.16508041 59.56349863 79.27617268     6    677    0    0    0
C 1465.57089733 61.25750658 78.34506496     2    677   681   682   683
H 1466.37574550 62.63232554 76.99259794     6    680    0    0    0
H 1463.78253840 60.86839291 77.51037869     6    680    0    0    0
C 1465.18303768 62.58216543 80.97253907     2    680   684   685   686
H 1466.60137781 62.33287035 82.43067111     6    683    0    0    0
H 1465.19772610 64.58042836 80.46041623     6    683    0    0    0
C 1462.63877506 61.74492143 82.21971291     2    683   687   688   689
H 1461.24192452 61.56288565 80.78819576     6    686    0    0    0
H 1463.16743566 59.93189428 82.95850296     6    686    0    0    0
C 1461.91239360 63.23138775 84.47666329     2    686   690   691   692
H 1463.43749512 63.51938736 85.68141527     6    689    0    0    0
H 1461.36645980 65.31406364 84.17342547     6    689    0    0    0
C 1459.90845042 61.90017074 86.15625781     1    689   693   694   695
H 1459.60080299 63.32581037 87.62416420     6    692    0    0    0
H 1460.45901785 60.15367177 86.83206091     6    692    0    0    0
H 1457.96971557 61.84309430 85.27791556     6    692    0    0    0
H 1470.01698265 88.53804779 70.68471845     6     697    0    0    0 
C 1469.84250440 86.50117467 71.38967256     1     696    698    699    700
H 1471.69217995 85.97863475 71.94152522     6     697    0    0    0
H 1468.57269592 86.68663009 72.98389667     6     697    0    0    0
C 1469.24044644 84.42829264 69.42260725     2     697    701    702    703
H 1469.76889091 82.45999725 70.17613046     6     700    0    0    0
H 1467.13174003 84.27292836 69.29342526     6     700    0    0    0
C 1470.18402833 85.00906630 66.72981637     2     700    704   705   706
H 1470.27566678 87.04188088 66.38234227     6     703    0    0    0
H 1472.13521752 84.35138685 66.71392488     6     703    0    0    0
C 1468.30543856 83.82090960 64.89901078     2     703   707   708   709
H 1468.94965718 81.85683939 64.55074745     6    706    0    0    0
H 1466.32251485 84.05627095 65.56292054     6    706    0    0    0
C 1468.66246133 84.87507225 62.24912733     2    706   710   711   712
H 1467.80328114 86.74193548 61.98540897     6    709    0    0    0
H 1470.59158053 84.96585027 61.63166546     6    709    0    0    0
C 1466.91856354 83.37512931 60.42058570     2    709   713   714   715
H 1467.08225671 81.30076630 60.35068799     6    712    0    0    0
H 1464.98379009 83.74603801 61.06070884     6    712    0    0    0
C 1467.21652959 84.16155317 57.55400679     2    712   716   717   718
H 1467.33926722 86.23075576 57.65262681     6    715    0    0    0
H 1469.00767375 83.44920552 56.73012750     6    715    0    0    0
C 1464.90861283 83.78980569 55.93706873     2    715   719   720   721
H 1464.48033278 81.76614089 55.88135588     6    718    0    0    0
H 1463.43356219 84.61366795 56.99101811     6    718    0    0    0
C 1464.87035623 85.12066248 53.30086272     2    718   722   723   724
H 1465.14282216 87.31526040 53.35818226     6    721    0    0    0
H 1466.53872296 84.37889117 52.23179875     6    721    0    0    0
C 1462.14727024 84.52245004 52.15448500     2    721   725   726   727
H 1462.09400486 82.54313864 51.49777783     6    724    0    0    0
H 1460.57366886 84.45629873 53.65491308     6    724    0    0    0
C 1461.28448734 86.35372981 50.03778966     2    724   728   729   730
H 1462.54031168 86.25854526 48.63302149     6    727    0    0    0
H 1459.68929108 85.70404719 49.15770306     6    727    0    0    0
C 1460.75032188 89.15331094 50.67704370     1    727   731   732   733
H 1460.62939711 90.14590725 48.88746376     6    730    0    0    0
H 1462.14675535 90.22685773 51.78325186     6    730    0    0    0
H 1458.97340872 89.50902886 51.54294129     6    730    0    0    0
H 1464.01698206 48.84336756 53.41233882     6     735    0    0    0 
C 1463.93165810 48.12600488 55.33614356     1     734    736    737    738
H 1464.18969212 49.74484390 56.53128623     6     735    0    0    0
H 1461.91605498 47.66718155 55.23446578     6     735    0    0    0
C 1465.86734606 45.84424074 55.93008417     2     735    739    740    741
H 1467.71287420 46.69154513 56.07370728     6     738    0    0    0
H 1465.53724481 45.04520857 57.82245340     6     738    0    0    0
C 1465.81542810 43.62064734 54.08916465     2     738    742   743   744
H 1463.63112570 43.32919046 53.85863390     6     741    0    0    0
H 1466.59581340 44.01683079 52.15498526     6     741    0    0    0
C 1466.98632960 41.07501441 55.04627082     2     741   745   746   747
H 1467.04689887 41.09857064 57.09889089     6    744    0    0    0
H 1465.93502200 39.32298002 54.38796756     6    744    0    0    0
C 1469.72510802 40.69536810 54.03975452     2    744   748   749   750
H 1469.66945042 40.88590347 51.94832632     6    747    0    0    0
H 1471.13890471 42.08123873 54.65717845     6    747    0    0    0
C 1470.70079230 38.03394472 54.83794294     2    747   751   752   753
H 1470.74334265 37.84436009 56.99383556     6    750    0    0    0
H 1469.41244426 36.53822087 54.25163021     6    750    0    0    0
C 1473.18358522 37.08450115 53.53088455     2    750   754   755   756
H 1474.70550059 38.48395742 53.83053263     6    753    0    0    0
H 1473.86150269 35.45329295 54.50969362     6    753    0    0    0
C 1473.01074737 36.80155756 50.68568687     2    753   757   758   759
H 1471.66634068 35.27222134 50.47106210     6    756    0    0    0
H 1472.27820788 38.47432824 49.87853916     6    756    0    0    0
C 1475.50434252 35.92158229 49.55990636     2    756   760   761   762
H 1476.97302970 37.23207950 50.05575146     6    759    0    0    0
H 1475.90256867 34.11115287 50.41837350     6    759    0    0    0
C 1475.65964247 35.41700950 46.69333851     2    759   763   764   765
H 1474.01037469 34.21005234 46.28259727     6    762    0    0    0
H 1475.37446266 37.28457540 45.78860089     6    762    0    0    0
C 1478.19730281 34.20853511 45.85623533     2    762   766   767   768
H 1479.61998791 35.52729533 46.36160819     6    765    0    0    0
H 1478.55968268 32.49305630 46.90608663     6    765    0    0    0
C 1478.63177896 33.73043088 43.04601966     1    765   769   770   771
H 1478.08772319 31.74674393 42.58539770     6    768    0    0    0
H 1480.57229609 34.01400168 42.73080737     6    768    0    0    0
H 1477.62372845 35.08166421 41.73344066     6    768    0    0    0
H 1508.28639714 69.40266712 73.46938061     6     773    0    0    0 
C 1508.38783709 67.39747772 73.25951402     1     772    774    775    776
H 1510.27565555 67.28364509 72.43239203     6     773    0    0    0
H 1508.38581043 66.22561262 74.91509186     6     773    0    0    0
C 1506.47471033 66.49653913 71.21343085     2     773    777    778    779
H 1507.07101175 64.76913543 70.51351798     6     776    0    0    0
H 1504.61582999 66.13786814 71.99705201     6     776    0    0    0
C 1506.11744008 68.61438801 69.15329282     2     776    780   781   782
H 1505.35345356 70.61449814 69.75017698     6     779    0    0    0
H 1507.92568729 69.11850172 68.26448250     6     779    0    0    0
C 1504.17618711 67.61217194 67.24033554     2     779   783   784   785
H 1504.67571304 65.76050342 66.39357103     6    782    0    0    0
H 1502.47144888 67.27269418 68.18087017     6    782    0    0    0
C 1503.65036550 69.33213860 64.95201272     2    782   786   787   788
H 1502.97773489 71.14126099 65.63522225     6    785    0    0    0
H 1505.42125343 69.64045605 63.86499904     6    785    0    0    0
C 1501.58066461 68.34429681 63.12782905     2    785   789   790   791
H 1502.03247889 66.42351214 62.76527402     6    788    0    0    0
H 1499.81050968 68.57288347 64.37678589     6    788    0    0    0
C 1501.29832037 70.03406197 60.77437733     2    788   792   793   794
H 1500.41791944 71.86569797 60.97984946     6    791    0    0    0
H 1503.30127985 70.37286307 60.17821357     6    791    0    0    0
C 1500.12736258 68.79163811 58.39948086     2    791   795   796   797
H 1501.26031603 67.24369406 57.68060480     6    794    0    0    0
H 1498.31996324 67.92754921 58.99052365     6    794    0    0    0
C 1499.61217277 70.79970952 56.33623146     2    794   798   799   800
H 1498.03668156 72.02306302 57.06043220     6    797    0    0    0
H 1501.16862641 72.19516392 56.54182002     6    797    0    0    0
C 1499.24159442 69.78543706 53.57415405     2    797   801   802   803
H 1501.04796859 69.10176202 52.83713863     6    800    0    0    0
H 1497.96008635 68.18222260 53.48072308     6    800    0    0    0
C 1498.16455569 71.70678359 51.77888956     2    800   804   805   806
H 1496.05521494 72.27243957 52.28982312     6    803    0    0    0
H 1499.46759610 73.37322094 52.04963341     6    803    0    0    0
C 1498.19185963 70.86127389 48.96773999     1    803   807   808   809
H 1497.88558502 72.50770461 47.83838853     6    806    0    0    0
H 1496.79990504 69.40786699 48.53751839     6    806    0    0    0
H 1500.04955080 70.14935601 48.63983901     6    806    0    0    0
H 1474.85530326 47.90499434 70.36097937     6     811    0    0    0 
C 1476.00602309 46.39045052 71.10719979     1     810    812    813    814
H 1475.66181634 46.11437686 73.10295488     6     811    0    0    0
H 1475.29339995 44.65678146 70.37067036     6     811    0    0    0
C 1478.73814221 46.72634182 70.46947960     2     811    815    816    817
H 1479.22793134 48.78062376 70.78514123     6     814    0    0    0
H 1479.95470836 45.59970429 71.77447071     6     814    0    0    0
C 1479.37718056 46.13815537 67.77738804     2     814    818   819   820
H 1479.11766717 44.11464774 67.41799952     6     817    0    0    0
H 1477.96342289 47.29711584 66.54483563     6     817    0    0    0
C 1482.04816890 46.99182628 67.10996411     2     817   821   822   823
H 1482.47360086 48.98093254 67.72759726     6    820    0    0    0
H 1483.12901947 45.67384265 68.34945526     6    820    0    0    0
C 1482.89791175 46.47183999 64.34318393     2    820   824   825   826
H 1482.61017773 44.57932298 63.65712268     6    823    0    0    0
H 1481.92775580 47.86622503 63.13822263     6    823    0    0    0
C 1485.60680600 47.25979862 64.05926688     2    823   827   828   829
H 1485.83684054 49.22489863 64.38771986     6    826    0    0    0
H 1486.40248987 46.27097887 65.70258678     6    826    0    0    0
C 1486.85344982 46.68719890 61.59170106     2    826   830   831   832
H 1486.47043417 44.70206238 61.05759820     6    829    0    0    0
H 1485.97556313 47.77882692 60.18057476     6    829    0    0    0
C 1489.71219689 47.31407710 61.46906007     2    829   833   834   835
H 1490.14057037 49.31941095 61.32416447     6    832    0    0    0
H 1490.62984826 46.63190821 63.21634206     6    832    0    0    0
C 1490.87899633 46.05254178 59.11945366     2    832   836   837   838
H 1490.35733329 43.96775856 59.00970479     6    835    0    0    0
H 1489.89036470 47.10856118 57.65954973     6    835    0    0    0
C 1493.55932717 46.49269674 58.74761926     2    835   839   840   841
H 1493.87690456 48.49896804 58.29172648     6    838    0    0    0
H 1494.36941245 45.96276701 60.62842005     6    838    0    0    0
C 1494.82524982 44.46560072 56.98127157     2    838   842   843   844
H 1494.27198880 42.78598779 57.86947037     6    841    0    0    0
H 1494.08344223 44.73424749 55.04249670     6    841    0    0    0
C 1497.63800899 44.43157883 56.90389795     1    841   845   846   847
H 1498.65486410 46.31923686 56.36323100     6    844    0    0    0
H 1498.07610725 43.00243029 55.42442562     6    844    0    0    0
H 1498.36982433 43.41681416 58.58130762     6    844    0    0    0
H 1472.12683337 61.58408818 93.74142598     6     849    0    0    0 
C 1471.76397428 60.60653866 91.85587469     1     848    850    851    852
H 1469.99670119 61.31922338 91.22060713     6     849    0    0    0
H 1473.24973517 61.25682011 90.63892869     6     849    0    0    0
C 1471.69782323 57.72207858 91.97508005     2     849    853    854    855
H 1473.30670715 57.02363849 93.16505227     6     852    0    0    0
H 1469.92774274 57.21867497 92.74634982     6     852    0    0    0
C 1471.85483198 56.67869584 89.36647675     2     852    856   857   858
H 1470.07862505 57.29630155 88.46382301     6     855    0    0    0
H 1473.61515623 57.35489552 88.29076160     6     855    0    0    0
C 1471.83665086 53.76908051 89.30269217     2     855   859   860   861
H 1473.50254210 53.01977726 90.16758705     6    858    0    0    0
H 1470.06372650 53.11567155 90.30141978     6    858    0    0    0
C 1471.71307723 52.81554034 86.70530338     2    858   862   863   864
H 1469.87520111 53.18354220 85.94367931     6    861    0    0    0
H 1473.03211205 54.09161627 85.67871143     6    861    0    0    0
C 1472.47402513 50.05074509 86.43525201     2    861   865   866   867
H 1474.23110544 49.58968083 87.44002874     6    864    0    0    0
H 1470.92577610 48.83860153 87.18680070     6    864    0    0    0
C 1472.80403400 49.50963893 83.55036263     2    864   868   869   870
H 1471.42105672 49.88663506 82.11630691     6    867    0    0    0
H 1474.33683791 50.50298290 82.90909009     6    867    0    0    0
C 1473.31628629 46.83027169 83.20332552     2    867   871   872   873
H 1474.75899153 46.23858245 84.50291519     6    870    0    0    0
H 1471.53653458 45.81826685 83.70548129     6    870    0    0    0
C 1474.40080560 45.93348817 80.66714933     2    870   874   875   876
H 1473.41052174 46.89047119 79.17614679     6    873    0    0    0
H 1476.35112577 46.46885290 80.39512507     6    873    0    0    0
C 1474.20457235 43.06815953 80.36654978     2    873   877   878   879
H 1475.10830820 41.75696748 81.70116717     6    876    0    0    0
H 1472.20897581 42.62765567 80.37720705     6    876    0    0    0
C 1475.25784659 42.17116492 77.74647374     2    876   880   881   882
H 1474.09010927 42.68130157 76.07273242     6    879    0    0    0
H 1476.83009500 43.38395824 77.27594710     6    879    0    0    0
C 1476.16103215 39.37898463 77.47003987     1    879   883   884   885
H 1474.70014566 37.97372264 77.73445838     6    882    0    0    0
H 1477.62319525 38.92787011 78.84389581     6    882    0    0    0
H 1476.86692665 39.19560512 75.52173616     6    882    0    0    0
H 1482.77164515 58.92132318 61.71126032     6     887    0    0    0 
C 1484.45855487 57.78381865 61.98668265     1     886    888    889    890
H 1484.02812401 56.16480868 60.93431075     6     887    0    0    0
H 1486.15576504 58.73254178 61.32891761     6     887    0    0    0
C 1484.75656291 57.14021227 64.66518368     2     887    891    892    893
H 1486.71205094 56.83592553 65.09029045     6     890    0    0    0
H 1484.43084848 58.76750256 65.93127022     6     890    0    0    0
C 1483.04279841 54.88643473 65.47705301     2     890    894   895   896
H 1483.21261122 53.24764201 64.07967956     6     893    0    0    0
H 1483.64768961 54.06341643 67.30444985     6     893    0    0    0
C 1480.34585137 56.01415875 66.04762746     2     893   897   898   899
H 1480.55230928 57.26076419 67.72116143     6    896    0    0    0
H 1479.74482742 57.32414154 64.47225120     6    896    0    0    0
C 1478.35728760 54.05456308 66.52231197     2    896   900   901   902
H 1478.39766130 52.48151330 65.09472748     6    899    0    0    0
H 1478.77912997 52.90678006 68.29271775     6    899    0    0    0
C 1475.56379211 55.13567882 66.82436308     2    899   903   904   905
H 1475.54595503 56.72654707 68.26950483     6    902    0    0    0
H 1475.17202721 56.13748140 65.07271713     6    902    0    0    0
C 1473.48884668 53.14665500 67.25694453     2    902   906   907   908
H 1473.32337962 51.70831153 65.78042347     6    905    0    0    0
H 1473.86288264 52.16045069 68.84179614     6    905    0    0    0
C 1470.89825402 54.47027423 67.50195231     2    905   909   910   911
H 1470.97550794 55.81456027 69.01165652     6    908    0    0    0
H 1470.45917337 55.62956352 65.90128028     6    908    0    0    0
C 1468.75141633 52.72298719 68.19487367     2    908   912   913   914
H 1468.65304646 51.24841265 66.66722298     6    911    0    0    0
H 1469.11155466 51.88790573 70.09137833     6    911    0    0    0
C 1466.10598317 54.10318483 68.37761685     2    911   915   916   917
H 1466.16928234 55.33814611 69.95361005     6    914    0    0    0
H 1465.76892838 55.27466548 66.75626954     6    914    0    0    0
C 1463.87322051 52.19388656 68.48324709     2    914   918   919   920
H 1463.42624971 51.39333945 66.61213713     6    917    0    0    0
H 1464.24925618 50.57367981 69.70952919     6    917    0    0    0
C 1461.34067023 53.46789395 69.20830462     1    917   921   922   923
H 1461.15129148 55.16261401 68.25141996     6    920    0    0    0
H 1461.30391657 53.65507691 71.30306177     6    920    0    0    0
H 1459.63374030 52.34207040 68.72807620     6    920    0    0    0
H 1487.19228812 64.87080340 86.98569168     6     925    0    0    0 
C 1486.39934260 63.20111470 87.82059690     1     924    926    927    928
H 1486.12479990 61.88469003 86.16350760     6     925    0    0    0
H 1487.73047427 62.49980490 89.18480459     6     925    0    0    0
C 1483.91883773 63.66383287 89.21586296     2     925    929    930    931
H 1484.31450583 64.87682599 90.89316586     6     928    0    0    0
H 1482.50614492 64.68274207 88.07543753     6     928    0    0    0
C 1482.67676391 61.14413308 90.05446530     2     928    932   933   934
H 1484.10579121 59.94964037 91.06200304     6     931    0    0    0
H 1481.25816049 61.52029484 91.54502335     6     931    0    0    0
C 1481.44023494 59.60376385 87.91700340     2     931   935   936   937
H 1479.81010343 60.66694255 87.26015038     6    934    0    0    0
H 1482.74845216 59.42745880 86.24652567     6    934    0    0    0
C 1480.51273880 56.99477104 88.75524749     2    934   938   939   940
H 1481.79308787 55.72474837 89.83050674     6    937    0    0    0
H 1479.28770614 57.27545008 90.40637017     6    937    0    0    0
C 1479.34339652 55.31020168 86.56596875     2    937   941   942   943
H 1477.66969073 56.29629391 86.00840427     6    940    0    0    0
H 1480.72603530 55.03697356 85.05301802     6    940    0    0    0
C 1478.60536234 52.54291249 87.21471514     2    940   944   945   946
H 1477.04180360 52.58303841 88.64639467     6    943    0    0    0
H 1477.82371790 51.69185241 85.62005529     6    943    0    0    0
C 1480.87422046 50.88773121 87.78645431     2    943   947   948   949
H 1482.34470195 51.05722499 86.32495710     6    946    0    0    0
H 1481.95768309 51.60185127 89.33386990     6    946    0    0    0
C 1480.33591290 48.12035065 88.31882967     2    946   950   951   952
H 1479.16886134 47.75417107 89.86706359     6    949    0    0    0
H 1479.07054349 47.51585475 86.83339364     6    949    0    0    0
C 1482.55381406 46.28032173 88.49169388     2    949   953   954   955
H 1483.89037385 46.47410125 87.02757776     6    952    0    0    0
H 1483.55478112 46.17639283 90.21698803     6    952    0    0    0
C 1481.82808867 43.48437353 88.05626963     2    952   956   957   958
H 1483.12751101 42.03581900 88.83833639     6    955    0    0    0
H 1479.95492384 43.25007330 88.96186435     6    955    0    0    0
C 1481.29241440 42.98394506 85.25088586     1    955   959   960   961
H 1481.43700485 41.00007532 84.68685217     6    958    0    0    0
H 1482.58512944 44.12211586 84.07474810     6    958    0    0    0
H 1479.36351469 43.62259582 84.58225214     6    958    0    0    0
H 1472.72272802 54.72374296 49.74473213     6     963    0    0    0 
C 1474.64438204 54.81515948 50.44658797     1     962    964    965    966
H 1474.58054192 54.66589999 52.43205897     6     963    0    0    0
H 1475.51565018 53.23480329 49.67592213     6     963    0    0    0
C 1475.88153285 57.13878320 49.24196920     2     963    967    968    969
H 1477.71504393 57.01864314 50.17132278     6     966    0    0    0
H 1476.22810612 57.07820496 47.14014047     6     966    0    0    0
C 1474.33834205 59.56748719 49.92637452     2     966    970   971   972
H 1472.41780005 59.46361956 49.13139435     6     969    0    0    0
H 1474.21553821 59.68295815 51.89191497     6     969    0    0    0
C 1475.49851293 62.00283622 48.80664640     2     969   973   974   975
H 1477.46966521 62.20507468 49.80355050     6    972    0    0    0
H 1475.85380821 61.89401779 46.83761819     6    972    0    0    0
C 1473.83339700 64.32709487 49.51958664     2    972   976   977   978
H 1471.86007901 63.74640380 49.20111946     6    975    0    0    0
H 1473.94310834 64.36060670 51.52876190     6    975    0    0    0
C 1474.78238454 66.76357455 48.25810852     2    975   979   980   981
H 1476.50954103 67.53566386 48.97754078     6    978    0    0    0
H 1475.28300187 66.43620636 46.29211142     6    978    0    0    0
C 1472.92849331 68.90396407 48.36522498     2    978   982   983   984
H 1471.04782675 68.36427989 47.72634727     6    981    0    0    0
H 1472.88338035 69.57900074 50.31641529     6    981    0    0    0
C 1473.80400654 71.27242082 46.78171159     2    981   985   986   987
H 1475.52340380 72.17121808 47.59186773     6    984    0    0    0
H 1474.50321363 70.53442765 44.97225846     6    984    0    0    0
C 1471.63925952 73.16465949 46.73209254     2    984   988   989   990
H 1472.10768984 74.56110230 45.27426039     6    987    0    0    0
H 1469.81050999 72.33014216 46.17720178     6    987    0    0    0
C 1471.02228006 74.39777482 49.21840440     2    987   991   992   993
H 1470.04368134 72.87147282 50.34548306     6    990    0    0    0
H 1472.71818873 75.01327052 49.99749530     6    990    0    0    0
C 1469.23493002 76.68181092 48.93473481     2    990   994   995   996
H 1469.47636234 77.75872388 47.20321270     6    993    0    0    0
H 1467.48001965 75.79830055 48.40417871     6    993    0    0    0
C 1469.12146268 78.38016196 51.22147648     1    993   997   998   999
H 1468.50300086 77.34613358 52.92556804     6    996    0    0    0
H 1468.01467946 80.00302633 50.98038251     6    996    0    0    0
H 1471.01885417 79.08854426 51.67393509     6    996    0    0    0
H 1478.66411474 40.00844315 38.73167568     6     1001    0    0    0 
C 1479.14887370 40.63590653 40.65123803     1     1000    1002    1003    1004
H 1478.14228537 39.41783944 41.93273247     6     1001    0    0    0
H 1481.08755263 40.30749770 41.05559567     6     1001    0    0    0
C 1478.38865483 43.44283833 40.94003778     2     1001    1005    1006    1007
H 1478.86323490 44.09004310 42.83667417     6     1004    0    0    0
H 1479.54174653 44.54590497 39.64245403     6     1004    0    0    0
C 1475.58138393 43.77263536 40.49707794     2     1004    1008   1009   1010
H 1474.97310749 42.87421368 38.75682438     6     1007    0    0    0
H 1474.47253085 43.02921038 41.99365101     6     1007    0    0    0
C 1474.85780195 46.62317686 40.57317423     2     1007   1011   1012   1013
H 1475.11127296 47.56769097 42.29625926     6    1010    0    0    0
H 1475.94241011 47.75822528 39.14975161     6    1010    0    0    0
C 1471.95874013 46.99395233 40.20502856     2    1010   1014   1015   1016
H 1471.24070499 45.62926946 38.69335174     6    1013    0    0    0
H 1471.01258129 46.27875935 41.76007809     6    1013    0    0    0
C 1471.06421451 49.73421311 40.10200133     2    1013   1017   1018   1019
H 1471.56191509 50.90839436 41.80219509     6    1016    0    0    0
H 1472.06238795 50.55223814 38.60103072     6    1016    0    0    0
C 1468.23434042 50.06072162 39.51700910     2    1016   1020   1021   1022
H 1467.89307025 49.11281856 37.82075776     6    1019    0    0    0
H 1467.04280575 49.07442694 40.85433906     6    1019    0    0    0
C 1467.48377897 52.92402041 39.63634778     2    1019   1023   1024   1025
H 1469.02280582 54.05675821 40.26458999     6    1022    0    0    0
H 1466.83334320 53.30099348 37.78135010     6    1022    0    0    0
C 1465.27948211 53.40446443 41.49662904     2    1022   1026   1027   1028
H 1463.58716214 52.04165607 41.07647093     6    1025    0    0    0
H 1466.08567629 52.98850686 43.16965914     6    1025    0    0    0
C 1464.27525015 56.04759536 41.19718432     2    1025   1029   1030   1031
H 1465.94900896 57.19545770 40.77990587     6    1028    0    0    0
H 1463.08114758 56.08742584 39.63989869     6    1028    0    0    0
C 1462.92553913 57.22787202 43.42413182     2    1028   1032   1033   1034
H 1461.16118026 56.31897139 43.95055762     6    1031    0    0    0
H 1464.16359520 56.89125006 44.91640095     6    1031    0    0    0
C 1462.51576209 60.07127450 43.18599103     1    1031   1035   1036   1037
H 1461.67231948 60.94147138 44.81338360     6    1034    0    0    0
H 1461.47770214 60.49381470 41.47669559     6    1034    0    0    0
H 1464.34895297 61.02664562 42.97832414     6    1034    0    0    0
H 1492.84719700 63.21600921 56.89590231     6     1039    0    0    0 
C 1494.18310174 64.11809709 58.03003459     1     1038    1040    1041    1042
H 1495.76602707 64.04827559 56.97181769     6     1039    0    0    0
H 1493.47606627 66.03254305 58.32782995     6     1039    0    0    0
C 1494.61264406 62.50716044 60.41349863     2     1039    1043    1044    1045
H 1492.96072750 62.17841383 61.41818115     6     1042    0    0    0
H 1495.34960120 60.67336551 59.65139533     6     1042    0    0    0
C 1496.80072641 63.12105124 62.14331022     2     1042    1046   1047   1048
H 1498.44548937 63.20326595 60.88900657     6     1045    0    0    0
H 1496.74375406 64.99224239 63.09266608     6     1045    0    0    0
C 1497.18565333 61.21742192 64.15605633     2     1045   1049   1050   1051
H 1495.51766150 60.71589391 65.17738986     6    1048    0    0    0
H 1498.01317302 59.59118311 63.28678868     6    1048    0    0    0
C 1499.46831729 62.19185486 65.92324839     2    1048   1052   1053   1054
H 1501.04758725 62.40806411 64.73007471     6    1051    0    0    0
H 1499.10353689 63.97733037 66.86004106     6    1051    0    0    0
C 1500.05300870 60.26868365 68.00496027     2    1051   1055   1056   1057
H 1498.33267938 59.46587161 68.57504793     6    1054    0    0    0
H 1500.88200024 58.47463030 67.35824704     6    1054    0    0    0
C 1501.48332618 61.34812015 70.19756652     2    1054   1058   1059   1060
H 1503.14674790 62.32913138 69.56331421     6    1057    0    0    0
H 1500.42531105 62.78046250 71.17259834     6    1057    0    0    0
C 1502.09370598 59.45441146 72.30282237     2    1057   1061   1062   1063
H 1500.39226649 58.66272577 73.11055255     6    1060    0    0    0
H 1503.20650471 57.88620310 71.67972294     6    1060    0    0    0
C 1503.46976349 60.85886706 74.52661369     2    1060   1064   1065   1066
H 1505.37034314 61.70643562 73.85537253     6    1063    0    0    0
H 1502.40281327 62.55227239 75.15139234     6    1063    0    0    0
C 1504.15899322 59.10312655 76.65308290     2    1063   1067   1068   1069
H 1502.68501967 58.21295865 77.50637153     6    1066    0    0    0
H 1505.32306477 57.51727057 75.97152944     6    1066    0    0    0
C 1505.61093757 60.46387728 78.79264649     2    1066   1070   1071   1072
H 1507.51728684 61.26525439 78.32516087     6    1069    0    0    0
[...]
 1619      H    1503.9073302400    73.4757655300    50.6342675700
 1620      H    1505.8884240000    76.2696984200    50.0512654900
 1621      C    1503.6472364200    75.0723704700    46.8588828900
 1622      H    1504.8033484100    75.5930729100    45.1510481400
 1623      H    1502.6194207000    73.3325396000    46.2894619300
 1624      C    1502.0875380700    77.5257646500    47.2255831300
 1625      H    1501.0602725100    77.4799163200    49.0740503500
 1626      H    1503.1820335700    79.1556047800    47.5176284100
 1627      C    1499.9532862800    77.8363592700    45.1960824100
 1628      H    1500.8712713500    77.8715246300    43.3633125000
 1629      H    1498.9521745600    76.0748522000    44.8759320900
 1630      C    1498.1188319500    80.0473281100    45.7003527300
 1631      H    1496.2811137800    79.4208796300    46.4965798500
 1632      H    1498.9736270500    81.4545697700    46.9867119200
 1633      C    1497.6033088300    81.7587602200    43.2765581400
 1634      H    1499.2515373500    82.9712470900    42.7997098600
 1635      H    1497.5363653000    80.7084031300    41.4878316300
 1636      C    1495.2417118100    83.6470922900    43.4341030500
 1637      H    1493.4914736000    82.4545892800    43.6762586700
 1638      H    1495.1679100800    84.8715708000    45.1876876700
 1639      C    1494.7184655200    85.1026678000    40.8942213600
 1640      H    1496.4023746300    86.0373066200    40.5737685400
 1641      H    1494.4119242500    83.8073428200    39.2542617000
 1642      C    1492.4415061400    86.9730874800    40.5919331100
 1643      H    1490.5601268100    86.0363795800    40.7773745700
 1644      H    1492.2807711200    87.8695923900    38.8796563400
 1645      H    1492.7079850400    88.5195875800    41.9939298300
 1646      H    1503.6995068300    55.6034335300    40.4672290600
 1647      C    1502.8464598800    57.2869739300    41.3535287900
 1648      H    1501.5028326600    56.7001140400    42.8895885800
 1649      H    1504.4022407700    58.3837955900    42.3444116600
 1650      C    1501.2963914400    58.8867062400    39.4198448000
 1651      H    1500.0460768400    60.0588623100    40.3968541900
 1652      H    1502.7271799200    60.0706369200    38.3596772800
 1653      C    1500.0098922700    57.3706741100    37.3202755100
 1654      H    1501.5774096800    56.4635854200    36.2718925600
 1655      H    1498.7169134200    55.9871754200    38.0358662700
 1656      C    1498.5170783400    59.0019135700    35.2807989800
 1657      H    1499.6934489800    60.3290723800    34.5452640600
 1658      H    1498.0544119400    57.5899047100    33.7180152000
 1659      C    1496.3546331900    60.3517016700    36.4430117400
 1660      H    1495.2702094800    58.9520206900    37.4372973100
 1661      H    1497.0776257600    61.4508734000    38.0279167100
 1662      C    1494.7168511200    61.4286757200    34.2638994500
 1663      H    1495.8146239100    62.4713556700    32.9538404300
 1664      H    1494.1173585300    59.8966530800    33.0365387000
 1665      C    1492.2718237800    62.6775837000    35.2345224800
 1666      H    1491.4646716300    61.0400011900    36.5216906500
 1667      H    1492.6533753700    64.2048888300    36.6588617700
 1668      C    1490.5266445200    63.5219098400    33.0980807400
 1669      H    1491.4756213900    64.6964447800    31.7186713600
 1670      H    1489.7820781100    61.8750418200    32.1127780400
 1671      C    1488.0425717700    64.6557055900    34.3296355700
 1672      H    1487.3849999900    63.6785524100    36.1239231400
 1673      H    1488.5809886800    66.4985376000    35.0696173200
 1674      C    1485.6989533100    64.8308701900    32.6249361900
 1675      H    1486.4727631900    64.6516009400    30.6918930400
 1676      H    1484.6012044700    63.2004259300    33.2507146800
 1677      C    1484.4083953900    67.3534080000    32.8149771700
 1678      H    1484.1995385400    67.8570711600    34.7487085700
 1679      H    1485.3850145100    68.8949513600    31.7157825100
 1680      C    1481.6948959900    67.3433012400    31.7175202100
 1681      H    1481.0772834700    69.2489029800    32.0052933400
 1682      H    1480.3731070600    66.0014890700    32.5764528200
 1683      H    1481.8851144500    66.9477499200    29.8026138400
 1684      H    1479.4939938200    48.7262683900    45.2581426100
 1685      C    1481.2897183000    49.5113842200    44.6729623300
 1686      H    1482.5194836200    47.9296598200    44.3552831000
 1687      H    1480.7635053100    50.1830541200    42.8067836500
 1688      C    1482.1949796800    51.6773998400    46.4430087800
 1689      H    1480.5341660900    52.9694623700    46.6197149600
 1690      H    1482.5630680900    50.9248805200    48.2823926500
 1691      C    1484.3607562100    53.1957485800    45.4312707300
 1692      H    1485.9453871000    51.9227927500    44.9691234500
 1693      H    1483.8235924100    54.1770215000    43.6996026100
 1694      C    1485.3671806300    55.2440816200    47.2799553600
 1695      H    1485.5740033600    54.2677568200    49.0899789100
 1696      H    1487.2699822000    55.9411607000    46.7540633200
 1697      C    1483.5571541200    57.5268186700    47.5157178900
 1698      H    1483.4374418800    58.6111317400    45.8480170700
 1699      H    1481.5261598400    57.1318560600    47.8678416400
 1700      C    1484.2435896800    59.4828170800    49.7257940300
 1701      H    1482.7580549100    60.8812509600    49.5704624100
 1702      H    1484.0820227800    58.5314203200    51.5162528400
 1703      C    1486.8946156200    60.5765672100    49.4093487100
 1704      H    1488.2917681600    59.0351497700    49.4308718500
 1705      H    1486.9130557700    61.4626266900    47.5236605100
 1706      C    1487.2473966000    62.5077407200    51.6021206500
 1707      H    1485.4361854800    63.5937169500    52.0090034300
 1708      H    1487.6070039000    61.5488581400    53.3342037700
 1709      C    1489.4273443400    64.4127536800    50.9885835900
 1710      H    1491.2496735400    63.3414617500    50.9298620200
 1711      H    1489.0845394300    65.1504046500    49.1400559500
 1712      C    1489.6660235100    66.4683319100    52.9623821400
 1713      H    1487.8685831400    67.3500506500    52.9516530900
 1714      H    1489.9265690200    65.5355600600    54.6955366700
 1715      C    1491.7420224100    68.4621294200    52.4530743400
 1716      H    1492.5924166600    68.8409434000    54.2543189200
 1717      H    1493.3175926400    67.9177598500    51.2721942700
 1718      C    1490.4534552600    70.8703349700    51.5596287300
 1719      H    1489.2407798200    70.6183856000    49.8544726200
 1720      H    1491.9713069400    72.2226983500    51.1083337600
 1721      H    1489.2543105600    71.8491402900    53.0136455200
 1722      H    1463.2987183800    76.3729914900    40.7600312000
 1723      C    1461.5164364100    75.3691351400    40.8114666800
 1724      H    1460.5581873300    76.6205731400    42.2084865500
 1725      H    1460.6033937700    75.4409875000    38.9369479800
 1726      C    1461.7433143400    72.7514283800    41.9034510600
 1727      H    1460.0033269900    71.8895533200    42.1943546300
 1728      H    1462.7858504800    71.5710914900    40.6421189200
 1729      C    1463.2809930400    72.7907807800    44.3952819500
 1730      H    1465.3486941400    73.0756895900    44.1610452700
 1731      H    1462.5753722800    74.3858951600    45.4709696200
 1732      C    1462.7884286000    70.1501466200    45.6397031900
 1733      H    1460.8002622600    69.6791189700    45.8352308700
 1734      H    1463.4557297500    68.5234649700    44.4186465500
 1735      C    1464.3499604600    70.0119682700    48.1458436500
 1736      H    1466.2553829800    70.4927512000    47.6830862100
 1737      H    1463.5712030300    71.3781537200    49.5065800400
 1738      C    1464.4953906200    67.4020103100    49.4122328000
 1739      H    1462.6112958800    66.8432350200    50.1465728700
 1740      H    1464.8677356300    65.9613363100    48.0292905800
 1741      C    1466.6079857900    67.2219970600    51.4448205400
 1742      H    1468.4025746800    67.0685637000    50.4405972000
 1743      H    1467.0874102600    68.9291319900    52.5760673800
 1744      C    1466.4216867300    65.0155635300    53.1131009800
 1745      H    1464.4832358700    64.6732258300    54.0072679700
 1746      H    1466.9509457200    63.4754740600    51.9554775800
 1747      C    1468.2882069400    64.9990043600    55.3079809900
 1748      H    1470.0972104300    65.3621341700    54.6252401300
 1749      H    1467.7768267600    66.5049319700    56.6301129100
 1750      C    1468.6046859100    62.5776152500    56.8297121200
 1751      H    1466.8299817000    61.9901278200    57.5969912200
 1752      H    1469.2315800100    60.9280247800    55.7944275200
 1753      C    1470.5228535600    62.9145158500    59.0787119000
 1754      H    1472.3692492000    63.2581423200    58.3950911900
 1755      H    1469.8554271800    64.5295254200    60.1762331100
 1756      C    1470.5325652800    60.7230251300    60.9629050600
 1757      H    1472.0142965100    60.9089679100    62.3482722800
 1758      H    1470.9184431700    58.8710052700    59.9074512900
 1759      H    1468.7402282600    60.4134900900    61.8656579700
 1760      H    1453.9393363400    55.5656894400    55.2598538100
 1761      C    1453.0460900700    57.3109148400    55.7985020200
 1762      H    1453.5207334200    58.7954959100    54.3904676900
 1763      H    1451.0030762000    56.8647228800    55.5537827700
 1764      C    1453.6859658800    57.6970840600    58.7213873100
 1765      H    1453.3325949400    55.9101996300    59.7240663500
 1766      H    1455.6895666500    58.1294567800    59.2284779800
 1767      C    1452.1652337300    59.7179187100    60.0665521300
 1768      H    1450.1116264000    59.3637794500    60.1594044400
 1769      H    1452.7799442500    59.5191366200    62.0587310700
 1770      C    1452.7589793600    62.3567976300    59.1324817600
 1771      H    1454.6570140100    62.6860354400    58.5794925300
 1772      H    1451.5199919600    62.6197785300    57.4660625200
 1773      C    1452.2315934500    64.3506792500    61.1806101300
 1774      H    1450.3481645200    64.0908290700    61.7840755600
 1775      H    1453.5518501200    63.9302677900    62.6656976300
 1776      C    1452.4594936100    66.9897537100    60.2537426000
 1777      H    1454.2414594700    67.4171554400    59.2622647100
 1778      H    1450.9597234200    67.0578020300    58.7013256000
 1779      C    1451.6523950900    68.9105194400    62.1760546900
 1780      H    1450.1445561700    68.3215757500    63.4714217500
 1781      H    1453.3921060800    69.3275874200    63.2952448700
 1782      C    1450.9894637100    71.5881126500    61.1992502200
 1783      H    1449.2463957300    71.3887453100    60.1022922800
 1784      H    1450.4744411000    72.7139362400    62.6203729700
 1785      C    1453.2287729200    72.5801249700    59.5228862800
 1786      H    1454.8703528300    72.7279917500    60.7686814500
 1787      H    1453.9725866600    71.1649864100    58.1748790700
 1788      C    1452.7398297700    75.1859548000    58.2841269100
 1789      H    1450.8698548800    75.4546479400    57.5697725800
 1790      H    1453.2106812100    76.6434787300    59.7220208800
 1791      C    1454.7220210700    76.0035802800    56.2597164500
 1792      H    1456.5090764100    76.3206363900    57.2010193800
 1793      H    1455.2226946100    74.4003301000    54.9100904000
 1794      C    1454.0467317600    78.2478992200    54.4241156900
 1795      H    1453.8712193900    79.9212518800    55.6141466900
 1796      H    1452.3199005100    77.9528321000    53.5492082300
 1797      H    1455.5127927500    78.5900482800    53.1097866400
 1798      H    1491.9949786600    79.5245333300    78.5855963100
 1799      C    1493.7580171300    78.8344023900    79.3467419000
 1800      H    1495.4063068900    79.4937732900    78.2327416200
 1801      H    1494.0941965700    79.8854615300    81.0662154500
 1802      C    1493.6990345500    76.0993193000    80.0656140900
 1803      H    1495.5598962200    75.5841851300    80.7160268200
 1804      H    1492.5256635400    75.9527764300    81.6960866800
 1805      C    1492.7761865600    74.2936125900    78.1837776100
 1806      H    1490.9375576500    74.9577391600    77.4411212200
 1807      H    1494.2296962500    74.5334798800    76.6776120100
 1808      C    1492.3044062200    71.4704593500    78.9414600300
 1809      H    1494.0061777600    70.2568229900    79.2725780800
 1810      H    1491.4145299800    71.4153271000    80.8891906000
 1811      C    1490.6030901100    70.2449305800    77.0133825400
 1812      H    1488.8178241100    71.2675869800    76.6761573700
 1813      H    1491.5037022900    70.3737745400    75.2437839900
 1814      C    1490.1014906700    67.4653033900    77.4952219300
 1815      H    1491.9757613700    66.5260311600    77.4562231100
 1816      H    1489.2995539900    67.3312386700    79.4106137600
 1817      C    1488.1404235200    66.4358237700    75.4998486900
 1818      H    1486.3903076900    67.4614590000    75.2973647800
 1819      H    1489.2091968200    66.5073489400    73.7580751700
 1820      C    1487.5618447400    63.7460973800    75.9898953000
 1821      H    1489.3148349900    62.6851289200    75.9998637300
 1822      H    1486.6517992900    63.6811885600    77.8034898400
 1823      C    1485.6295785000    62.6686292400    74.0913616400
 1824      H    1483.9175799600    64.0661989800    74.0336420800
 1825      H    1486.6783668700    62.6892852200    72.3634984400
 1826      C    1485.0698449300    59.9023806100    74.9336442800
 1827      H    1486.9842759500    58.9254816600    75.2048624000
 1828      H    1483.8723652400    59.7478136700    76.6372110800
 1829      C    1483.7662139500    58.5980548000    72.6302164900
 1830      H    1482.4409095200    59.9008887200    71.8367144300
 1831      H    1485.0868664700    58.1487967000    71.0790976200
 1832      C    1482.4367412800    56.2426341000    73.5206331400
 1833      H    1480.8817312000    56.6725164400    74.7972555800
 1834      H    1483.7970232400    55.2056948400    74.5287886200
 1835      H    1481.6598042800    55.2004549300    71.9738362100
 1836      H    1474.5689700700    61.3095787900    68.3371039500
 1837      C    1475.9786600400    61.8859490300    69.7957570600
 1838      H    1477.7107731700    60.9300494700    69.5361144200
 1839      H    1476.2089942200    63.8113978600    69.5284756800
 1840      C    1475.1705007600    61.6804827800    72.5456023600
 1841      H    1473.3719568300    62.5391165800    72.9060404800
 1842      H    1474.8089094300    59.7209709000    72.9931610000
 1843      C    1477.1978747000    62.5969432100    74.4954487500
 1844      H    1478.8713570000    61.5505888500    74.0264237700
 1845      H    1477.5892091200    64.5701481500    74.1367882100
 1846      C    1476.6181838800    61.9728199200    77.2931813200
 1847      H    1474.8088238500    62.8195700600    77.4482593000
 1848      H    1476.3281524000    59.9582968200    77.3979793100
 1849      C    1478.7000923100    62.5562814300    79.1194667800
 1850      H    1480.3151197500    61.1627790500    78.8131259900
 1851      H    1479.3424142300    64.5246398400    78.8985072900
 1852      C    1477.7886055900    62.1328216700    81.8447479500
 1853      H    1477.5146539300    60.0860410600    82.1047965100
 1854      H    1479.4198100100    62.5990777500    82.9978174600
 1855      C    1475.6460082600    63.8523012400    82.6133104500
 1856      H    1475.8694937500    65.7441275400    81.9659152700
 1857      H    1473.9068784000    63.2598157500    81.6487671000
 1858      C    1474.8060838800    64.0108889200    85.3635488600
 1859      H    1472.7792261400    64.6579100300    85.6686640300
 1860      H    1474.8465759400    62.0662758200    86.1070396200
 1861      C    1476.4467261500    65.9227731500    86.8813114200
 1862      H    1478.3396577200    65.8709161500    86.1469407600
 1863      H    1475.5695229700    67.8578422600    86.3611230000
 1864      C    1476.4158862600    65.5634241500    89.6757994800
 1865      H    1474.4828705800    65.6183552300    90.5480632600
 1866      H    1477.1816521600    63.6503011000    90.1028539400
 1867      C    1477.9488474600    67.7261395800    91.1322842700
 1868      H    1479.8740633000    67.9830432200    90.1655843300
 1869      H    1476.8817307000    69.5096903900    90.8769423900
 1870      C    1478.0683147000    67.0841433900    93.9326730500
 1871      H    1479.0094938200    68.4315499500    95.0069031400
 1872      H    1478.9076333900    65.1807348600    94.3185429000
 1873      H    1476.1945757900    66.8871156900    94.6892571100
 1874      H    1476.3008487600    89.8300590400    60.4376745600
 1875      C    1477.7586877300    89.0399816600    59.1283755500
 1876      H    1477.9034033800    90.1520238000    57.4576064000
 1877      H    1479.4631600900    89.2722258500    60.1273823800
 1878      C    1477.1104989900    86.1149212900    58.8023566800
 1879      H    1477.2731688800    85.0222518600    60.4601278400
 1880      H    1475.2193614500    86.0747021100    57.9802727000
 1881      C    1478.8384506300    84.6666574600    56.9790912700
 1882      H    1478.3256697500    85.0029424700    54.9899680100
 1883      H    1480.8172880300    84.9115959400    57.1465371000
 1884      C    1478.2604036900    81.8745387400    57.1905223700
 1885      H    1478.7134296900    81.5512259300    59.1564898300
 1886      H    1476.1882004000    81.5289416500    56.9139259600
 1887      C    1479.8952189200    80.2540586000    55.3410545200
 1888      H    1479.1577842400    80.8065801500    53.4575828000
 1889      H    1481.7708101500    80.8229154500    55.4418316200
 1890      C    1479.8028407900    77.3259342600    55.5460470100
 1891      H    1480.7127231200    76.7126777500    57.2681156500
 1892      H    1477.8509885500    76.6747584300    55.4973785100
 1893      C    1481.3774758000    76.3161337500    53.3070490200
 1894      H    1480.7623366100    77.0194795900    51.4729435000
 1895      H    1483.4100142200    76.9966434200    53.7068637200
 1896      C    1481.1032713000    73.4012309600    53.0605617000
 1897      H    1481.4597814500    72.5109984500    54.7943309200
 1898      H    1479.1190961100    73.1762873700    52.5063326600
 1899      C    1482.5907579700    72.2538577700    50.9441948200
 1900      H    1482.8685946600    73.6436812200    49.4460901000
 1901      H    1484.4832962600    71.9929197400    51.8056541100
 1902      C    1481.8175294600    69.6044799600    50.0982342200
 1903      H    1481.1650317100    68.6734196600    51.8569457900
 1904      H    1480.1052387500    69.7764333200    48.8747868500
 1905      C    1483.8958384500    68.0163659600    48.6783381900
 1906      H    1484.8980161500    69.2835419900    47.3416178300
 1907      H    1485.0456051700    67.4927579000    50.2884991200
 1908      C    1482.5205125700    65.8696208600    47.2776453100
 1909      H    1481.2926284000    65.0512682100    48.7901819500
 1910      H    1483.8912559500    64.4643867000    46.3613595400
 1911      H    1481.2986150200    66.4848875500    45.7249546400
 ----------------------------------------------------------------
 Nuclear Repulsion Energy =           0.00000000 hartrees
 There are       48 alpha and       48 beta electrons
 Total job time:  127.05s(wall), 250.49s(cpu) 
 Wed Jun  1 23:32:47 2022

        *************************************************************
        *                                                           *
        *  Thank you very much for using Q-Chem.  Have a nice day.  *
        *                                                           *
        *************************************************************


