                  Welcome to Q-Chem
     A Quantum Leap Into The Future Of Chemistry


 Q-Chem 5.4 (devel), Q-Chem, Inc., Pleasanton, CA (2021)

 E. Epifanovsky,  A. T. B. Gilbert,  Xintian Feng,  Joonho Lee,  Yuezhi Mao,  
 N. Mardirossian,  P. Pokhilko,  A. White,  M. Wormit,  M. P. Coons,  
 A. L. Dempwolff,  Zhengting Gan,  D. Hait,  P. R. Horn,  L. D. Jacobson,  
 I. Kaliman,  J. Kussmann,  A. W. Lange,  Ka Un Lao,  D. S. Levine,  Jie Liu,  
 S. C. McKenzie,  A. F. Morrison,  K. Nanda,  F. Plasser,  D. R. Rehn,  
 M. L. Vidal,  Zhi-Qiang You,  Ying Zhu,  B. Alam,  B. Albrecht,  
 A. Aldossary,  E. Alguire,  J. H. Andersen,  D. Barton,  K. Begam,  A. Behn,  
 Y. A. Bernard,  E. J. Berquist,  H. Burton,  A. Carreras,  K. Carter-Fenk,  
 R. Chakraborty,  A. D. Chien,  K. D. Closser,  V. Cofer-Shabica,  
 S. Dasgupta,  Jia Deng,  M. de Wergifosse,  M. Diedenhofen,  Hainam Do,  
 S. Ehlert,  Po-Tung Fang,  S. Fatehi,  Qingguo Feng,  T. Friedhoff,  
 J. Gayvert,  Qinghui Ge,  G. Gidofalvi,  M. Goldey,  J. Gomes,  
 C. Gonzalez-Espinoza,  S. Gulania,  A. Gunina,  M. W. D. Hanson-Heine,  
 P. H. P. Harbach,  A. W. Hauser,  M. F. Herbst,  M. Hernandez Vera,  
 M. Hodecker,  Z. C. Holden,  S. Houck,  Xunkun Huang,  Kerwin Hui,  
 B. C. Huynh,  M. Ivanov,  Hyunjun Ji,  Hanjie Jiang,  B. Kaduk,  S. Kaehler,  
 K. Khistyaev,  Jaehoon Kim,  P. Klunzinger,  Z. Koczor-Benda,  
 Joong Hoon Koh,  D. Kosenkov,  L. Koulias,  T. Kowalczyk,  C. M. Krauter,  
 K. Kue,  A. Kunitsa,  T. Kus,  A. Landau,  K. V. Lawler,  D. Lefrancois,  
 S. Lehtola,  Rain Li,  Yi-Pei Li,  Jiashu Liang,  M. Liebenthal,  
 Hung-Hsuan Lin,  You-Sheng Lin,  Fenglai Liu,  Kuan-Yu Liu,  
 M. Loipersberger,  A. Luenser,  A. Manjanath,  P. Manohar,  E. Mansoor,  
 S. F. Manzer,  Shan-Ping Mao,  A. V. Marenich,  T. Markovich,  S. Mason,  
 S. A. Maurer,  P. F. McLaughlin,  M. F. S. J. Menger,  J.-M. Mewes,  
 S. A. Mewes,  P. Morgante,  J. W. Mullinax,  K. J. Oosterbaan,  G. Paran,  
 Alexander C. Paul,  Suranjan K. Paul,  F. Pavosevic,  Zheng Pei,  S. Prager,  
 E. I. Proynov,  E. Ramos,  B. Rana,  A. E. Rask,  A. Rettig,  R. M. Richard,  
 F. Rob,  E. Rossomme,  T. Scheele,  M. Scheurer,  M. Schneider,  
 N. Sergueev,  S. M. Sharada,  W. Skomorowski,  D. W. Small,  C. J. Stein,  
 Yu-Chuan Su,  E. J. Sundstrom,  Zhen Tao,  J. Thirman,  T. Tsuchimochi,  
 N. M. Tubman,  S. P. Veccham,  O. Vydrov,  J. Wenzel,  J. Witte,  A. Yamada,  
 Kun Yao,  S. Yeganeh,  S. R. Yost,  A. Zech,  Igor Ying Zhang,  Xing Zhang,  
 Yu Zhang,  D. Zuev,  A. Aspuru-Guzik,  A. T. Bell,  N. A. Besley,  
 K. B. Bravaya,  B. R. Brooks,  D. Casanova,  Jeng-Da Chai,  S. Coriani,  
 C. J. Cramer,  A. E. DePrince, III,  R. A. DiStasio Jr.,  A. Dreuw,  
 B. D. Dunietz,  T. R. Furlani,  W. A. Goddard III,  S. Grimme,  
 S. Hammes-Schiffer,  T. Head-Gordon,  W. J. Hehre,  Chao-Ping Hsu,  
 T.-C. Jagau,  Yousung Jung,  A. Klamt,  Jing Kong,  D. S. Lambrecht,  
 WanZhen Liang,  N. J. Mayhall,  C. W. McCurdy,  J. B. Neaton,  
 C. Ochsenfeld,  J. A. Parkhill,  R. Peverati,  V. A. Rassolov,  Yihan Shao,  
 L. V. Slipchenko,  T. Stauch,  R. P. Steele,  J. E. Subotnik,  
 A. J. W. Thom,  A. Tkatchenko,  D. G. Truhlar,  T. Van Voorhis,  
 T. A. Wesolowski,  K. B. Whaley,  H. L. Woodcock III,  P. M. Zimmerman,  
 S. Faraji,  P. M. W. Gill,  M. Head-Gordon,  J. M. Herbert,  A. I. Krylov

 Additional authors for Version 5.4.1: 
 S. Kotaru,  Shaozhi Li,  Xiangyuan Li,  F. Matz,  A. Molle,  Haisheng Ren,  
 Yingli Su,  Hung-Yi Tsai,  C. Utku,  Fang Wang

 Contributors to earlier versions of Q-Chem not listed above: 
 R. D. Adamson,  B. Austin,  R. Baer,  J. Baker,  G. J. O. Beran,  
 K. Brandhorst,  S. T. Brown,  E. F. C. Byrd,  A. K. Chakraborty,  
 G. K. L. Chan,  Chun-Min Chang,  Yunqing Chen,  C.-L. Cheng,  
 Siu Hung Chien,  D. M. Chipman,  D. L. Crittenden,  H. Dachsel,  
 R. J. Doerksen,  A. D. Dutoi,  R. G. Edgar,  J. Fosso-Tande,  
 L. Fusti-Molnar,  D. Ghosh,  A. Ghysels,  A. Golubeva-Zadorozhnaya,  
 J. Gonthier,  M. S. Gordon,  S. R. Gwaltney,  G. Hawkins,  J. E. Herr,  
 A. Heyden,  S. Hirata,  E. G. Hohenstein,  G. Kedziora,  F. J. Keil,  
 C. Kelley,  Jihan Kim,  R. A. King,  R. Z. Khaliullin,  P. P. Korambath,  
 W. Kurlancheek,  A. Laurent,  A. M. Lee,  M. S. Lee,  S. V. Levchenko,  
 Ching Yeh Lin,  D. Liotard,  E. Livshits,  R. C. Lochan,  I. Lotan,  
 L. A. Martinez-Martinez,  P. E. Maslen,  N. Nair,  D. P. O'Neill,  
 D. Neuhauser,  E. Neuscamman,  C. M. Oana,  R. Olivares-Amaya,  R. Olson,  
 T. M. Perrine,  B. Peters,  P. A. Pieniazek,  A. Prociuk,  Y. M. Rhee,  
 J. Ritchie,  M. A. Rohrdanz,  E. Rosta,  N. J. Russ,  H. F. Schaefer III,  
 M. W. Schmidt,  N. E. Schultz,  S. Sharma,  N. Shenvi,  C. D. Sherrill,  
 A. C. Simmonett,  A. Sodt,  T. Stein,  D. Stuck,  K. S. Thanthiriwatte,  
 V. Vanovschi,  L. Vogt,  Tao Wang,  A. Warshel,  M. A. Watson,  
 C. F. Williams,  Q. Wu,  X. Xu,  Jun Yang,  W. Zhang,  Yan Zhao

 Please cite Q-Chem as follows:
 Y. Shao et al., Mol. Phys. 113, 184-215 (2015)
 DOI: 10.1080/00268976.2014.952696

 Q-Chem 5.4.1 for Intel X86 EM64T Linux

 Parts of Q-Chem use Armadillo 9.900.5 (Nocturnal Misbehaviour).
 http://arma.sourceforge.net/

 Q-Chem begins on Fri Jul  1 20:00:03 2022  

 Host: p09r14n09.grace.hpc.yale.internal
0

     Scratch files written to /home/tl686/scratch60/qchem_dev/scratch/qchem8750//
 Processing $rem in /home/tl686/qchem_dev/qchem/config/preferences:
 Processing $rem in /home/tl686/.qchemrc:
Applying user defined connections for MM calculations

 Checking the input file for inconsistencies... 	...done.

--------------------------------------------------------------
User input:
--------------------------------------------------------------
$molecule
0   1
 Fe 1269.52179971 -58.59390982 -31.54926890    -1  0   0   0   0
C 1268.09825703 -61.73814100 -30.98459544    -2  0   0   0   0 
C 1270.67076587 -55.57201526 -32.27386211    -2  0   0   0   0
C 1269.10902672 -59.21449563 -34.97355393    -2  0   0   0   0
C 1267.10359725 -57.20137612 -29.42780472    -2  0   0   0   0
C 1272.44451783 -59.42212394 -30.02987357    -2  0   0   0   0
O 1267.22717772 -63.67652316 -30.65302446    -3  0   0   0   0
O 1271.42416846 -53.67188551 -33.08518697    -3  0   0   0   0 
O 1268.53515839 -59.47085224 -37.07306476    -3  0   0   0   0
O 1265.76103950 -56.09533538 -27.99260505    -3  0   0   0   0 
O 1274.50760174 -60.06161360 -29.56007304    -3  0   0   0   0
H 1247.76160792 -73.11769880 -48.84754156      6     13    0    0    0 
C 1247.35606724 -74.58893173 -47.38131340     1     12    14    15    16
H 1246.06474234 -75.71428032 -48.38328434     6     13    0    0    0
H 1249.19674555 -75.46412739 -47.22100390     6     13    0    0    0
C 1246.27673822 -73.49128178 -44.92915681     2     13    17    18    19
H 1244.40713259 -72.66584696 -45.42561647     6     16    0    0    0
H 1245.77520969 -75.03790139 -43.63007952     6     16    0    0    0
C 1247.91940147 -71.67268593 -43.65274101     2     16    20   21   22
H 1249.62989944 -72.67529832 -42.96726909     6     19    0    0    0
H 1248.59122683 -70.19165102 -44.79115053     6     19    0    0    0
C 1246.53884134 -70.54812045 -41.38111041     2     19   23   24   25
H 1244.83821209 -69.53833623 -42.13262482     6    22    0    0    0
H 1245.94019987 -72.02151904 -40.19937162     6    22    0    0    0
C 1248.13960111 -68.95766880 -39.70298484     2    22   26   27   28
H 1249.76486567 -70.09433135 -38.98957043     6    25    0    0    0
H 1248.79417568 -67.15256972 -40.67192194     6    25    0    0    0
C 1246.37209899 -68.41889585 -37.41742218     2    25   29   30   31
H 1244.69182781 -67.42542694 -38.17712038     6    28    0    0    0
H 1245.45920057 -70.01603513 -36.53839407     6    28    0    0    0
C 1247.47404835 -67.02787178 -35.03911477     2    28   32   33   34
H 1249.26438791 -67.81771448 -34.32728806     6    31    0    0    0
H 1248.08829409 -65.02820532 -35.35788243     6    31    0    0    0
C 1245.64781960 -66.81883423 -32.79876094     2    31   35   36   37
H 1243.90385657 -66.03149435 -33.34550144     6    34    0    0    0
H 1245.32592352 -68.63837172 -32.02142405     6    34    0    0    0
C 1246.67087557 -64.88345989 -30.85577292     2    34   38   39   40
H 1248.62438371 -65.20912897 -30.49700075     6    37    0    0    0
H 1246.52313884 -62.90646771 -31.52864071     6    37    0    0    0
C 1245.14142099 -64.86083253 -28.33410462     2    37   41   42   43
H 1243.21139125 -64.20737854 -28.78482857     6    40    0    0    0
H 1245.00633811 -66.85843941 -27.95840314     6    40    0    0    0
C 1246.31076112 -63.58462072 -26.01071176     2    40   44   45   46
H 1248.16645489 -64.20774289 -25.55210412     6    43    0    0    0
H 1246.49830741 -61.54112331 -26.48731268     6    43    0    0    0
C 1244.63333733 -63.79112922 -23.83224083     1    43   47   48   49
H 1242.71148178 -62.85191190 -23.96859665     6    46    0    0    0
H 1245.31882873 -63.15939067 -22.03094745     6    46    0    0    0
H 1244.43642875 -65.73821266 -23.75290293     6    46    0    0    0
H 1261.38054074 -60.00329460 -22.94664644     6     51    0    0    0 
C 1261.65567387 -60.54873289 -24.96182237     1     50    52    53    54
H 1262.09424792 -58.66029503 -25.86459047     6     51    0    0    0
H 1263.29733704 -61.56321181 -25.00664284     6     51    0    0    0
C 1259.55757471 -62.12035136 -26.26644483     2     51    55    56    57
H 1260.42640171 -62.41778318 -28.16184288     6     54    0    0    0
H 1259.53445064 -63.85843021 -25.18562795     6     54    0    0    0
C 1256.92682960 -60.76011282 -26.46762688     2     54    58   59   60
H 1257.47653361 -58.80642201 -26.40305125     6     57    0    0    0
H 1255.96252445 -60.95254974 -28.15729261     6     57    0    0    0
C 1255.09520338 -61.39307818 -24.24583304     2     57   61   62   63
H 1254.31414231 -63.16117319 -24.75737539     6    60    0    0    0
H 1256.24938786 -61.61340613 -22.46600273     6    60    0    0    0
C 1252.81059436 -59.51846658 -23.70032218     2    60   64   65   66
H 1253.39805398 -57.57158370 -23.26886449     6    63    0    0    0
H 1251.75382367 -59.33508292 -25.45250691     6    63    0    0    0
C 1251.20787016 -60.52279115 -21.48897675     2    63   67   68   69
H 1249.45747515 -59.40183762 -21.83307428     6    66    0    0    0
H 1250.76134819 -62.47095314 -21.57734281     6    66    0    0    0
C 1252.28915095 -60.13827283 -18.78782862     2    66   70   71   72
H 1254.16577945 -60.99562167 -18.80848425     6    69    0    0    0
H 1252.55470663 -58.14846652 -18.55200588     6    69    0    0    0
C 1250.69794283 -61.18110450 -16.71273672     2    69   73   74   75
H 1248.90885861 -60.14610845 -16.39743067     6    72    0    0    0
H 1250.10649383 -63.14246503 -17.18029915     6    72    0    0    0
C 1252.05718405 -61.09229732 -14.21461929     2    72   76   77   78
H 1253.72192821 -62.15861775 -14.52232071     6    75    0    0    0
H 1252.56509988 -59.19061978 -13.79893317     6    75    0    0    0
C 1250.49348906 -62.14997632 -11.99433595     2    75   79   80   81
H 1248.57959556 -61.41728116 -11.90659350     6    78    0    0    0
H 1250.03885965 -64.14355466 -12.40471149     6    78    0    0    0
C 1251.78942236 -62.22621304 -9.36283328     2    78   82   83   84
H 1252.85805681 -64.02660703 -9.22152354     6    81    0    0    0
H 1252.98505265 -60.53100042 -8.93310119     6    81    0    0    0
C 1249.92382805 -62.11519708 -7.18903434     1    81   85   86   87
H 1251.07391981 -62.59734735 -5.51839147     6    84    0    0    0
H 1248.51663858 -63.56843799 -7.23271070     6    84    0    0    0
H 1249.08255371 -60.32179170 -6.75945075     6    84    0    0    0
H 1238.76492832 -46.67743626 -50.11243123     6     89    0    0    0 
C 1239.90923767 -44.87913042 -50.21144879     1     88    90    91    92
H 1240.84250300 -44.74501231 -52.16784087     6     89    0    0    0
H 1238.96079156 -43.15878166 -49.85311768     6     89    0    0    0
C 1241.80249142 -45.02454701 -48.01649979     2     89    93    94    95
H 1243.25927370 -46.37830479 -48.22598632     6     92    0    0    0
H 1242.60156265 -43.17096603 -47.97207050     6     92    0    0    0
C 1240.59685726 -45.53586117 -45.50150319     2     92    96   97   98
H 1241.83142028 -44.82526760 -43.83895446     6     95    0    0    0
H 1238.80778631 -44.40227584 -45.36997087     6     95    0    0    0
C 1239.95180554 -48.48689109 -45.06783790     2     95   99   100   101
H 1238.74965750 -49.08300457 -46.71641625     6    98    0    0    0
H 1241.59975458 -49.69961419 -45.10581777     6    98    0    0    0
C 1238.49087722 -48.95022426 -42.60834590     2    98   102   103   104
H 1239.82026089 -48.33845656 -41.11358221     6    101    0    0    0
H 1236.90159880 -47.72066369 -42.48535853     6    101    0    0    0
C 1237.43143396 -51.62025207 -42.47329803     2    101   105   106   107
H 1236.08996855 -51.81612533 -44.10138527     6    104    0    0    0
H 1238.95656858 -53.02137643 -42.66680974     6    104    0    0    0
C 1235.90583666 -52.09410511 -40.06836339     2    104   108   109   110
H 1237.11273040 -51.61515918 -38.65690819     6    107    0    0    0
H 1234.34746107 -50.90081628 -39.90674737     6    107    0    0    0
C 1234.88047000 -54.81308527 -40.24318314     2    107   111   112   113
H 1233.78447543 -54.90119474 -41.85639829     6    110    0    0    0
H 1236.39077176 -56.12100163 -40.56322103     6    110    0    0    0
C 1233.34095018 -55.62926623 -38.04439088     2    110   114   115   116
H 1234.47322013 -55.64481531 -36.24119588     6    113    0    0    0
H 1231.80426529 -54.16040002 -37.74630066     6    113    0    0    0
C 1232.27911229 -58.22672382 -38.56670427     2    113   117   118   119
H 1230.85631887 -58.28887375 -40.08111822     6    116    0    0    0
H 1233.77054816 -59.28072318 -39.42477761     6    116    0    0    0
C 1231.32424742 -59.37915814 -36.02955859     2    116   120   121   122
H 1230.70995991 -61.35488401 -36.39037922     6    119    0    0    0
H 1233.01329703 -59.45544571 -34.86178717     6    119    0    0    0
C 1229.56106285 -57.66112934 -34.39792445     1    119   123   124   125
H 1228.43931827 -58.74406938 -33.04338873     6    122    0    0    0
H 1228.09570250 -56.64670280 -35.54280498     6    122    0    0    0
H 1230.72507754 -56.20715530 -33.64974859     6    122    0    0    0
H 1259.54470053 -45.19152829 -44.50393631     6     127    0    0    0 
C 1261.57772591 -45.24387381 -44.39175669     1     126    128    129    130
H 1262.44767409 -44.02277105 -45.88593418     6     127    0    0    0
H 1262.24338327 -44.47128455 -42.64934356     6     127    0    0    0
C 1262.38506139 -47.97281243 -44.74413767     2     127    131    132    133
H 1262.24666954 -49.06383517 -42.96206269     6     130    0    0    0
H 1261.04313792 -48.70613014 -46.23267165     6     130    0    0    0
C 1265.09494070 -48.05334428 -45.69478542     2     130    134   135   136
H 1265.54368665 -46.84950093 -47.39151341     6     133    0    0    0
H 1266.34389558 -47.57708910 -44.11318281     6     133    0    0    0
C 1265.71870281 -50.85835347 -46.49596346     2     133   137   138   139
H 1265.39453749 -52.00109169 -44.83748339     6    136    0    0    0
H 1264.24801206 -51.44369499 -47.87686591     6    136    0    0    0
C 1268.43714444 -50.96845153 -47.30491546     2    136   140   141   142
H 1268.65421231 -49.92047115 -49.11445648     6    139    0    0    0
H 1269.72013416 -50.30373455 -45.90137623     6    139    0    0    0
C 1269.25410008 -53.73731827 -47.87018385     2    139   143   144   145
H 1268.81372242 -54.93876777 -46.19867668     6    142    0    0    0
H 1268.42545346 -54.44949309 -49.67451073     6    142    0    0    0
C 1272.16529590 -53.77483685 -48.24823578     2    142   146   147   148
H 1272.69411873 -52.77162113 -50.00621697     6    145    0    0    0
H 1273.04530840 -52.65470666 -46.65378628     6    145    0    0    0
C 1273.21397306 -56.45227321 -48.14730064     2    145   149   150   151
H 1272.69013510 -57.17160604 -46.31561341     6    148    0    0    0
H 1272.22061118 -57.47768576 -49.58702233     6    148    0    0    0
C 1276.13051824 -56.67003777 -48.42802439     2    148   152   153   154
H 1276.78288181 -56.26367826 -50.37657887     6    151    0    0    0
H 1276.85369468 -55.12794372 -47.27689970     6    151    0    0    0
C 1277.04405061 -59.19636020 -47.61529037     2    151   155   156   157
H 1279.11423908 -59.04669382 -47.23450501     6    154    0    0    0
H 1276.27674692 -59.67534126 -45.81718511     6    154    0    0    0
C 1276.56101186 -61.24725283 -49.60539624     2    154   158   159   160
H 1274.74600145 -61.57065599 -50.38448653     6    157    0    0    0
H 1277.87317202 -60.80917637 -51.09176235     6    157    0    0    0
C 1277.58836756 -63.80638134 -48.79418437     1    157   161   162   163
H 1277.26486773 -65.32426781 -50.14985677     6    160    0    0    0
H 1276.76524164 -64.24347117 -46.95266021     6    160    0    0    0
H 1279.58796116 -63.73910002 -48.40552315     6    160    0    0    0
H 1236.37635621 -30.33415125 -39.85611083     6     165    0    0    0 
C 1238.13190573 -31.36840354 -40.05242951     1     164    166    167    168
H 1239.01814871 -31.57586555 -38.26884751     6     165    0    0    0
H 1237.85214444 -33.28397788 -40.72480720     6     165    0    0    0
C 1240.05518705 -29.71048638 -41.67276458     2     165    169    170    171
H 1239.45309425 -29.69290524 -43.60758846     6     168    0    0    0
H 1239.93596760 -27.82692944 -40.94497534     6     168    0    0    0
C 1242.74524489 -30.86665494 -41.23851713     2     168    172   173   174
H 1242.90836851 -31.60271993 -39.23212193     6     171    0    0    0
H 1243.13780294 -32.62685886 -42.23041270     6     171    0    0    0
C 1244.83801996 -28.89820882 -41.74962741     2     171   175   176   177
H 1244.85579573 -28.15273805 -43.51207589     6    174    0    0    0
H 1244.60941947 -27.30462407 -40.36691318     6    174    0    0    0
C 1247.41222317 -29.81167775 -41.26469168     2    174   178   179   180
H 1247.72757585 -30.78676739 -39.47000018     6    177    0    0    0
H 1247.85438292 -31.11298483 -42.74570700     6    177    0    0    0
C 1249.58549298 -27.78644678 -41.35521236     2    177   181   182   183
H 1249.35326742 -26.55044897 -43.08474304     6    180    0    0    0
H 1249.18196217 -26.43902364 -39.95806045     6    180    0    0    0
C 1252.37639178 -28.76424301 -41.15091738     2    180   184   185   186
H 1252.40019525 -30.06288200 -39.56568494     6    183    0    0    0
H 1252.76237628 -30.00394030 -42.86419861     6    183    0    0    0
C 1254.31418514 -26.62948663 -40.73599931     2    183   187   188   189
H 1254.22220415 -25.10683423 -42.12839146     6    186    0    0    0
H 1253.91098736 -25.55044781 -38.94980689     6    186    0    0    0
C 1256.88284825 -27.80925797 -40.65857236     2    186   190   191   192
H 1257.31120594 -29.05727603 -38.96432620     6    189    0    0    0
H 1257.11796363 -29.30277473 -42.09177887     6    189    0    0    0
C 1259.03211559 -25.80175821 -40.83779657     2    189   193   194   195
H 1258.83453598 -24.74114684 -42.69091982     6    192    0    0    0
H 1258.71862785 -24.40705826 -39.29874444     6    192    0    0    0
C 1261.80005331 -26.72707189 -41.03935839     2    192   196   197   198
H 1262.58800374 -27.69384332 -39.52201678     6    195    0    0    0
H 1261.82656881 -28.14375004 -42.51524147     6    195    0    0    0
C 1263.75317316 -24.71291930 -41.80366637     1    195   199   200   201
H 1265.44799492 -25.53071769 -42.62331371     6    198    0    0    0
H 1264.41501496 -23.79330939 -40.05025933     6    198    0    0    0
H 1262.95677711 -23.25337993 -43.10343210     6    198    0    0    0
H 1253.97811622 -33.04317834 -32.54707272     6     203    0    0    0 
C 1253.48417272 -31.23222212 -33.22603488     1     202    204    205    206
H 1254.68660709 -29.76767489 -32.43863232     6     203    0    0    0
H 1253.90747026 -31.45889502 -35.17887555     6     203    0    0    0
C 1250.66772964 -30.85197726 -32.69762438     2     203    207    208    209
H 1250.35053922 -28.70109939 -32.72633187     6     206    0    0    0
H 1249.45709953 -31.66017094 -34.11395548     6     206    0    0    0
C 1249.75065730 -31.65622563 -30.00310028     2     206    210   211   212
H 1247.81584077 -31.59578644 -29.61556478     6     209    0    0    0
H 1250.06643501 -33.73370978 -29.72519269     6     209    0    0    0
C 1251.06797300 -29.96690763 -28.04669255     2     209   213   214   215
H 1253.08686183 -30.26315655 -28.23657002     6    212    0    0    0
H 1250.64665475 -27.97348413 -28.65128310     6    212    0    0    0
C 1250.52838825 -30.19571764 -25.21881911     2    212   216   217   218
H 1248.52996660 -30.14813514 -24.62395442     6    215    0    0    0
H 1250.98443595 -32.14463033 -24.95090305     6    215    0    0    0
C 1252.44553943 -28.54258061 -23.68308116     2    215   219   220   221
H 1254.20402534 -28.27982710 -24.48539308     6    218    0    0    0
H 1251.86044534 -26.50712893 -23.57038991     6    218    0    0    0
C 1252.68256552 -29.62946533 -21.11647300     2    218   222   223   224
H 1250.81737410 -29.73617601 -20.39506133     6    221    0    0    0
H 1253.09859285 -31.65914707 -21.19251110     6    221    0    0    0
C 1254.45115060 -28.24300987 -19.24023825     2    221   225   226   227
H 1256.26388356 -28.24637695 -20.33632571     6    224    0    0    0
H 1254.00838544 -26.13142184 -18.98099787     6    224    0    0    0
C 1254.69695355 -29.83951461 -16.74126634     2    224   228   229   230
H 1252.80149350 -30.32101019 -16.07079282     6    227    0    0    0
H 1255.42144083 -31.76391686 -16.91381962     6    227    0    0    0
C 1256.37998351 -28.79752341 -14.60772126     2    227   231   232   233
H 1258.30268779 -28.72551205 -15.28385489     6    230    0    0    0
H 1255.84786761 -26.79151341 -14.21680296     6    230    0    0    0
C 1256.23275759 -30.27422174 -12.22144228     2    230   234   235   236
H 1254.21062348 -30.13850852 -11.61488330     6    233    0    0    0
H 1256.70591169 -32.23215168 -12.38309080     6    233    0    0    0
C 1257.75465747 -29.07204113 -10.14375534     1    233   237   238   239
H 1257.93633991 -30.37534307 -8.59468009     6    236    0    0    0
H 1257.16544714 -27.12369405 -9.61517131     6    236    0    0    0
H 1259.72602673 -28.62308648 -10.56912896     6    236    0    0    0
H 1244.91357040 -61.10055252 -14.48386445     6     241    0    0    0 
C 1243.92605043 -59.77822428 -15.66604289     1     240    242    243    244
H 1244.11737092 -58.07552218 -14.60522841     6     241    0    0    0
H 1245.10324027 -59.63390867 -17.26426439     6     241    0    0    0
C 1241.28638058 -60.65093042 -16.09227284     2     241    245    246    247
H 1240.50646780 -61.12795773 -14.34947058     6     244    0    0    0
H 1240.08287163 -59.02515354 -16.51510104     6     244    0    0    0
C 1240.99889484 -63.07239707 -17.78603704     2     244    248   249   250
H 1239.01979432 -63.65239342 -17.75287046     6     247    0    0    0
H 1241.20379427 -62.60878401 -19.76269302     6     247    0    0    0
C 1242.65698656 -65.21739555 -16.92225035     2     247   251   252   253
H 1244.55556497 -64.66591983 -17.54003041     6    250    0    0    0
H 1242.56028374 -65.20469514 -14.92610349     6    250    0    0    0
C 1241.73331493 -67.73514411 -18.01287393     2    250   254   255   256
H 1239.76370302 -67.99320672 -17.37633936     6    253    0    0    0
H 1241.88243609 -67.61690586 -20.01514489     6    253    0    0    0
C 1243.36513072 -69.89349865 -17.04969234     2    253   257   258   259
H 1242.62699694 -71.77661833 -17.70457555     6    256    0    0    0
H 1245.23067865 -69.82055550 -17.77742960     6    256    0    0    0
C 1243.74699310 -70.11137157 -14.15902353     2    256   260   261   262
H 1245.13127392 -68.70851092 -13.62323414     6    259    0    0    0
H 1241.98382924 -69.82113354 -13.09556501     6    259    0    0    0
C 1244.71699237 -72.54507023 -13.34735456     2    259   263   264   265
H 1243.28706422 -74.02384418 -13.50298545     6    262    0    0    0
H 1246.11746009 -73.06319218 -14.76029394     6    262    0    0    0
C 1245.68959545 -72.62765844 -10.55926705     2    262   266   267   268
H 1246.97460634 -71.13602454 -10.47212532     6    265    0    0    0
H 1244.01830278 -72.09272728 -9.25239713     6    265    0    0    0
C 1246.63172639 -75.23142073 -9.61637152     2    265   269   270   271
H 1245.15841279 -76.60024148 -9.87438229     6    268    0    0    0
H 1248.05251148 -75.68578440 -10.87039122     6    268    0    0    0
C 1247.51648012 -75.39078954 -6.98174575     2    268   272   273   274
H 1248.67006463 -73.81782037 -6.27281600     6    271    0    0    0
H 1245.68013463 -75.16150086 -6.01399920     6    271    0    0    0
C 1248.75418484 -77.78773906 -6.08478419     1    271   275   276   277
H 1247.57976779 -79.58229604 -6.04936139     6    274    0    0    0
H 1249.59510710 -77.57113705 -4.18342599     6    274    0    0    0
H 1250.30748759 -78.16784974 -7.49398825     6    274    0    0    0
H 1243.00740028 -37.61947811 -36.96721575     6     279    0    0    0 
C 1243.67149053 -36.59503619 -35.23558742     1     278    280    281    282
H 1245.24247284 -35.22311587 -35.63317195     6     279    0    0    0
H 1242.02020506 -35.78275261 -34.41635103     6     279    0    0    0
C 1244.32107635 -38.82852829 -33.52059180     2     279    283    284    285
H 1242.76213965 -40.08554017 -33.41469199     6     282    0    0    0
H 1246.05266940 -39.74090758 -33.88139526     6     282    0    0    0
C 1244.72207465 -37.78575523 -30.86009121     2     282    286   287   288
H 1246.37246193 -36.49235393 -30.80834676     6     285    0    0    0
H 1243.12221471 -36.66402106 -30.42268189     6     285    0    0    0
C 1245.22256151 -39.99240266 -29.14336761     2     285   289   290   291
H 1243.87585264 -41.54961432 -29.39930865     6    288    0    0    0
H 1247.06388489 -40.80207168 -29.58803230     6    288    0    0    0
C 1245.13265390 -39.01080816 -26.33986989     2    288   292   293   294
H 1246.59748001 -37.63094384 -26.00718127     6    291    0    0    0
H 1243.44859973 -37.93259057 -25.98501974     6    291    0    0    0
C 1245.55636208 -41.41877062 -24.67906076     2    291   295   296   297
H 1244.00973070 -42.96302343 -25.03493090     6    294    0    0    0
H 1247.32925760 -42.17215998 -25.21859068     6    294    0    0    0
C 1245.42849605 -40.90933266 -21.82803310     2    294   298   299   300
H 1246.87683805 -39.42320350 -21.35658607     6    297    0    0    0
H 1243.61588826 -40.16181689 -21.41019362     6    297    0    0    0
C 1245.70416370 -43.26190779 -20.31437681     2    297   301   302   303
H 1244.38436478 -44.58479823 -20.98239261     6    300    0    0    0
H 1247.63766593 -43.92403132 -20.85534868     6    300    0    0    0
C 1245.63516699 -42.79714596 -17.50647059     2    300   304   305   306
H 1247.21992013 -41.60559240 -17.07115604     6    303    0    0    0
H 1243.96408928 -41.58618633 -17.04651939     6    303    0    0    0
C 1245.67184854 -45.15998483 -15.83516924     2    303   307   308   309
H 1244.09251367 -46.51332165 -16.22118598     6    306    0    0    0
H 1247.36225006 -46.31045755 -16.47784867     6    306    0    0    0
C 1246.08397918 -44.78212286 -12.92577049     2    306   310   311   312
H 1247.92479937 -43.96710424 -12.66559357     6    309    0    0    0
H 1244.59748777 -43.48945950 -12.26497284     6    309    0    0    0
C 1245.89134545 -47.13727941 -11.34450584     1    309   313   314   315
H 1246.80621228 -48.68515461 -12.43856730     6    312    0    0    0
H 1243.95723426 -47.50575106 -10.74768726     6    312    0    0    0
H 1246.89198566 -47.04293050 -9.50512873     6    312    0    0    0
H 1252.09408209 -53.03249325 -36.79909794     6     317    0    0    0 
C 1254.05535008 -52.39206233 -36.46664055     1     316    318    319    320
H 1254.38080681 -50.52066292 -37.33596367     6     317    0    0    0
H 1254.26391103 -52.49516739 -34.45614558     6     317    0    0    0
C 1255.85324400 -54.52210732 -37.50568359     2     317    321    322    323
H 1257.72110376 -54.45462796 -36.60468548     6     320    0    0    0
H 1255.12249525 -56.33175398 -36.99338997     6     320    0    0    0
C 1256.34513757 -54.46945454 -40.31864959     2     320    324   325   326
H 1254.61205993 -55.20153709 -41.35861368     6     323    0    0    0
H 1256.50049325 -52.37392832 -40.69519508     6     323    0    0    0
C 1258.67821640 -56.16741917 -41.11689885     2     323   327   328   329
H 1260.29615945 -55.30024253 -40.44526656     6    326    0    0    0
H 1258.35061570 -57.99612686 -40.27995071     6    326    0    0    0
C 1258.79680956 -56.45768856 -43.96620305     2    326   330   331   332
H 1257.16122680 -57.23421578 -44.86325900     6    329    0    0    0
H 1259.22168241 -54.61243542 -44.74687182     6    329    0    0    0
C 1260.70610296 -58.52754766 -44.91551610     2    329   333   334   335
H 1260.00047110 -60.22123785 -44.10716212     6    332    0    0    0
H 1260.78161455 -58.36902107 -47.07739025     6    332    0    0    0
C 1263.42192334 -58.31883097 -43.78291018     2    332   336   337   338
H 1264.18571351 -56.66804657 -44.62997332     6    335    0    0    0
H 1263.38621474 -57.85129031 -41.66546650     6    335    0    0    0
C 1264.94915703 -60.71476151 -44.37210415     2    335   339   340   341
H 1263.99819862 -62.01190483 -42.97074893     6    338    0    0    0
H 1264.41470140 -61.20649682 -46.35141942     6    338    0    0    0
C 1267.77380202 -60.39702550 -43.81709107     2    338   342   343   344
H 1268.59359210 -58.87527840 -44.91449302     6    341    0    0    0
H 1267.89455762 -59.58108649 -42.01764637     6    341    0    0    0
C 1269.40105022 -62.77893358 -44.08701516     2    341   345   346   347
H 1271.39860320 -62.36504612 -44.05292301     6    344    0    0    0
H 1269.38386500 -64.05582394 -42.40442779     6    344    0    0    0
C 1268.83004361 -64.48121594 -46.40164146     2    344   348   349   350
H 1267.13829251 -65.55871420 -46.08150495     6    347    0    0    0
H 1268.53940808 -63.53458491 -48.19136876     6    347    0    0    0
C 1270.83115699 -66.54051829 -46.53292148     1    347   351   352   353
H 1269.94069321 -68.17464453 -47.47739775     6    350    0    0    0
H 1271.32191771 -67.34582816 -44.57301861     6    350    0    0    0
H 1272.63103110 -65.99592707 -47.31040667     6    350    0    0    0
H 1242.60666698 -50.55756742 -23.99737538     6     355    0    0    0 
C 1241.93600897 -49.51825335 -25.58211810     1     354    356    357    358
H 1239.99074526 -50.13318388 -25.61129687     6     355    0    0    0
H 1241.76100843 -47.49816747 -24.90879670     6     355    0    0    0
C 1243.58985402 -50.23091790 -27.88975564     2     355    359    360    361
H 1245.47935978 -49.46241986 -27.30105758     6     358    0    0    0
H 1243.96523175 -52.22302779 -28.32704341     6     358    0    0    0
C 1243.00359045 -48.91963000 -30.45952751     2     358    362   363   364
H 1241.10135792 -49.17897600 -31.15354744     6     361    0    0    0
H 1243.26414415 -46.95141240 -30.01088476     6     361    0    0    0
C 1244.92306546 -49.45128524 -32.40925613     2     361   365   366   367
H 1246.84409363 -49.06422643 -31.73739875     6    364    0    0    0
H 1244.81947851 -51.44954809 -32.76122415     6    364    0    0    0
C 1244.54013288 -47.87853246 -34.86183232     2    364   368   369   370
H 1242.65437577 -48.02565180 -35.60664094     6    367    0    0    0
H 1244.61336134 -45.88512870 -34.42240073     6    367    0    0    0
C 1246.70662809 -48.31815667 -36.81704155     2    367   371   372   373
H 1248.46672930 -47.96127316 -35.99280444     6    370    0    0    0
H 1246.79084513 -50.26933195 -37.19586282     6    370    0    0    0
C 1246.39974897 -46.99813746 -39.36190517     2    370   374   375   376
H 1244.64609083 -47.67872639 -40.31735168     6    373    0    0    0
H 1246.14020117 -45.14757690 -38.86732383     6    373    0    0    0
C 1248.70244927 -47.37056897 -41.21720479     2    373   377   378   379
H 1250.22976083 -46.36276265 -40.57613657     6    376    0    0    0
H 1249.38887900 -49.32303119 -41.14790410     6    376    0    0    0
C 1247.98417827 -46.68033326 -43.86797842     2    376   380   381   382
H 1246.40067671 -47.76671130 -44.67727263     6    379    0    0    0
H 1247.62524772 -44.61802066 -44.25733609     6    379    0    0    0
C 1250.13967580 -47.59277860 -45.61186313     2    379   383   384   385
H 1251.96158284 -46.91231382 -44.90255832     6    382    0    0    0
H 1250.48435962 -49.59444029 -45.71791882     6    382    0    0    0
C 1249.81972832 -46.73289388 -48.51371161     2    382   386   387   388
H 1251.41473213 -47.48208989 -49.53546094     6    385    0    0    0
H 1248.19824340 -47.80610493 -49.25907190     6    385    0    0    0
C 1249.49436494 -43.90698690 -49.07905362     1    385   389   390   391
H 1251.15278650 -42.82864222 -48.45620378     6    388    0    0    0
H 1247.79594182 -43.29792979 -48.18406261     6    388    0    0    0
H 1249.36532826 -43.80500158 -51.21802812     6    388    0    0    0
H 1282.71745441 -77.85179582 -34.83836663     6     393    0    0    0 
C 1282.24541548 -79.58412058 -33.83070283     1     392    394    395    396
H 1281.40348570 -80.83282067 -35.33546317     6     393    0    0    0
H 1284.04868880 -80.24607538 -32.89112475     6     393    0    0    0
C 1280.15735847 -79.21015092 -31.98211583     2     393    397    398    399
H 1278.71554123 -78.18080743 -33.04167835     6     396    0    0    0
H 1279.47587695 -81.12792263 -31.45935006     6     396    0    0    0
C 1280.57249135 -77.88766413 -29.53457286     2     396    400   401   402
H 1281.98268307 -78.90054881 -28.34484025     6     399    0    0    0
H 1281.26752175 -76.12271412 -30.10184413     6     399    0    0    0
C 1278.18359525 -77.82175189 -27.90508370     2     399   403   404   405
H 1276.46730133 -77.20130133 -28.86425419     6    402    0    0    0
H 1277.89935332 -79.63514458 -26.99289200     6    402    0    0    0
C 1278.68781408 -75.94112794 -25.63771772     2    402   406   407   408
H 1280.43644297 -76.34640351 -24.74479934     6    405    0    0    0
H 1278.78541851 -73.95897992 -26.26911391     6    405    0    0    0
C 1276.51015441 -76.22187294 -23.69632501     2    405   409   410   411
H 1274.63329693 -76.14181635 -24.55916023     6    408    0    0    0
H 1276.57082572 -78.12360907 -22.75725658     6    408    0    0    0
C 1276.73282719 -74.08954400 -21.74242286     2    408   412   413   414
H 1278.59480000 -74.15651023 -20.73027766     6    411    0    0    0
H 1276.80597878 -72.31399997 -22.79307886     6    411    0    0    0
C 1274.31694441 -74.02502115 -19.95612915     2    411   415   416   417
H 1272.62488680 -73.96903990 -21.03525653     6    414    0    0    0
H 1274.18216684 -75.67256684 -18.83476954     6    414    0    0    0
C 1274.33187852 -71.68605163 -18.14609264     2    414   418   419   420
H 1275.87485844 -71.74998313 -16.72166021     6    417    0    0    0
H 1274.86999483 -70.09658440 -19.24615640     6    417    0    0    0
C 1271.74183484 -71.26847271 -16.68371705     2    417   421   422   423
H 1270.31693210 -70.91333987 -18.16445309     6    420    0    0    0
H 1271.26380108 -72.99156818 -15.80966328     6    420    0    0    0
C 1271.67507654 -69.12498422 -14.83267740     2    420   424   425   426
H 1269.85083728 -68.79001330 -13.99275599     6    423    0    0    0
H 1272.67748985 -69.53671648 -13.14801320     6    423    0    0    0
C 1272.57170711 -66.62346588 -16.12996874     1    423   427   428   429
H 1272.58231823 -64.95302230 -15.00305407     6    426    0    0    0
H 1271.37143579 -66.10791692 -17.71128231     6    426    0    0    0
H 1274.51942502 -66.73792832 -16.72717926     6    426    0    0    0
H 1255.20622383 -78.75588906 -25.00616528     6     431    0    0    0 
C 1254.91940342 -77.90032643 -26.97658355     1     430    432    433    434
H 1254.06059557 -79.19491277 -28.28873845     6     431    0    0    0
H 1253.75719528 -76.25048968 -27.05147171     6     431    0    0    0
C 1257.54220406 -77.20728413 -27.99702528     2     431    435    436    437
H 1258.36244640 -75.70034396 -26.91254988     6     434    0    0    0
H 1258.95535993 -78.66597537 -27.58742903     6     434    0    0    0
C 1257.60088759 -76.31783170 -30.83828790     2     434    438   439   440
H 1256.39653128 -77.54085619 -32.09448654     6     437    0    0    0
H 1256.61516183 -74.51370323 -30.80956302     6     437    0    0    0
C 1260.23381630 -76.31606065 -32.07597032     2     437   441   442   443
H 1260.10928119 -75.22222779 -33.74456870     6    440    0    0    0
H 1261.39864737 -75.32904490 -30.75908783     6    440    0    0    0
C 1261.00355599 -78.98459953 -32.89165446     2    440   444   445   446
H 1261.24964253 -80.16446961 -31.24350962     6    443    0    0    0
H 1259.43265386 -79.79403100 -33.96178664     6    443    0    0    0
C 1263.56047537 -79.06402926 -34.17643315     2    443   447   448   449
H 1263.38465416 -77.72328711 -35.73934937     6    446    0    0    0
H 1265.03509828 -78.43906142 -33.02899458     6    446    0    0    0
C 1264.03012055 -81.70409055 -35.35794271     2    446   450   451   452
H 1263.90170772 -83.13152392 -33.90648795     6    449    0    0    0
H 1262.59595397 -82.13302972 -36.83209897     6    449    0    0    0
C 1266.83258134 -81.88685903 -36.57962497     2    449   453   454   455
H 1266.94709333 -80.30861742 -37.96988156     6    452    0    0    0
H 1268.21548861 -81.51266360 -35.04538959     6    452    0    0    0
C 1267.41839513 -84.45946122 -37.85211296     2    452   456   457   458
H 1266.84817313 -86.43311776 -37.02083485     6    455    0    0    0
H 1265.99409898 -84.23698005 -39.41155725     6    455    0    0    0
C 1270.23738428 -84.76923334 -38.78154687     2    455   459   460   461
H 1270.28528984 -86.19471963 -40.31773242     6    458    0    0    0
H 1271.01156758 -83.10076924 -39.65848512     6    458    0    0    0
C 1272.11930763 -85.69119199 -36.72304872     2    458   462   463   464
H 1271.72637758 -84.72043667 -34.91214047     6    461    0    0    0
H 1271.61612846 -87.66190337 -36.48721407     6    461    0    0    0
C 1274.82441042 -85.39302217 -37.38436849     1    461   465   466   467
H 1275.53808227 -83.47068131 -37.58558873     6    464    0    0    0
H 1275.22968427 -86.67195287 -39.09816736     6    464    0    0    0
H 1276.07070642 -86.27632668 -35.98586917     6    464    0    0    0
H 1236.93242100 -37.41894136 -39.70964325     6     469    0    0    0 
C 1236.88310076 -38.86796468 -41.16380519     1     468    470    471    472
H 1234.85154730 -39.65676700 -41.05001316     6     469    0    0    0
H 1237.25909515 -37.83095798 -43.02394869     6     469    0    0    0
C 1238.94225641 -40.83654840 -40.57697426     2     469    473    474    475
H 1238.63468505 -42.50775540 -41.76862166     6     472    0    0    0
H 1240.70007893 -39.86365044 -40.98965742     6     472    0    0    0
C 1238.68477524 -41.70196944 -37.81530794     2     472    476   477   478
H 1240.60086632 -42.12661681 -37.28601173     6     475    0    0    0
H 1238.34609693 -40.12527241 -36.43988580     6     475    0    0    0
C 1236.93231535 -43.95614121 -37.23922899     2     475   479   480   481
H 1235.22284995 -43.19337951 -37.74323221     6    478    0    0    0
H 1237.17546739 -45.65406897 -38.37808471     6    478    0    0    0
C 1237.23891238 -44.48494062 -34.38862720     2    478   482   483   484
H 1239.09368435 -45.17864091 -33.86864156     6    481    0    0    0
H 1236.59945377 -42.79125455 -33.42407830     6    481    0    0    0
C 1235.42048894 -46.70340249 -33.88314758     2    481   485   486   487
H 1233.55691182 -46.40860109 -34.60107029     6    484    0    0    0
H 1236.03788759 -48.34368004 -34.77575713     6    484    0    0    0
C 1235.22923578 -47.42681945 -31.11566096     2    484   488   489   490
H 1237.21218331 -47.53223049 -30.49886654     6    487    0    0    0
H 1234.35215944 -45.81140004 -30.16064872     6    487    0    0    0
C 1234.09679624 -50.04035660 -30.57794221     2    487   491   492   493
H 1232.39509450 -50.57012333 -31.53453458     6    490    0    0    0
H 1235.20132156 -51.57932561 -31.33366833     6    490    0    0    0
C 1233.73316931 -50.11065143 -27.68601511     2    490   494   495   496
H 1235.43039403 -50.86983614 -26.76037264     6    493    0    0    0
H 1233.67346923 -48.08227376 -27.02149370     6    493    0    0    0
C 1231.32354519 -51.21112143 -26.55210890     2    493   497   498   499
H 1229.63499539 -50.11165239 -27.08924260     6    496    0    0    0
H 1230.99401242 -53.07271839 -27.38064435     6    496    0    0    0
C 1231.33799515 -51.10989137 -23.68742999     2    496   500   501   502
H 1232.91158864 -52.28792052 -22.86737524     6    499    0    0    0
H 1231.90293589 -49.36723479 -22.89541427     6    499    0    0    0
C 1228.85295152 -51.79668419 -22.42383445     1    499   503   504   505
H 1229.21116247 -52.08690145 -20.44286872     6    502    0    0    0
H 1228.00141798 -53.60809445 -22.98332078     6    502    0    0    0
H 1227.52188086 -50.25136058 -22.66340510     6    502    0    0    0
H 1248.60811179 -85.19005738 -13.44342196     6     507    0    0    0 
C 1249.63736706 -84.13850042 -12.06305453     1     506    508    509    510
H 1248.13229644 -83.75484794 -10.81991280     6     507    0    0    0
H 1251.18279525 -85.36314159 -11.30717398     6     507    0    0    0
C 1250.45773319 -81.70699009 -13.38339679     2     507    511    512    513
H 1248.91316279 -81.04303361 -14.59722494     6     510    0    0    0
H 1250.71904773 -80.31140871 -11.98962472     6     510    0    0    0
C 1252.68949923 -82.01715037 -15.06927203     2     510    514   515   516
H 1254.25800201 -82.91578775 -13.92522113     6     513    0    0    0
H 1252.39147512 -83.57161406 -16.48184424     6     513    0    0    0
C 1253.74278975 -79.65771154 -16.33904426     2     513   517   518   519
H 1252.56331742 -79.05142795 -18.00712873     6    516    0    0    0
H 1253.74490901 -78.01704948 -14.95272313     6    516    0    0    0
C 1256.48524351 -79.98106655 -17.20861765     2    516   520   521   522
H 1257.80771576 -80.14258298 -15.69234894     6    519    0    0    0
H 1256.95740486 -81.72784121 -18.22773712     6    519    0    0    0
C 1257.44585675 -77.95822204 -19.14724118     2    519   523   524   525
H 1256.25953229 -78.06466426 -20.70682290     6    522    0    0    0
H 1257.17143041 -75.96375480 -18.46368637     6    522    0    0    0
C 1260.12639549 -78.53090626 -19.90298283     2    522   526   527   528
H 1261.35739334 -78.49365427 -18.19733567     6    525    0    0    0
H 1260.18777573 -80.37126003 -20.65992021     6    525    0    0    0
C 1261.06235089 -76.74364231 -22.02209438     2    525   529   530   531
H 1259.77447207 -76.52195868 -23.74094683     6    528    0    0    0
H 1261.51041169 -74.83556569 -21.36392193     6    528    0    0    0
C 1263.69950070 -77.77486222 -23.13762230     2    528   532   533   534
H 1265.07808123 -77.44095586 -21.59253500     6    531    0    0    0
H 1263.54549761 -79.79581288 -23.27968021     6    531    0    0    0
C 1264.61438637 -76.12228195 -25.46750394     2    531   535   536   537
H 1263.65594942 -76.38000052 -27.28399064     6    534    0    0    0
H 1264.30927032 -74.06622134 -25.23076205     6    534    0    0    0
C 1267.35483992 -76.82251726 -25.94187972     2    534   538   539   540
H 1268.07323085 -75.22955996 -27.10573127     6    537    0    0    0
H 1268.50550052 -76.96572267 -24.26875440     6    537    0    0    0
C 1267.45585668 -79.38660123 -27.24449373     1    537   541   542   543
H 1269.03718385 -79.44618013 -28.52857669     6    540    0    0    0
H 1265.79521548 -80.11663518 -28.20784817     6    540    0    0    0
H 1267.76169235 -80.78494890 -25.75598061     6    540    0    0    0
H 1270.56133387 -65.20459727 -38.44023222     6     545    0    0    0 
C 1272.41383885 -65.42398033 -37.60877121     1     544    546    547    548
H 1272.22738235 -64.57316090 -35.76840768     6     545    0    0    0
H 1272.64455891 -67.46041137 -37.38746310     6     545    0    0    0
C 1274.66103690 -64.40446752 -39.10831080     2     545    549    550    551
H 1274.83848710 -65.36107181 -40.83841382     6     548    0    0    0
H 1274.16447037 -62.43953921 -39.57187499     6     548    0    0    0
C 1277.05310195 -64.68593048 -37.53603664     2     548    552   553   554
H 1276.63536588 -63.93375528 -35.69175544     6     551    0    0    0
H 1277.38658788 -66.82986371 -37.54781737     6     551    0    0    0
C 1279.33056722 -63.11636870 -38.43416075     2     551   555   556   557
H 1279.07229521 -61.17074962 -38.23195886     6    554    0    0    0
H 1280.88688087 -63.43965670 -37.20218967     6    554    0    0    0
C 1280.12287629 -63.72527395 -41.13630275     2    554   558   559   560
H 1281.17748427 -65.58001624 -40.92090028     6    557    0    0    0
H 1278.47227143 -64.17210153 -42.34168477     6    557    0    0    0
C 1281.80082126 -61.72227156 -42.40437413     2    557   561   562   563
H 1282.66609394 -62.65589484 -44.06695663     6    560    0    0    0
H 1280.55358661 -60.38517448 -43.28028872     6    560    0    0    0
C 1284.06047374 -60.74682880 -40.81619830     2    560   564   565   566
H 1283.10721118 -59.96881065 -39.19724297     6    563    0    0    0
H 1285.01573017 -62.41597769 -40.18013888     6    563    0    0    0
C 1286.06777242 -59.04239450 -42.18811841     2    563   567   568   569
H 1286.90639618 -59.95934931 -43.77737971     6    566    0    0    0
H 1285.08569349 -57.39436554 -42.97017946     6    566    0    0    0
C 1288.21317572 -58.11885746 -40.35655722     2    566   570   571   572
H 1287.72814936 -56.90220667 -38.71161591     6    569    0    0    0
H 1289.16229618 -59.74267317 -39.48586466     6    569    0    0    0
C 1290.23789328 -56.55350637 -41.73194524     2    569   573   574   575
H 1292.07923064 -57.41983148 -41.94861474     6    572    0    0    0
H 1289.61968059 -56.24414208 -43.63260803     6    572    0    0    0
C 1290.86932037 -54.03685049 -40.46108658     2    572   576   577   578
H 1290.93566390 -54.40173271 -38.44833182     6    575    0    0    0
H 1292.77730578 -53.65135778 -41.33780889     6    575    0    0    0
C 1289.16370243 -51.92712999 -41.29133011     1    575   579   580   581
H 1288.78190187 -51.88001560 -43.33748594     6    578    0    0    0
H 1289.71878091 -50.07477988 -40.54884712     6    578    0    0    0
H 1287.19200623 -52.02450754 -40.36616591     6    578    0    0    0
H 1248.67526363 -35.51626566 -38.43051884     6     583    0    0    0 
C 1250.78363126 -35.66731503 -38.05739952     1     582    584    585    586
H 1251.49956690 -34.06865572 -37.09615024     6     583    0    0    0
H 1251.16099145 -37.34431398 -36.96939201     6     583    0    0    0
C 1251.99218320 -35.78291379 -40.65386983     2     583    587    588    589
H 1251.09814566 -37.36272273 -41.70948345     6     586    0    0    0
H 1251.41069959 -34.10012639 -41.65218716     6     586    0    0    0
C 1254.81859737 -36.07566313 -40.44667282     2     586    590   591   592
H 1255.81311877 -34.41648952 -39.64998158     6     589    0    0    0
H 1255.21332346 -37.74426878 -39.29501098     6     589    0    0    0
C 1256.08621211 -36.29635181 -43.15875532     2     589   593   594   595
H 1255.22978111 -37.74079754 -44.41201981     6    592    0    0    0
H 1256.44655274 -34.54179062 -44.14926406     6    592    0    0    0
C 1258.93866657 -37.18257722 -42.66602227     2    592   596   597   598
H 1259.93907189 -35.64262925 -41.93783790     6    595    0    0    0
H 1259.07738315 -38.66945970 -41.31598746     6    595    0    0    0
C 1260.40084412 -37.79179429 -45.21978512     2    595   599   600   601
H 1260.74229206 -39.84023571 -45.11039342     6    598    0    0    0
H 1259.23822890 -37.40652198 -46.84768363     6    598    0    0    0
C 1262.96520036 -36.47624411 -45.22174761     2    598   602   603   604
H 1262.78246145 -34.50668184 -44.94386817     6    601    0    0    0
H 1264.01445339 -36.73139017 -43.51055396     6    601    0    0    0
C 1264.60777129 -36.99063142 -47.54545103     2    601   605   606   607
H 1264.91532989 -39.11173895 -47.35335582     6    604    0    0    0
H 1263.74017459 -36.52160204 -49.31690869     6    604    0    0    0
C 1267.12875795 -35.68117205 -47.32659832     2    604   608   609   610
H 1267.45568511 -35.01000518 -45.33666128     6    607    0    0    0
H 1268.87499901 -36.84734114 -47.68063597     6    607    0    0    0
C 1267.33295000 -33.26204844 -48.80328045     2    607   611   612   613
H 1267.12711502 -33.47568326 -50.82046821     6    610    0    0    0
H 1266.04384937 -31.84130924 -48.27332394     6    610    0    0    0
C 1269.97472080 -32.03380194 -48.55981369     2    610   614   615   616
H 1270.94486136 -32.40293832 -46.87323484     6    613    0    0    0
H 1271.01368480 -32.90873844 -50.00618720     6    613    0    0    0
C 1269.68308013 -29.10633807 -48.87046076     1    613   617   618   619
H 1271.57138129 -28.38477531 -48.81940166     6    616    0    0    0
H 1268.69680341 -28.22483910 -47.28925658     6    616    0    0    0
H 1268.91565418 -28.32132204 -50.61727654     6    616    0    0    0
H 1281.77441958 -44.91045449 -15.51015222     6     621    0    0    0 
C 1281.16905979 -46.79299101 -14.89709675     1     620    622    623    624
H 1280.69092642 -48.10865966 -16.45825170     6     621    0    0    0
H 1282.75541308 -47.74684325 -14.00689258     6     621    0    0    0
C 1278.70342587 -46.61045437 -13.36969198     2     621    625    626    627
H 1278.02104475 -48.48083008 -12.74407870     6     624    0    0    0
H 1279.10822672 -45.31213948 -11.87655261     6     624    0    0    0
C 1276.62686327 -45.39117565 -15.06758601     2     624    628   629   630
H 1277.14254851 -43.47453191 -15.28905695     6     627    0    0    0
H 1276.68241222 -46.29225443 -16.89418434     6     627    0    0    0
C 1274.03169431 -45.44477216 -13.87133466     2     627   631   632   633
H 1272.50973359 -44.71369339 -15.22459143     6    630    0    0    0
H 1273.40085339 -47.37138719 -13.55999280     6    630    0    0    0
C 1273.70901816 -43.80758230 -11.55872613     2    630   634   635   636
H 1274.84225840 -44.56950577 -10.06313644     6    633    0    0    0
H 1274.40614137 -41.83039706 -11.94379341     6    633    0    0    0
C 1270.95110042 -43.59045235 -10.63206250     2    633   637   638   639
H 1269.88384103 -42.53037008 -12.00677632     6    636    0    0    0
H 1269.99456040 -45.46507634 -10.41839158     6    636    0    0    0
C 1270.71988411 -42.06887822 -8.13255294     2    636   640   641   642
H 1272.08667619 -42.79327602 -6.61052330     6    639    0    0    0
H 1271.23716546 -40.07495873 -8.53837038     6    639    0    0    0
C 1268.00145468 -42.30860078 -7.17645359     2    639   643   644   645
H 1266.77364851 -41.95177740 -8.83817454     6    642    0    0    0
H 1267.88562787 -44.31305742 -6.56320784     6    642    0    0    0
C 1267.26282335 -40.53646191 -5.00620288     2    642   646   647   648
H 1265.31678286 -40.95125700 -4.21171559     6    645    0    0    0
H 1268.70687103 -40.99464087 -3.59525891     6    645    0    0    0
C 1267.61940433 -37.64189170 -5.29983810     2    645   649   650   651
H 1267.24965426 -36.59487934 -3.53739182     6    648    0    0    0
H 1269.57545737 -37.07771094 -5.83394998     6    648    0    0    0
C 1265.88431167 -36.40076879 -7.17176876     2    648   652   653   654
H 1266.37617874 -37.03989158 -9.17539791     6    651    0    0    0
H 1263.97204353 -37.00074864 -6.62827704     6    651    0    0    0
C 1266.19332692 -33.50480172 -6.78220431     1    651   655   656   657
H 1268.15109795 -32.97907264 -7.33152604     6    654    0    0    0
H 1265.70507459 -33.17225250 -4.70407826     6    654    0    0    0
H 1264.86457701 -32.37419537 -7.87126930     6    654    0    0    0
H 1263.86829938 -39.37504571 -31.89933415     6     659    0    0    0 
C 1262.62718940 -40.01206405 -33.42072828     1     658    660    661    662
H 1263.12500022 -41.86754116 -34.03476373     6     659    0    0    0
H 1260.77462120 -40.28942239 -32.37550972     6     659    0    0    0
C 1262.50701394 -38.01792322 -35.54155123     2     659    663    664    665
H 1260.90463794 -38.61391389 -36.64453750     6     662    0    0    0
H 1262.05255479 -36.12764842 -34.73941944     6     662    0    0    0
C 1264.87407770 -37.77551074 -37.15786250     2     662    666   667   668
H 1264.42123992 -36.34053283 -38.37452320     6     665    0    0    0
H 1266.36869249 -37.22094481 -36.10338623     6     665    0    0    0
C 1265.44802829 -40.08255537 -38.76142064     2     665   669   670   671
H 1265.28101640 -41.90142120 -37.83282646     6    668    0    0    0
H 1264.01011724 -40.02535134 -40.13973202     6    668    0    0    0
C 1267.95226347 -40.06340800 -39.99067150     2    668   672   673   674
H 1268.59455713 -38.39871359 -40.96003725     6    671    0    0    0
H 1269.29212507 -40.52886203 -38.46511231     6    671    0    0    0
C 1268.04790053 -42.01675737 -42.12007519     2    671   675   676   677
H 1267.03927578 -43.57550093 -41.29243481     6    674    0    0    0
H 1266.80735877 -41.22328314 -43.55087211     6    674    0    0    0
C 1270.59523888 -42.97041848 -42.96430127     2    674   678   679   680
H 1270.46467982 -43.60207021 -44.92475112     6    677    0    0    0
H 1272.00429096 -41.48060916 -43.24904847     6    677    0    0    0
C 1271.82061465 -44.94626669 -41.21644035     2    677   681   682   683
H 1271.90622101 -44.09891082 -39.37769997     6    680    0    0    0
H 1270.64163384 -46.79515022 -41.11836450     6    680    0    0    0
C 1274.41439003 -45.88673444 -41.97020484     2    680   684   685   686
H 1275.51073561 -44.28382224 -41.63512394     6    683    0    0    0
H 1275.22588562 -47.16308335 -40.61114089     6    683    0    0    0
C 1274.33888952 -46.93121184 -44.70212654     2    683   687   688   689
H 1273.65845170 -48.88964380 -44.61725604     6    686    0    0    0
H 1273.51068211 -45.79141692 -46.41186115     6    686    0    0    0
C 1277.15695776 -47.42089142 -45.53704784     2    686   690   691   692
H 1278.08880321 -45.51140369 -45.57908448     6    689    0    0    0
H 1278.29139590 -48.50458906 -43.96349099     6    689    0    0    0
C 1277.49848279 -48.98176788 -47.97670258     1    689   693   694   695
H 1279.45970848 -48.93439806 -48.53737062     6    692    0    0    0
H 1276.41708910 -48.28552303 -49.49711065     6    692    0    0    0
H 1276.87869132 -50.86522003 -47.60163181     6    692    0    0    0
H 1293.12805908 -62.50909998 -43.43099860     6     697    0    0    0 
C 1294.27164249 -63.63409725 -42.16270145     1     696    698    699    700
H 1294.85768879 -65.24548972 -43.35471615     6     697    0    0    0
H 1295.88496838 -62.42905024 -41.97031852     6     697    0    0    0
C 1292.91981938 -64.58446401 -39.60715104     2     697    701    702    703
H 1294.05247707 -66.00489489 -38.61667045     6     700    0    0    0
H 1292.70338910 -63.09782410 -38.13883329     6     700    0    0    0
C 1290.41809453 -65.86353994 -39.97835969     2     700    704   705   706
H 1288.74511213 -64.84701930 -40.88078141     6     703    0    0    0
H 1290.87445433 -67.26478716 -41.31362466     6     703    0    0    0
C 1289.65027004 -67.22485426 -37.44386193     2     703   707   708   709
H 1291.25523569 -68.52275967 -37.19700082     6    706    0    0    0
H 1289.58913608 -65.87823832 -35.93979789     6    706    0    0    0
C 1287.24364023 -68.81067765 -37.67711852     2    706   710   711   712
H 1286.48431536 -69.02655295 -35.73710954     6    709    0    0    0
H 1285.67466008 -67.83529875 -38.66499183     6    709    0    0    0
C 1287.74662956 -71.39789221 -38.88726714     2    709   713   714   715
H 1289.06586098 -71.09539474 -40.48297691     6    712    0    0    0
H 1288.94442639 -72.31790953 -37.42997495     6    712    0    0    0
C 1285.38474369 -72.87735129 -39.67345236     2    712   716   717   718
H 1284.12405563 -72.49038994 -38.21745355     6    715    0    0    0
H 1284.54984236 -71.80708521 -41.35660087     6    715    0    0    0
C 1285.70982659 -75.68129966 -40.00532814     2    715   719   720   721
H 1287.47301166 -75.84946552 -41.23820073     6    718    0    0    0
H 1286.17865294 -76.43724618 -38.17275970     6    718    0    0    0
C 1283.45267083 -77.20555727 -41.07743724     2    718   722   723   724
H 1282.05517114 -77.14735734 -39.49121621     6    721    0    0    0
H 1282.84007801 -76.36477678 -42.81699195     6    721    0    0    0
C 1284.17719576 -80.02138490 -41.42498940     2    721   725   726   727
H 1285.85736288 -79.95700487 -42.62897899     6    724    0    0    0
H 1284.86915532 -80.81340409 -39.62171557     6    724    0    0    0
C 1281.92782562 -81.34708033 -42.72490093     2    724   728   729   730
H 1281.38592834 -80.43696824 -44.50969739     6    727    0    0    0
H 1282.43383236 -83.21158951 -43.44364529     6    727    0    0    0
C 1279.49031914 -81.44118307 -41.18856193     1    727   731   732   733
H 1277.97830315 -82.51674071 -42.26553604     6    730    0    0    0
H 1279.00353023 -79.37341886 -41.11345846     6    730    0    0    0
H 1279.79343405 -82.14578803 -39.24598516     6    730    0    0    0
H 1253.74197576 -59.65322254 -44.93076209     6     735    0    0    0 
C 1251.89359637 -59.65062842 -45.87844831     1     734    736    737    738
H 1252.26060272 -60.01011412 -47.77493799     6     735    0    0    0
H 1250.89430603 -61.38679799 -45.25156245     6     735    0    0    0
C 1250.09452372 -57.33651091 -45.57761881     2     735    739    740    741
H 1251.01375596 -55.56162131 -45.76293327     6     738    0    0    0
H 1248.53375970 -57.32969887 -46.95674841     6     738    0    0    0
C 1248.66649677 -57.49572334 -43.05881078     2     738    742   743   744
H 1247.63711227 -59.19299470 -42.77909864     6     741    0    0    0
H 1250.08318309 -57.48727492 -41.57688196     6     741    0    0    0
C 1247.01943091 -54.99831485 -42.91568416     2     741   745   746   747
H 1248.22699843 -53.42100105 -43.34764776     6    744    0    0    0
H 1245.50361974 -54.94508517 -44.26627841     6    744    0    0    0
C 1245.92182673 -54.42481567 -40.45172826     2    744   748   749   750
H 1247.56334323 -53.97987423 -39.20597734     6    747    0    0    0
H 1244.68561515 -52.79039401 -40.49862391     6    747    0    0    0
C 1244.75811125 -56.55902573 -39.05614963     2    747   751   752   753
H 1243.80075816 -57.35373656 -40.71207169     6    750    0    0    0
H 1245.94189882 -58.16355752 -38.49183054     6    750    0    0    0
C 1242.75545214 -55.63107844 -37.09412459     2    750   754   755   756
H 1243.56640470 -54.05068456 -36.04918371     6    753    0    0    0
H 1241.14004759 -54.88631743 -37.99683204     6    753    0    0    0
C 1241.79382595 -57.82973379 -35.47059526     2    753   757   758   759
H 1240.92976139 -59.07522472 -36.83525639     6    756    0    0    0
H 1243.25034629 -58.83006437 -34.34714263     6    756    0    0    0
C 1239.82669033 -57.11083807 -33.48189341     2    756   760   761   762
H 1240.74553747 -55.64349291 -32.30964338     6    759    0    0    0
H 1238.22236940 -56.23765902 -34.30759941     6    759    0    0    0
C 1238.97508216 -59.13794294 -31.59518610     2    759   763   764   765
H 1240.60184171 -59.74487260 -30.68355014     6    762    0    0    0
H 1237.54971211 -58.58422250 -30.15393758     6    762    0    0    0
C 1237.66437235 -61.30296640 -33.00886358     2    762   766   767   768
H 1236.86525927 -60.67811422 -34.65912731     6    765    0    0    0
H 1239.40887188 -62.48721165 -33.62393651     6    765    0    0    0
C 1235.91414837 -63.13199313 -31.42957521     1    765   769   770   771
H 1237.01371377 -64.29477271 -30.04633458     6    768    0    0    0
H 1235.03814079 -64.62461899 -32.60170374     6    768    0    0    0
H 1234.42592708 -62.21746806 -30.34790685     6    768    0    0    0
H 1269.04203205 -48.19437197 3.24973851     6     773    0    0    0 
C 1268.54521837 -47.08441545 1.75454406     1     772    774    775    776
H 1266.72827531 -47.80078888 1.04610665     6     773    0    0    0
H 1268.47476763 -45.12641032 2.37347731     6     773    0    0    0
C 1270.35776901 -47.57586425 -0.38313401     2     773    777    778    779
H 1269.79420790 -46.44690719 -1.99427931     6     776    0    0    0
H 1272.27472857 -46.86587433 -0.03315867     6     776    0    0    0
C 1270.09621286 -50.44112128 -0.73370075     2     776    780   781   782
H 1270.12651532 -51.52734667 1.06349931     6     779    0    0    0
H 1268.34680108 -51.04347577 -1.56301138     6     779    0    0    0
C 1271.97349175 -51.58336322 -2.49009711     2     779   783   784   785
H 1271.73809628 -50.61106355 -4.34869566     6    782    0    0    0
H 1273.84253105 -51.10549234 -1.80049819     6    782    0    0    0
C 1271.82515045 -54.47174300 -2.47246754     2    782   786   787   788
H 1272.33118862 -55.04430315 -0.58810480     6    785    0    0    0
H 1269.96287981 -54.98163872 -2.96487467     6    785    0    0    0
C 1273.66266489 -55.79568125 -4.36756498     2    785   789   790   791
H 1273.33296258 -55.10495248 -6.22289755     6    788    0    0    0
H 1275.49414517 -55.17143906 -3.68629203     6    788    0    0    0
C 1273.42120562 -58.70175204 -4.41804747     2    788   792   793   794
H 1273.49028822 -59.58332128 -2.53483539     6    791    0    0    0
H 1271.60022689 -59.28614032 -5.15043703     6    791    0    0    0
C 1275.44852387 -59.75042120 -6.43448377     2    791   795   796   797
H 1275.44888263 -58.38635013 -8.02919067     6    794    0    0    0
H 1277.39905096 -59.71037432 -5.70347319     6    794    0    0    0
C 1274.85103166 -62.43227444 -7.41345063     2    794   798   799   800
H 1274.99981311 -63.55702087 -5.71215566     6    797    0    0    0
H 1272.91704122 -62.66822373 -8.12666288     6    797    0    0    0
C 1276.90142303 -63.36178562 -9.30625042     2    797   801   802   803
H 1276.57148369 -62.28292687 -10.95970548     6    800    0    0    0
H 1278.76791212 -62.86551288 -8.61614205     6    800    0    0    0
C 1276.58210953 -66.23148675 -9.69798417     2    800   804   805   806
H 1276.43487985 -67.25453766 -7.89269118     6    803    0    0    0
H 1274.69812835 -66.46479552 -10.58068913     6    803    0    0    0
C 1278.63279035 -67.54332861 -11.25476510     1    803   807   808   809
H 1278.14785258 -69.60750726 -11.16710935     6    806    0    0    0
H 1280.45915103 -67.19010260 -10.44440050     6    806    0    0    0
H 1278.33967269 -66.83186060 -13.12630694     6    806    0    0    0
H 1251.87919431 -46.84975987 -33.14706104     6     811    0    0    0 
C 1251.26579291 -44.94606967 -32.38517543     1     810    812    813    814
H 1252.48880880 -43.50724210 -33.35209119     6     811    0    0    0
H 1249.38208166 -44.63790994 -32.97187610     6     811    0    0    0
C 1251.80239219 -44.88362762 -29.59596123     2     811    815    816    817
H 1253.73849472 -44.50412710 -29.10545546     6     814    0    0    0
H 1250.69265664 -43.30830711 -28.86411093     6     814    0    0    0
C 1250.79368949 -47.19567999 -28.24892144     2     814    818   819   820
H 1248.76243448 -47.06720675 -28.36607835     6     817    0    0    0
H 1250.99365991 -48.91852737 -29.36147843     6     817    0    0    0
C 1251.68558826 -47.58306940 -25.54341613     2     817   821   822   823
H 1253.56340732 -48.63237396 -25.71852134     6    820    0    0    0
H 1252.00161538 -45.75415324 -24.58876948     6    820    0    0    0
C 1249.91694421 -49.10248159 -23.77952805     2    820   824   825   826
H 1247.98676238 -48.35652771 -23.53051353     6    823    0    0    0
H 1250.03696599 -50.97504282 -24.58439128     6    823    0    0    0
C 1251.01321011 -49.33392468 -21.21427538     2    823   827   828   829
H 1252.92074046 -50.29984658 -21.57129811     6    826    0    0    0
H 1251.07169740 -47.47051924 -20.28258239     6    826    0    0    0
C 1249.47843222 -51.09150279 -19.50406346     2    826   830   831   832
H 1247.88932517 -49.98482616 -19.17862620     6    829    0    0    0
H 1248.83464657 -52.70107804 -20.73616335     6    829    0    0    0
C 1250.60329928 -51.77371489 -16.90914065     2    829   833   834   835
H 1252.51119196 -52.61491520 -17.11394126     6    832    0    0    0
H 1250.82791877 -49.97367739 -16.18835503     6    832    0    0    0
C 1249.20470788 -53.46993515 -15.00742752     2    832   836   837   838
H 1247.28056042 -52.78386557 -14.87254963     6    835    0    0    0
H 1249.55492127 -55.33009477 -15.59625091     6    835    0    0    0
C 1250.30167170 -53.28090598 -12.28979762     2    835   839   840   841
H 1252.10542985 -54.12126240 -12.31879483     6    838    0    0    0
H 1250.52630960 -51.47527833 -11.47831119     6    838    0    0    0
C 1248.82621418 -54.78144755 -10.33998565     2    838   842   843   844
H 1246.96275656 -53.81996177 -10.10968153     6    841    0    0    0
H 1248.45952772 -56.65842419 -11.02942555     6    841    0    0    0
C 1250.13435302 -54.97353987 -7.75730007     1    841   845   846   847
H 1251.96676877 -56.03116211 -7.89325540     6    844    0    0    0
H 1249.04165104 -56.01777392 -6.31061536     6    844    0    0    0
H 1250.70416216 -53.13715909 -7.05870199     6    844    0    0    0
H 1280.11201308 -37.00497539 -50.59588791     6     849    0    0    0 
C 1280.88284265 -38.82630707 -50.26525133     1     848    850    851    852
H 1280.16661138 -40.07754347 -51.70501760     6     849    0    0    0
H 1283.02947794 -38.61458824 -50.61509807     6     849    0    0    0
C 1280.13108083 -39.54024608 -47.64064539     2     849    853    854    855
H 1278.38620517 -40.67661183 -47.84447297     6     852    0    0    0
H 1281.57176359 -40.77727242 -46.83128442     6     852    0    0    0
C 1279.68453788 -37.37962938 -45.84072665     2     852    856   857   858
H 1281.31624700 -36.16507257 -45.71515235     6     855    0    0    0
H 1278.19662151 -36.18849204 -46.53595644     6     855    0    0    0
C 1279.21580522 -38.26721666 -43.23001288     2     855   859   860   861
H 1278.00834953 -39.92119922 -43.28078013     6    858    0    0    0
H 1281.03577246 -38.83346300 -42.30177820     6    858    0    0    0
C 1278.10540270 -36.20718028 -41.55776675     2    858   862   863   864
H 1278.94645902 -36.02585724 -39.68764913     6    861    0    0    0
H 1278.71220964 -34.46252702 -42.57029294     6    861    0    0    0
C 1275.32455538 -36.27668122 -41.28747330     2    861   865   866   867
H 1274.45990545 -36.36298698 -43.22209898     6    864    0    0    0
H 1274.65890154 -37.95750481 -40.42196749     6    864    0    0    0
C 1274.37203476 -34.02899502 -39.88550883     2    864   868   869   870
H 1275.18863682 -33.80580387 -38.10409366     6    867    0    0    0
H 1275.11176480 -32.50992826 -41.02416331     6    867    0    0    0
C 1271.41015438 -33.84674066 -39.70656080     2    867   871   872   873
H 1270.70085689 -34.05934044 -41.63927564     6    870    0    0    0
H 1270.89904649 -35.59840007 -38.71120086     6    870    0    0    0
C 1270.17766646 -31.55864881 -38.22594653     2    870   874   875   876
H 1268.04355303 -31.76175156 -38.06584713     6    873    0    0    0
H 1270.83914757 -31.57063357 -36.21936783     6    873    0    0    0
C 1270.44652273 -29.00093722 -39.60730054     2    873   877   878   879
H 1271.99516249 -28.99337040 -41.10436799     6    876    0    0    0
H 1269.13939094 -28.61503494 -40.97188111     6    876    0    0    0
C 1270.85978368 -26.91980384 -37.52928174     2    876   880   881   882
H 1269.18531466 -27.19586828 -36.27256811     6    879    0    0    0
H 1272.58713513 -27.17444915 -36.49184048     6    879    0    0    0
C 1270.58080117 -24.28044091 -38.84402252     1    879   883   884   885
H 1268.68603601 -24.01706155 -39.53225277     6    882    0    0    0
H 1271.70349128 -24.28125392 -40.59657008     6    882    0    0    0
H 1271.07473426 -22.60018243 -37.81028469     6    882    0    0    0
H 1262.57240299 -55.25832324 -17.14478371     6     887    0    0    0 
C 1261.36918214 -56.72138548 -18.12894033     1     886    888    889    890
H 1262.61018232 -57.52243356 -19.70311624     6     887    0    0    0
H 1261.02927941 -58.35427673 -16.91679952     6     887    0    0    0
C 1258.92565582 -55.61365985 -19.36651690     2     887    891    892    893
H 1258.13718656 -57.08322055 -20.80128536     6     890    0    0    0
H 1257.78713108 -55.66393295 -17.70298749     6     890    0    0    0
C 1259.27436869 -53.06108913 -20.71358286     2     890    894   895   896
H 1257.33886045 -52.19451094 -20.62437078     6     893    0    0    0
H 1260.65553250 -51.78962397 -19.81125134     6     893    0    0    0
C 1259.91009964 -53.50505894 -23.45433963     2     893   897   898   899
H 1261.92502281 -54.11755989 -23.60282289     6    896    0    0    0
H 1258.90447027 -54.98264129 -24.42705259     6    896    0    0    0
C 1259.59359560 -50.99644686 -24.83081396     2    896   900   901   902
H 1257.85474638 -50.21040780 -24.33777272     6    899    0    0    0
H 1260.99727421 -49.69090380 -24.14114644     6    899    0    0    0
C 1259.33341964 -51.16071772 -27.58768715     2    899   903   904   905
H 1260.90890864 -52.13342248 -28.52850876     6    902    0    0    0
H 1257.86199420 -52.42129713 -28.01575979     6    902    0    0    0
C 1259.07332255 -48.62968015 -28.72004004     2    902   906   907   908
H 1257.94995872 -47.42678984 -27.48944760     6    905    0    0    0
H 1260.95340405 -47.85923333 -28.77986193     6    905    0    0    0
C 1257.81938239 -48.55534990 -31.35430081     2    905   909   910   911
H 1258.11014905 -50.25482250 -32.55928492     6    908    0    0    0
H 1255.77881305 -48.65823601 -31.14943206     6    908    0    0    0
C 1258.40211239 -46.17627726 -32.82424437     2    908   912   913   914
H 1257.65321182 -44.53480747 -31.85344932     6    911    0    0    0
H 1260.43491930 -46.05901036 -32.79060023     6    911    0    0    0
C 1257.27900453 -46.30293511 -35.52907387     2    911   915   916   917
H 1257.70469324 -48.05416972 -36.51619732     6    914    0    0    0
H 1255.21927706 -46.33751881 -35.48204829     6    914    0    0    0
C 1258.26275987 -44.11691582 -37.24476336     2    914   918   919   920
H 1257.97225734 -42.39654379 -36.23792228     6    917    0    0    0
H 1260.28986424 -44.26500968 -37.56005653     6    917    0    0    0
C 1256.94089544 -44.03587466 -39.88586591     1    917   921   922   923
H 1254.85904501 -43.81264727 -39.89618859     6    920    0    0    0
H 1257.41175888 -45.86316150 -40.87351961     6    920    0    0    0
H 1257.83900948 -42.59702994 -40.99390579     6    920    0    0    0
H 1279.12468246 -29.41993544 -25.84771487     6     925    0    0    0 
C 1278.32728408 -30.33474319 -24.20325035     1     924    926    927    928
H 1279.75939297 -31.34399880 -23.10685689     6     925    0    0    0
H 1277.48281334 -28.92435233 -22.97926933     6     925    0    0    0
C 1276.20283654 -32.04158809 -24.94613993     2     925    929    930    931
H 1276.93835562 -33.39107360 -26.18424396     6     928    0    0    0
H 1275.46015577 -32.88980965 -23.15024609     6     928    0    0    0
C 1273.94840444 -30.86358155 -26.37891070     2     928    932   933   934
H 1273.13296571 -29.46365926 -25.22478114     6     931    0    0    0
H 1274.61792369 -29.77216863 -27.94815639     6     931    0    0    0
C 1271.82029653 -32.81841425 -27.19769934     2     931   935   936   937
H 1272.24876298 -34.17688643 -28.55786221     6    934    0    0    0
H 1271.18947352 -33.87251990 -25.59079727     6    934    0    0    0
C 1269.43216183 -31.61569437 -28.27598242     2    934   938   939   940
H 1269.05152517 -29.79417233 -27.39705405     6    937    0    0    0
H 1269.87602459 -31.02250179 -30.19064919     6    937    0    0    0
C 1267.04460724 -33.33594171 -28.50692997     2    937   941   942   943
H 1267.60248277 -35.16013610 -29.23105069     6    940    0    0    0
H 1266.31312018 -33.48986939 -26.65095387     6    940    0    0    0
C 1264.90073223 -32.34094993 -30.19265381     2    940   944   945   946
H 1265.66571886 -32.35129712 -32.08744784     6    943    0    0    0
H 1263.12193321 -33.47775742 -30.00947581     6    943    0    0    0
C 1264.29666221 -29.66499556 -29.49986555     2    943   947   948   949
H 1263.68087249 -29.70247955 -27.52397909     6    946    0    0    0
H 1265.73465340 -28.23961998 -29.53392444     6    946    0    0    0
C 1262.06501884 -28.57064434 -31.05184781     2    946   950   951   952
H 1262.69236146 -27.78671425 -32.98769007     6    949    0    0    0
H 1260.77695768 -30.22090697 -31.47575854     6    949    0    0    0
C 1260.63866155 -26.69753706 -29.53324279     2    949   953   954   955
H 1259.61548047 -27.56458688 -27.93042990     6    952    0    0    0
H 1261.84645257 -25.50686990 -28.48467452     6    952    0    0    0
C 1258.80337424 -24.99281713 -31.07377975     2    952   956   957   958
H 1259.77094868 -23.23703115 -31.78697575     6    955    0    0    0
H 1258.14040172 -26.10423872 -32.69161075     6    955    0    0    0
C 1256.48081884 -24.02619848 -29.51545261     1    955   959   960   961
H 1255.21162112 -22.85721743 -30.77657599     6    958    0    0    0
H 1257.22567663 -22.61421398 -28.31465058     6    958    0    0    0
H 1255.29513287 -25.32683269 -28.45602888     6    958    0    0    0
H 1256.94619985 -67.62636799 -33.02289007     6     963    0    0    0 
C 1257.09590343 -66.96173936 -30.97374817     1     962    964    965    966
H 1257.13570626 -64.99213746 -30.95929262     6     963    0    0    0
H 1255.45997624 -67.67953687 -30.03638852     6     963    0    0    0
C 1259.36488835 -68.28147907 -29.67874668     2     963    967    968    969
H 1259.76040500 -67.57618242 -27.89284546     6     966    0    0    0
H 1259.02892844 -70.24016489 -29.61793689     6     966    0    0    0
C 1261.95903513 -67.94579987 -31.09348130     2     966    970   971   972
H 1261.46795331 -68.35982829 -33.00361545     6     969    0    0    0
H 1262.48516154 -66.05732252 -30.75948603     6     969    0    0    0
C 1264.17557774 -69.64376305 -30.24833721     2     969   973   974   975
H 1265.37671836 -68.42485679 -29.21607028     6    972    0    0    0
H 1263.57835665 -71.13886086 -28.87216222     6    972    0    0    0
C 1265.51485421 -70.95266626 -32.50978205     2    972   976   977   978
H 1264.06953037 -71.96926567 -33.49750674     6    975    0    0    0
H 1266.49706627 -69.54618568 -33.75888446     6    975    0    0    0
C 1267.11085855 -73.20097554 -31.55301370     2    975   979   980   981
H 1268.44700763 -72.43955040 -30.20519214     6    978    0    0    0
H 1265.91956757 -74.61566420 -30.89752284     6    978    0    0    0
C 1268.74395707 -74.27511806 -33.65573522     2    978   982   983   984
H 1267.56433090 -74.95597781 -35.27370243     6    981    0    0    0
H 1269.79806489 -72.60965706 -34.25756194     6    981    0    0    0
C 1270.68376432 -76.00675261 -32.62577435     2    981   985   986   987
H 1271.59397158 -75.30933027 -30.87072811     6    984    0    0    0
H 1269.76451872 -77.69609992 -32.11377738     6    984    0    0    0
C 1272.64673765 -76.52300504 -34.51150721     2    984   988   989   990
H 1273.66408812 -78.36357766 -34.16968616     6    987    0    0    0
H 1271.66900925 -76.64458416 -36.38435500     6    987    0    0    0
C 1274.85963105 -74.70334211 -34.84205868     2    987   991   992   993
H 1274.44890604 -72.79241249 -34.33267625     6    990    0    0    0
H 1276.21610405 -75.05460713 -33.37580540     6    990    0    0    0
C 1276.35079683 -74.78196575 -37.38003184     2    990   994   995   996
H 1277.12694957 -76.63128362 -37.53797142     6    993    0    0    0
H 1275.17917480 -74.39867653 -39.08756133     6    993    0    0    0
C 1278.52468788 -72.97806373 -37.67450123     1    993   997   998   999
H 1277.80048477 -71.02772024 -37.38672852     6    996    0    0    0
H 1279.35211246 -73.07538533 -39.61830769     6    996    0    0    0
H 1280.01486748 -73.40252363 -36.16893745     6    996    0    0    0
H 1238.01066349 -70.92244063 -27.45821222     6     1001    0    0    0 
C 1239.82202049 -71.80898080 -27.17593908     1     1000    1002    1003    1004
H 1240.82055331 -71.02759156 -25.39873865     6     1001    0    0    0
H 1239.14580738 -73.48985695 -26.36516881     6     1001    0    0    0
C 1241.36144823 -72.17524864 -29.61139998     2     1001    1005    1006    1007
H 1240.46065870 -73.27045210 -31.16769197     6     1004    0    0    0
H 1241.80959981 -70.41496046 -30.37510221     6     1004    0    0    0
C 1243.79037829 -73.63775023 -28.85255634     2     1004    1008   1009   1010
H 1244.75707756 -72.81075603 -27.22988390     6     1007    0    0    0
H 1243.19883877 -75.47903750 -28.42474447     6     1007    0    0    0
C 1245.81442033 -74.16749634 -31.16329944     2     1007   1011   1012   1013
H 1244.90511324 -74.95262525 -32.79872840     6    1010    0    0    0
H 1246.35104942 -72.36109107 -31.84622512     6    1010    0    0    0
C 1248.14188960 -75.69611778 -30.54294914     2    1010   1014   1015   1016
H 1249.31673965 -74.79114332 -29.07232466     6    1013    0    0    0
H 1247.34086416 -77.46380875 -29.91426330     6    1013    0    0    0
C 1249.86763897 -76.27612045 -32.92722608     2    1013   1017   1018   1019
H 1251.44062835 -77.65995589 -32.67855724     6    1016    0    0    0
H 1248.72473607 -77.05815628 -34.53758037     6    1016    0    0    0
C 1251.23081538 -73.98942440 -34.26836201     2    1016   1020   1021   1022
H 1249.88544058 -72.59161662 -34.72011506     6    1019    0    0    0
H 1252.56987225 -73.08437519 -32.91647605     6    1019    0    0    0
C 1252.87209460 -74.79844229 -36.51360133     2    1019   1023   1024   1025
H 1253.75278673 -76.46854975 -36.01609952     6    1022    0    0    0
H 1251.55264049 -75.34728858 -37.85169456     6    1022    0    0    0
C 1254.87604842 -72.97848444 -37.44572819     2    1022   1026   1027   1028
H 1254.09656819 -71.10647336 -37.95916960     6    1025    0    0    0
H 1256.21486149 -72.59066136 -35.95592041     6    1025    0    0    0
C 1256.12436188 -74.09938807 -39.73043103     2    1025   1029   1030   1031
H 1256.59070277 -76.18089849 -39.24937550     6    1028    0    0    0
H 1254.95317570 -74.23027374 -41.26551760     6    1028    0    0    0
C 1258.47293661 -72.61206124 -40.67117395     2    1028   1032   1033   1034
H 1258.00215503 -70.58879095 -40.53784963     6    1031    0    0    0
H 1259.99940969 -72.85484885 -39.26402199     6    1031    0    0    0
C 1259.30086458 -73.52547317 -43.22992053     1    1031   1035   1036   1037
H 1261.18228094 -72.81875911 -43.60604252     6    1034    0    0    0
H 1258.04694168 -72.90336372 -44.71673261     6    1034    0    0    0
H 1259.42394165 -75.59795012 -43.37373694     6    1034    0    0    0
H 1270.22531949 -57.39856361 -13.05590716     6     1039    0    0    0 
C 1270.23218562 -56.35722297 -11.31305610     1     1038    1040    1041    1042
H 1270.32562165 -57.69552308 -9.78835325     6     1039    0    0    0
H 1271.81060536 -55.12473498 -11.15606642     6     1039    0    0    0
C 1267.91364362 -54.65908001 -11.13576656     2     1039    1043    1044    1045
[...]
 1803      H    1281.2955873200   -42.3278068700   -24.1705648600
 1804      H    1280.7727600700   -43.5919509900   -20.8864992000
 1805      C    1280.5486608500   -39.4973235000   -21.3308586100
 1806      H    1280.1829639200   -39.4719466900   -19.2794837000
 1807      H    1281.9301046000   -37.8445284600   -21.6651536900
 1808      C    1278.2550207500   -38.4849655700   -22.7344088600
 1809      H    1278.4335533000   -36.4292751400   -22.6309726800
 1810      H    1278.3515098500   -39.0398596900   -24.7407021100
 1811      C    1275.7297398300   -39.6633739200   -21.8085659400
 1812      H    1276.0103855900   -41.6363476200   -22.0561687500
 1813      H    1275.6638382800   -39.5918439600   -19.7775865200
 1814      C    1273.3471718900   -38.7361561900   -23.2065527800
 1815      H    1272.6282660600   -36.9125975000   -22.5002857700
 1816      H    1273.6170498300   -38.4948395600   -25.1628593300
 1817      C    1271.0094695600   -40.5748451500   -22.9826694500
 1818      H    1271.4250378000   -42.3733637600   -23.6983451600
 1819      H    1270.6811800000   -40.6865640300   -20.9539396000
 1820      C    1268.6573823600   -39.5363001700   -24.3756914600
 1821      H    1268.0444085100   -37.6810664600   -23.6954296200
 1822      H    1269.0823976300   -38.9323982600   -26.2972828800
 1823      C    1266.3776759300   -41.2926211400   -24.1691908900
 1824      H    1266.5984851900   -42.8916144700   -25.3760821000
 1825      H    1266.1062263200   -42.1228765800   -22.3375359300
 1826      C    1264.0718177000   -40.2116554600   -25.1470361700
 1827      H    1263.6065347100   -38.6433892100   -23.8699343600
 1828      H    1264.2244637600   -39.1927556200   -26.9725878900
 1829      C    1261.9178934200   -42.1520175400   -25.2783993800
 1830      H    1262.2332359100   -43.4957608200   -26.8789392800
 1831      H    1261.6791999600   -43.2623805200   -23.5190686400
 1832      C    1259.4798990900   -40.6929164300   -25.9166860500
 1833      H    1257.9300908300   -41.9749270800   -26.1963433100
 1834      H    1259.7557138900   -39.4913325500   -27.5608700700
 1835      H    1258.9802934500   -39.5793370000   -24.2861059600
 1836      H    1262.2194409600   -51.3263916900   -35.1159170700
 1837      C    1263.1161318400   -50.8484269800   -36.8977077000
 1838      H    1264.1796154000   -52.5290942400   -37.4808072100
 1839      H    1261.6378288400   -50.7003691000   -38.1617965100
 1840      C    1264.9236162100   -48.5292527700   -36.4916566600
 1841      H    1265.4258824200   -48.0739281600   -38.3862655200
 1842      H    1263.8107737000   -46.8523256000   -36.3451844500
 1843      C    1266.9710142600   -48.7150300200   -34.7102685400
 1844      H    1266.1841276300   -49.6249209200   -32.9669728600
 1845      H    1268.2501274400   -50.0575946500   -35.4036226400
 1846      C    1268.1439632300   -46.1079127500   -34.1954468100
 1847      H    1269.0757662300   -45.3353732400   -35.9602588600
 1848      H    1266.6975614500   -44.6529966500   -33.9763794900
 1849      C    1269.9985178900   -45.8326174300   -31.8877329300
 1850      H    1268.8582266800   -45.9746007500   -30.0991453300
 1851      H    1271.3075753700   -47.4604044600   -31.8052150200
 1852      C    1271.1280356000   -43.1477045800   -31.6808556200
 1853      H    1269.6097157200   -41.8998826300   -32.0674630300
 1854      H    1271.6786018000   -42.9103629100   -29.7354202800
 1855      C    1273.5149927500   -42.7607733200   -33.3460889000
 1856      H    1274.8602841200   -44.4457285200   -33.1309194000
 1857      H    1273.1648432000   -42.9597920600   -35.2297509300
 1858      C    1275.0170778800   -40.3084290900   -33.2185708500
 1859      H    1274.0732642900   -38.8179357500   -34.2817947600
 1860      H    1274.8616920000   -39.5302423100   -31.2443000900
 1861      C    1277.7870253900   -40.8446737900   -33.8497599300
 1862      H    1278.2736034000   -42.2822487400   -32.3662288200
 1863      H    1277.8837417800   -41.7754024300   -35.7641018600
 1864      C    1279.4462513100   -38.5515940300   -33.3510927100
 1865      H    1278.8193271000   -36.7333191200   -34.2172465100
 1866      H    1279.2879141200   -38.0872718400   -31.3940450600
 1867      C    1282.2139920300   -39.0204134100   -33.9935298600
 1868      H    1282.9263569000   -40.6913103700   -32.9781418900
 1869      H    1282.2853563700   -39.3107036100   -36.0319059200
 1870      C    1284.0196980700   -36.8581508500   -33.2368385500
 1871      H    1285.9513508100   -37.3279866900   -33.3127618500
 1872      H    1283.6264849500   -36.4055548800   -31.3149903700
 1873      H    1283.7017176100   -35.2381047100   -34.4555688900
 1874      H    1293.7316537400   -68.7600899300   -31.6170984900
 1875      C    1292.4115119800   -67.5929165300   -30.8004641700
 1876      H    1293.1254142400   -67.0478245300   -29.0290589100
 1877      H    1292.3438471800   -65.7585600500   -31.7861377800
 1878      C    1289.9483129900   -69.1225003600   -30.5837694900
 1879      H    1289.9357266700   -70.5331984500   -32.1370630800
 1880      H    1290.1668363900   -70.3707800100   -28.9660911000
 1881      C    1287.3952751200   -67.5135294700   -30.5298945000
 1882      H    1287.6345002800   -66.0244144700   -29.1738365800
 1883      H    1286.8671809500   -66.8771885300   -32.4323594700
 1884      C    1285.0578086800   -69.1590971300   -29.6807097200
 1885      H    1284.6703471800   -70.9037004700   -30.7951320300
 1886      H    1285.0292286500   -69.5732649700   -27.6161799300
 1887      C    1282.6652450900   -67.4974067600   -29.8966121500
 1888      H    1282.9405749900   -65.9103397800   -28.7211440000
 1889      H    1282.3842700100   -66.6548379400   -31.8306642100
 1890      C    1280.3139648700   -69.0312845500   -28.9175291400
 1891      H    1280.1473453200   -70.5681377300   -30.1251333800
 1892      H    1280.5102063800   -69.9547070200   -27.1145384400
 1893      C    1277.9800160700   -67.3047627200   -28.9488044600
 1894      H    1278.2055752300   -65.6370976800   -27.7500099700
 1895      H    1277.9192148200   -66.5159546100   -30.8698587100
 1896      C    1275.5993702400   -68.6106611700   -27.9168983800
 1897      H    1274.9544212700   -69.9401163500   -29.2842566600
 1898      H    1276.2004741300   -69.7198726000   -26.2725182600
 1899      C    1273.6704004600   -66.7195490600   -27.0194552000
 1900      H    1274.1730928600   -65.1572812600   -25.7978680300
 1901      H    1272.8889013100   -65.6345376700   -28.6223390200
 1902      C    1271.3818203500   -67.8880140100   -25.8014323800
 1903      H    1270.3114021600   -68.8778673500   -27.2005324600
 1904      H    1271.9712146500   -69.1688486900   -24.3201770000
 1905      C    1269.5626627400   -66.0466775500   -24.4949826600
 1906      H    1270.6624294700   -64.9550635700   -23.2021259700
 1907      H    1268.6772378200   -64.5640815100   -25.6876951300
 1908      C    1267.4454033900   -67.4726384600   -22.9275961800
 1909      H    1268.5742870600   -68.7110665600   -21.6076123100
 1910      H    1266.0444100100   -68.5492918100   -23.9110432200
 1911      H    1266.4105158700   -66.1648794900   -21.7021036600
 ----------------------------------------------------------------
 Nuclear Repulsion Energy =           0.00000000 hartrees
 There are     2498 alpha and     2498 beta electrons

 Total QAlloc Memory Limit   2000 MB
 Mega-Array Size       204 MB
 MEM_STATIC part       192 MB
   **** Step 1: MM calculation on the entire system **** 
 OPLSAA force field loaded.
Reading user-defined FF parameters...
 Reading user defined atom types.
 Found 3 user defined AtomTypes
finished.
Determining angles, torsions, etc. from user defined input
Determining VDW/Coulomb pairs... (useList = 0)

 Time req'd to get MM system information: 0.2 s (CPU) 0.2 s (wall)

 ------ MM Energies ------
   Ebond:           549.832764160211
   Eangle:          878.011082331237
   EUreyBrad:         0.000000000000
   Eimptors:          0.000000000000
   Etorsion:        224.978663692922
   Evdw:        1131939.046576530905
   Ecoulomb:        183.821311169283
   Etot:        1133775.690397884464 Kcal/mol (   1806.786578999514 hartree)
 -------------------------
 Time req'd to calc MM energy: 0.1 s (CPU) 0.1 s (wall)
 OPLSAA force field loaded.
Reading user-defined FF parameters...
 Reading user defined atom types.
 Found 3 user defined AtomTypes
finished.
 Time req'd to get MM system information: 0.0 s (CPU) 0.0 s (wall)
 Time req'd to calc MM gradient: 0.2 s (CPU) 0.2 s (wall)
   **** Step 2: MM calculation on the model system **** 
 Reading user defined atom types.
 Found 3 user defined AtomTypes
 ----------------------------------------------------------------
             Standard Nuclear Orientation (Bohr)
    I     Atom           X                Y                Z
 ----------------------------------------------------------------
    1      Fe   1269.5217997100   -58.5939098200   -31.5492689000
    2      C    1268.0982570300   -61.7381410000   -30.9845954400
    3      C    1270.6707658700   -55.5720152600   -32.2738621100
    4      C    1269.1090267200   -59.2144956300   -34.9735539300
    5      C    1267.1035972500   -57.2013761200   -29.4278047200
    6      C    1272.4445178300   -59.4221239400   -30.0298735700
    7      O    1267.2271777200   -63.6765231600   -30.6530244600
    8      O    1271.4241684600   -53.6718855100   -33.0851869700
    9      O    1268.5351583900   -59.4708522400   -37.0730647600
   10      O    1265.7610395000   -56.0953353800   -27.9926050500
   11      O    1274.5076017400   -60.0616136000   -29.5600730400
 ----------------------------------------------------------------
 Nuclear Repulsion Energy =         796.25155270 hartrees
 There are       48 alpha and       48 beta electrons
 OPLSAA force field loaded.
Reading user-defined FF parameters...
 Reading user defined atom types.
 Found 3 user defined AtomTypes
finished.
Determining VDW/Coulomb pairs... (useList = 0)

 No MM bonds in system. Return all possible pairs.
 Time req'd to get MM system information: 0.0 s (CPU) 0.0 s (wall)

 ------ MM Energies ------
   Ebond:             0.000000000000
   Eangle:            0.000000000000
   EUreyBrad:         0.000000000000
   Eimptors:          0.000000000000
   Etorsion:          0.000000000000
   Evdw:        1132350.916536106728
   Ecoulomb:         -6.522516664605
   Etot:        1132344.394019442145 Kcal/mol (   1804.505663022004 hartree)
 -------------------------
 Eold: 1806.7865790 mm_energy: 1804.5056630 Enew:    2.2809160
 Time req'd to calc MM energy: 0.0 s (CPU) 0.0 s (wall)
 OPLSAA force field loaded.
Reading user-defined FF parameters...
 Reading user defined atom types.
 Found 3 user defined AtomTypes
finished.
Determining VDW/Coulomb pairs... (useList = 0)

 No MM bonds in system. Return all possible pairs.
 Time req'd to get MM system information: 0.0 s (CPU) 0.0 s (wall)
 Number of fixed atoms: 0
 Time req'd to calc MM gradient: 0.0 s (CPU) 0.0 s (wall)
   **** Step 3: QM calculation on the model system **** 
 Requested basis set is def2-mSVP
 There are 80 shells and 174 basis functions

                       Distance Matrix (Bohrs)
             Fe(  1)   C (  2)   C (  3)   C (  4)   C (  5)   C (  6)
   C (  2)  3.497359
   C (  3)  3.313156  6.804492
   C (  4)  3.504459  4.827238  4.795313
   C (  5)  3.505348  4.898488  4.845570  6.231351
   C (  6)  3.396584  5.016514  4.796355  5.967293  5.815466
   O (  7)  5.648142  2.150824  8.953684  6.489840  6.591204  6.760833
   O (  8)  5.495851  8.974333  2.199172  6.296534  6.670913  6.591001
   O (  9)  5.679332  6.511600  6.541720  2.191572  8.102462  8.055558
   O ( 10)  5.747699  6.801165  6.535169  8.346965  2.255124  7.738661
   O ( 11)  5.565005  6.776408  6.499420  7.692074  7.938371  2.210424
             O (  7)   O (  8)   O (  9)   O ( 10)
   O (  8) 11.118584
   O (  9)  7.785589  7.607731
   O ( 10)  8.167117  7.992404 10.076934
   O ( 11)  8.201627  7.922286  9.615827  9.730913

 A cutoff of  1.0D-11 yielded   2487 shell pairs
 There are     12745 function pairs (     14574 Cartesian)
 Smallest overlap matrix eigenvalue = 2.64E-03
 Guess MOs from SCF MO coefficient file
 Reading MOs from coefficient file
 Reading MOs from coefficient file
 A restricted Kohn-Sham SCF calculation will be
 performed using Pulay DIIS extrapolation
 Exchange:  B88      Correlation:  P86
 Using SG-1 standard quadrature grid
 SCF converges when DIIS error is below 1.0E-08
 Using Q-Chem read-in guess as SCF_GUESS READ specified.

 using 2 threads for integral computing
 -------------------------------------------------------
 OpenMP Integral computing Module                
 Release: version 1.0, May 2013, Q-Chem Inc. Pittsburgh 
 -------------------------------------------------------
 ---------------------------------------
  Cycle       Energy         DIIS Error
 ---------------------------------------
    1   -1830.5186262341      2.48E-09
    2   -1830.5186262340      1.40E-08
    3   -1830.5186262341      9.76E-09 Convergence criterion met
 ---------------------------------------
 SCF time:  CPU 4.09 s  wall 2.14 s
 E(QM + QM/MM):    -1830.5186262341 E(MM):    2.2809160 E(Tot): -1828.237710256625 
 SCF   energy in the final basis set = -1828.23771026
 Total energy in the final basis set = -1828.23771026

 --------------------------------------------------------------

                    Orbital Energies (a.u.)
 --------------------------------------------------------------

 Alpha MOs
 -- Occupied --
******** -29.6325 -25.5930 -25.5790 -25.5761 -18.8960 -18.8796 -18.8783
-18.8771 -18.8718 -10.0579 -10.0485 -10.0472 -10.0446 -10.0386  -3.3166
 -2.1540  -2.1255  -2.1202  -1.0818  -1.0540  -1.0523  -1.0414  -1.0327
 -0.5705  -0.5266  -0.5193  -0.5161  -0.5119  -0.4575  -0.4490  -0.4454
 -0.4350  -0.4312  -0.4289  -0.4195  -0.4178  -0.4123  -0.4091  -0.4038
 -0.4021  -0.3965  -0.3926  -0.3792  -0.2745  -0.2709  -0.2305  -0.2178
 -- Virtual --
 -0.1023  -0.0899  -0.0845  -0.0795  -0.0773  -0.0713  -0.0679  -0.0561
 -0.0476  -0.0327  -0.0273   0.0137   0.1908   0.2100   0.2194   0.2578
  0.2977   0.3262   0.3403   0.4048   0.4084   0.4224   0.4271   0.4380
  0.4515   0.4749   0.4924   0.5071   0.5199   0.5642   0.5671   0.5851
  0.6011   0.6204   0.6364   0.6529   0.7326   0.7542   0.7630   0.7642
  0.7796   0.8289   0.8349   0.8609   0.8786   0.8940   0.9478   0.9511
  0.9686   0.9770   0.9838   0.9922   1.0182   1.0226   1.0267   1.0584
  1.2303   1.2468   1.2640   1.3153   1.4035   1.4050   1.4124   1.4160
  1.4222   1.4235   1.4280   1.4314   1.4512   1.4611   1.4807   1.4909
  1.4976   1.5272   1.5311   1.5588   1.5993   1.6181   1.6645   1.6771
  1.6911   1.8279   1.8315   1.8350   1.8412   1.8450   1.8509   1.8531
  1.8588   1.8671   1.8816   1.8836   1.8878   1.9014   1.9083   1.9444
  2.3771   2.4100   2.4206   2.4400   2.4638   2.4729   2.4773   2.4954
  2.5037   2.5122   2.6260   2.6403   2.6548   2.6740   2.6850   2.8084
  2.8294   2.8746   2.8865   2.9797  13.2567  13.2744  13.3011  13.3491
 13.4580  24.9280  24.9295  24.9549  24.9687  25.0113
 --------------------------------------------------------------

          Ground-State Mulliken Net Atomic Charges

     Atom                 Charge (a.u.)
  ----------------------------------------
      1 Fe                   -0.463815
      2 C                     0.203233
      3 C                     0.171129
      4 C                     0.208558
      5 C                     0.222728
      6 C                     0.219553
      7 O                    -0.077209
      8 O                    -0.119510
      9 O                    -0.106657
     10 O                    -0.136348
     11 O                    -0.121661
  ----------------------------------------
  Sum of atomic charges =     0.000000

 -----------------------------------------------------------------
                    Cartesian Multipole Moments
 -----------------------------------------------------------------
    Charge (ESU x 10^10)
                -0.0000
    Dipole Moment (Debye)
         X      -0.2583855918      Y      -0.5356372840      Z       0.1281496193
       Tot       0.6083524792
    Quadrupole Moments (Debye-Ang)
        XX    -417.4432     XY    -350.8695     YY     -35.5504
        XZ      90.5501     YZ       4.8594     ZZ     -73.9116
    Octopole Moments (Debye-Ang^2)
       XXX -491478.8426    XXY -227507.2809    XYY  -24189.4557
       YYY    4849.2705    XXZ   64995.7104    XYZ    3114.8934
       YYZ     724.9234    XZZ  -49725.4429    YZZ    2144.8642
       ZZZ    3605.7079
    Hexadecapole Moments (Debye-Ang^3)
      XXXX ************   XXXY ************   XXYY ************
      XYYY 3268042.2874   YYYY -333289.4745   XXXZ ************
      XXYZ 1955797.0968   XYYZ  491991.4311   YYYZ  -85208.0724
      XXZZ ************   XYZZ 1443249.7698   YYZZ  -81403.1922
      XZZZ 2423391.3127   YZZZ -109344.8122   ZZZZ -120268.0809
 -----------------------------------------------------------------
 Calculating MO derivatives via CPSCF
 Full subspace dimension requested for CIS/TDDFT
 MAX_CIS_SUBSPACE fits in available memory
    1     0    36    0.0400367  
    2     0    36    0.0065297  
    3     0    36    0.0006353  
    4     0    36    0.0000481  
    5    33     3    0.0000017  
    6    36     0    0.0000000  Converged
 Time for AOints: 6.3 s (CPU) 3.2 s (wall)
 ------------------------------------------------------------------------------
                     AOints        : Timing summary (seconds)
 ------------------------------------------------------------------------------
     job step          cpu (% of tot)      sys (% of tot)     wall (% of tot)
 ------------------------------------------------------------------------------
  AOints            0.6343E+01 ( 3.7)   0.1200E-04 (11.8)   0.3236E+01 ( 3.7)
 ------------------------------------------------------------------------------
   Grand Totals     0.1737E+03          0.1020E-03          0.8745E+02
 ------------------------------------------------------------------------------
 Polarizability Matrix (a.u.)
            1           2           3
    1 -89.2927695  -3.7019286   3.2582890
    2  -3.7019286 -96.8669328   0.1546664
    3   3.2582892   0.1546663 -91.2285566
 Derivative of Dipole Moment Matrix (a.u.)
            1           2           3
    1  -1.8302858   0.0310271   0.0729178
    2  -0.0174575  -1.8816746   0.0148353
    3  -0.0403518  -0.0478580  -1.8235475
    4   0.7166187   0.6671264  -0.1430042
    5   0.6403435   1.9324024  -0.2571136
    6  -0.0742536  -0.2569585   0.4487531
    7   0.6599331   0.5659382  -0.1952917
    8   0.5764422   1.9030349  -0.4037514
    9  -0.1617070  -0.5050153   0.5696675
   10   0.4396748   0.0485403   0.4038866
   11   0.0163218   0.3778528   0.2520656
   12   0.2424169   0.3204613   2.2665720
   13   1.2203888  -0.5190582  -0.6518126
   14  -0.6722708   0.7618478   0.5606938
   15  -0.8696686   0.5548297   1.1230969
   16   2.0290299  -0.5018253   0.7104650
   17  -0.4632495   0.5415551  -0.2053398
   18   0.4790875  -0.1293722   0.6609366
   19  -0.3894833  -0.5648548   0.1082982
   20  -0.5420574  -1.3800057   0.2281057
   21   0.0852158   0.2097844  -0.1716346
   22  -0.3443049  -0.4546862   0.1310940
   23  -0.4547278  -1.3191991   0.3150361
   24   0.1809279   0.4729584  -0.2835168
   25  -0.2224034  -0.0583909  -0.4042039
   26  -0.0176601  -0.1708450  -0.1907130
   27  -0.2249141  -0.2621197  -1.6714999
   28  -0.7893236   0.3932130   0.5465659
   29   0.5348035  -0.4840504  -0.4841454
   30   0.6775114  -0.4348485  -0.7973926
   31  -1.4898442   0.3929703  -0.5789151
   32   0.3995123  -0.2809182   0.1703266
   33  -0.2942644   0.0781384  -0.3214347
 -----------------------------------------
 Net:  -0.00000  -0.00000  -0.00000
 -----------------------------------------

 Calculating analytic Hessian of the SCF energy
