                  Welcome to Q-Chem
     A Quantum Leap Into The Future Of Chemistry


 Q-Chem 5.4 (devel), Q-Chem, Inc., Pleasanton, CA (2021)

 E. Epifanovsky,  A. T. B. Gilbert,  Xintian Feng,  Joonho Lee,  Yuezhi Mao,  
 N. Mardirossian,  P. Pokhilko,  A. White,  M. Wormit,  M. P. Coons,  
 A. L. Dempwolff,  Zhengting Gan,  D. Hait,  P. R. Horn,  L. D. Jacobson,  
 I. Kaliman,  J. Kussmann,  A. W. Lange,  Ka Un Lao,  D. S. Levine,  Jie Liu,  
 S. C. McKenzie,  A. F. Morrison,  K. Nanda,  F. Plasser,  D. R. Rehn,  
 M. L. Vidal,  Zhi-Qiang You,  Ying Zhu,  B. Alam,  B. Albrecht,  
 A. Aldossary,  E. Alguire,  J. H. Andersen,  D. Barton,  K. Begam,  A. Behn,  
 Y. A. Bernard,  E. J. Berquist,  H. Burton,  A. Carreras,  K. Carter-Fenk,  
 R. Chakraborty,  A. D. Chien,  K. D. Closser,  V. Cofer-Shabica,  
 S. Dasgupta,  Jia Deng,  M. de Wergifosse,  M. Diedenhofen,  Hainam Do,  
 S. Ehlert,  Po-Tung Fang,  S. Fatehi,  Qingguo Feng,  T. Friedhoff,  
 J. Gayvert,  Qinghui Ge,  G. Gidofalvi,  M. Goldey,  J. Gomes,  
 C. Gonzalez-Espinoza,  S. Gulania,  A. Gunina,  M. W. D. Hanson-Heine,  
 P. H. P. Harbach,  A. W. Hauser,  M. F. Herbst,  M. Hernandez Vera,  
 M. Hodecker,  Z. C. Holden,  S. Houck,  Xunkun Huang,  Kerwin Hui,  
 B. C. Huynh,  M. Ivanov,  Hyunjun Ji,  Hanjie Jiang,  B. Kaduk,  S. Kaehler,  
 K. Khistyaev,  Jaehoon Kim,  P. Klunzinger,  Z. Koczor-Benda,  
 Joong Hoon Koh,  D. Kosenkov,  L. Koulias,  T. Kowalczyk,  C. M. Krauter,  
 K. Kue,  A. Kunitsa,  T. Kus,  A. Landau,  K. V. Lawler,  D. Lefrancois,  
 S. Lehtola,  Rain Li,  Yi-Pei Li,  Jiashu Liang,  M. Liebenthal,  
 Hung-Hsuan Lin,  You-Sheng Lin,  Fenglai Liu,  Kuan-Yu Liu,  
 M. Loipersberger,  A. Luenser,  A. Manjanath,  P. Manohar,  E. Mansoor,  
 S. F. Manzer,  Shan-Ping Mao,  A. V. Marenich,  T. Markovich,  S. Mason,  
 S. A. Maurer,  P. F. McLaughlin,  M. F. S. J. Menger,  J.-M. Mewes,  
 S. A. Mewes,  P. Morgante,  J. W. Mullinax,  K. J. Oosterbaan,  G. Paran,  
 Alexander C. Paul,  Suranjan K. Paul,  F. Pavosevic,  Zheng Pei,  S. Prager,  
 E. I. Proynov,  E. Ramos,  B. Rana,  A. E. Rask,  A. Rettig,  R. M. Richard,  
 F. Rob,  E. Rossomme,  T. Scheele,  M. Scheurer,  M. Schneider,  
 N. Sergueev,  S. M. Sharada,  W. Skomorowski,  D. W. Small,  C. J. Stein,  
 Yu-Chuan Su,  E. J. Sundstrom,  Zhen Tao,  J. Thirman,  T. Tsuchimochi,  
 N. M. Tubman,  S. P. Veccham,  O. Vydrov,  J. Wenzel,  J. Witte,  A. Yamada,  
 Kun Yao,  S. Yeganeh,  S. R. Yost,  A. Zech,  Igor Ying Zhang,  Xing Zhang,  
 Yu Zhang,  D. Zuev,  A. Aspuru-Guzik,  A. T. Bell,  N. A. Besley,  
 K. B. Bravaya,  B. R. Brooks,  D. Casanova,  Jeng-Da Chai,  S. Coriani,  
 C. J. Cramer,  A. E. DePrince, III,  R. A. DiStasio Jr.,  A. Dreuw,  
 B. D. Dunietz,  T. R. Furlani,  W. A. Goddard III,  S. Grimme,  
 S. Hammes-Schiffer,  T. Head-Gordon,  W. J. Hehre,  Chao-Ping Hsu,  
 T.-C. Jagau,  Yousung Jung,  A. Klamt,  Jing Kong,  D. S. Lambrecht,  
 WanZhen Liang,  N. J. Mayhall,  C. W. McCurdy,  J. B. Neaton,  
 C. Ochsenfeld,  J. A. Parkhill,  R. Peverati,  V. A. Rassolov,  Yihan Shao,  
 L. V. Slipchenko,  T. Stauch,  R. P. Steele,  J. E. Subotnik,  
 A. J. W. Thom,  A. Tkatchenko,  D. G. Truhlar,  T. Van Voorhis,  
 T. A. Wesolowski,  K. B. Whaley,  H. L. Woodcock III,  P. M. Zimmerman,  
 S. Faraji,  P. M. W. Gill,  M. Head-Gordon,  J. M. Herbert,  A. I. Krylov

 Additional authors for Version 5.4.1: 
 S. Kotaru,  Shaozhi Li,  Xiangyuan Li,  F. Matz,  A. Molle,  Haisheng Ren,  
 Yingli Su,  Hung-Yi Tsai,  C. Utku,  Fang Wang

 Contributors to earlier versions of Q-Chem not listed above: 
 R. D. Adamson,  B. Austin,  R. Baer,  J. Baker,  G. J. O. Beran,  
 K. Brandhorst,  S. T. Brown,  E. F. C. Byrd,  A. K. Chakraborty,  
 G. K. L. Chan,  Chun-Min Chang,  Yunqing Chen,  C.-L. Cheng,  
 Siu Hung Chien,  D. M. Chipman,  D. L. Crittenden,  H. Dachsel,  
 R. J. Doerksen,  A. D. Dutoi,  R. G. Edgar,  J. Fosso-Tande,  
 L. Fusti-Molnar,  D. Ghosh,  A. Ghysels,  A. Golubeva-Zadorozhnaya,  
 J. Gonthier,  M. S. Gordon,  S. R. Gwaltney,  G. Hawkins,  J. E. Herr,  
 A. Heyden,  S. Hirata,  E. G. Hohenstein,  G. Kedziora,  F. J. Keil,  
 C. Kelley,  Jihan Kim,  R. A. King,  R. Z. Khaliullin,  P. P. Korambath,  
 W. Kurlancheek,  A. Laurent,  A. M. Lee,  M. S. Lee,  S. V. Levchenko,  
 Ching Yeh Lin,  D. Liotard,  E. Livshits,  R. C. Lochan,  I. Lotan,  
 L. A. Martinez-Martinez,  P. E. Maslen,  N. Nair,  D. P. O'Neill,  
 D. Neuhauser,  E. Neuscamman,  C. M. Oana,  R. Olivares-Amaya,  R. Olson,  
 T. M. Perrine,  B. Peters,  P. A. Pieniazek,  A. Prociuk,  Y. M. Rhee,  
 J. Ritchie,  M. A. Rohrdanz,  E. Rosta,  N. J. Russ,  H. F. Schaefer III,  
 M. W. Schmidt,  N. E. Schultz,  S. Sharma,  N. Shenvi,  C. D. Sherrill,  
 A. C. Simmonett,  A. Sodt,  T. Stein,  D. Stuck,  K. S. Thanthiriwatte,  
 V. Vanovschi,  L. Vogt,  Tao Wang,  A. Warshel,  M. A. Watson,  
 C. F. Williams,  Q. Wu,  X. Xu,  Jun Yang,  W. Zhang,  Yan Zhao

 Please cite Q-Chem as follows:
 Y. Shao et al., Mol. Phys. 113, 184-215 (2015)
 DOI: 10.1080/00268976.2014.952696

 Q-Chem 5.4.1 for Intel X86 EM64T Linux

 Parts of Q-Chem use Armadillo 9.900.5 (Nocturnal Misbehaviour).
 http://arma.sourceforge.net/

 Q-Chem begins on Wed Jun 22 16:41:24 2022  

 Host: p09r14n13.grace.hpc.yale.internal
0

     Scratch files written to /home/tl686/scratch60/qchem_dev/scratch/qchem247598//
 Processing $rem in /home/tl686/qchem_dev/qchem/config/preferences:
 Processing $rem in /home/tl686/.qchemrc:
Applying user defined connections for MM calculations

 Checking the input file for inconsistencies... 	...done.

--------------------------------------------------------------
User input:
--------------------------------------------------------------
$molecule
0   1
 Fe 930.03576202 -54.43886110 70.62312966    -1  0   0   0   0
C 928.50974816 -54.08223319 73.63905420    -2  0   0   0   0 
C 931.33818184 -53.60875117 67.61595234    -2  0   0   0   0
C 933.10554010 -53.94411069 72.15474763    -2  0   0   0   0
C 929.69966031 -57.76402800 69.98662477    -2  0   0   0   0
C 927.42485349 -52.53688145 69.60848319    -2  0   0   0   0
O 927.39097203 -54.42518621 75.61344150    -3  0   0   0   0
O 932.07984435 -53.04321532 65.60292658    -3  0   0   0   0 
O 935.10288492 -53.53013847 72.93182136    -3  0   0   0   0
O 929.38433182 -59.80888657 69.28772512    -3  0   0   0   0 
O 925.72313871 -51.17793242 68.96576276    -3  0   0   0   0
H 943.00262270 -68.53958055 88.18784748      6     13    0    0    0 
C 942.39014267 -69.61308421 89.77045960     1     12    14    15    16
H 944.00474331 -69.86774749 91.00423630     6     13    0    0    0
H 940.84976282 -68.63778950 90.62466519     6     13    0    0    0
C 941.77140885 -72.06020655 88.58178263     2     13    17    18    19
H 943.28496518 -72.88341849 87.55180290     6     16    0    0    0
H 941.23595052 -73.46273853 89.96828447     6     16    0    0    0
C 939.71630842 -71.68468532 86.53409573     2     16    20   21   22
H 938.05338657 -70.79502342 87.46050625     6     19    0    0    0
H 940.22721840 -70.13644165 85.28128221     6     19    0    0    0
C 939.12563491 -74.24979299 85.16542899     2     19   23   24   25
H 940.84886879 -74.71920265 84.06438193     6    22    0    0    0
H 938.65642119 -75.74225063 86.49206395     6    22    0    0    0
C 937.11793826 -73.95436647 83.17650449     2    22   26   27   28
H 935.32090544 -73.75744020 84.22840109     6    25    0    0    0
H 937.15511205 -72.08495125 82.19564563     6    25    0    0    0
C 936.93444573 -76.14446180 81.37882430     2    25   29   30   31
H 938.72964562 -76.41781084 80.27342931     6    28    0    0    0
H 936.65250996 -77.84210452 82.48937798     6    28    0    0    0
C 934.88190807 -75.59533939 79.55151730     2    28   32   33   34
H 933.07833364 -75.70538812 80.44633454     6    31    0    0    0
H 934.96327459 -73.66693743 78.89942251     6    31    0    0    0
C 934.76554388 -77.55370873 77.58187873     2    31   35   36   37
H 936.34682664 -77.42871680 76.31883880     6    34    0    0    0
H 934.83795753 -79.30858544 78.73121727     6    34    0    0    0
C 932.33857341 -77.73028422 76.04307809     2    34   38   39   40
H 930.96324965 -77.82586999 77.47090501     6    37    0    0    0
H 932.11182960 -75.93389449 75.09031531     6    37    0    0    0
C 932.78112176 -79.76538603 74.05592965     2    37   41   42   43
H 934.60251819 -79.37564495 73.21408922     6    40    0    0    0
H 932.95012733 -81.71038358 74.78694280     6    40    0    0    0
C 931.11620652 -79.84524215 71.79705894     2    40   44   45   46
H 929.05961618 -79.80706271 72.31444185     6    43    0    0    0
H 931.36272081 -78.09897753 70.77088535     6    43    0    0    0
C 931.47012273 -82.12881070 69.98722954     1    43   47   48   49
H 932.99952570 -81.79434373 68.59416981     6    46    0    0    0
H 929.78448231 -82.49091334 69.01414264     6    46    0    0    0
H 932.02461041 -83.77892343 71.01614929     6    46    0    0    0
H 928.06985908 -68.38219465 69.04386267     6     51    0    0    0 
C 929.56796043 -68.19080737 70.42950515     1     50    52    53    54
H 931.15453655 -67.10343760 69.76356054     6     51    0    0    0
H 928.66006587 -67.20327150 72.10401582     6     51    0    0    0
C 930.37500415 -70.73327583 71.47023912     2     51    55    56    57
H 932.21959848 -70.66397635 72.46997796     6     54    0    0    0
H 929.04105152 -71.27420250 73.03088437     6     54    0    0    0
C 930.30279065 -72.72859142 69.58811637     2     54    58   59   60
H 930.98589086 -71.79788012 67.91579048     6     57    0    0    0
H 931.52496600 -74.18915549 70.12739033     6     57    0    0    0
C 927.64183654 -73.81575276 69.21685556     2     57   61   62   63
H 927.30241076 -74.89387751 70.92489949     6    60    0    0    0
H 926.25825585 -72.40321120 68.75659823     6    60    0    0    0
C 927.45791002 -75.83163397 67.09437092     2    60   64   65   66
H 928.11536456 -75.27390191 65.27021288     6    63    0    0    0
H 928.75004723 -77.46132387 67.45380586     6    63    0    0    0
C 924.83483693 -77.05105299 66.80701984     2    63   67   68   69
H 924.99706481 -78.64875098 65.52022247     6    66    0    0    0
H 924.28822958 -77.76677626 68.73658073     6    66    0    0    0
C 922.98156687 -75.18992612 65.98375063     2    66   70   71   72
H 922.83515194 -73.65206059 67.29005786     6    69    0    0    0
H 923.84263474 -74.55678278 64.20010801     6    69    0    0    0
C 920.31828313 -76.43141349 66.01995860     2    69   73   74   75
H 920.39706161 -77.82746450 64.48440646     6    72    0    0    0
H 919.95638856 -77.40536620 67.79596884     6    72    0    0    0
C 918.01515305 -74.54606690 65.39033386     2    72   76   77   78
H 918.19673350 -73.00392911 66.66771515     6    75    0    0    0
H 918.39510265 -73.65336849 63.56114141     6    75    0    0    0
C 915.55646869 -75.94126964 65.81727394     2    75   79   80   81
H 915.77183395 -77.79337511 65.18499435     6    78    0    0    0
H 915.34978166 -76.09229816 67.92821576     6    78    0    0    0
C 913.24352165 -74.93530372 64.28824837     2    78   82   83   84
H 913.80618774 -74.22353453 62.41012854     6    81    0    0    0
H 911.91291442 -76.49001318 63.90933215     6    81    0    0    0
C 911.95548155 -72.67359599 65.69412965     1    81   85   86   87
H 910.85191968 -73.31286146 67.32525097     6    84    0    0    0
H 910.69417971 -71.59650509 64.49931034     6    84    0    0    0
H 913.26106142 -71.29332679 66.36053221     6    84    0    0    0
H 953.90955911 -80.04368954 80.69733000     6     89    0    0    0 
C 952.49074980 -81.36904107 80.06759911     1     88    90    91    92
H 951.49574565 -81.61535095 81.88886648     6     89    0    0    0
H 951.28161655 -80.56804523 78.67875536     6     89    0    0    0
C 953.66553438 -83.99857105 79.14256975     2     89    93    94    95
H 955.01952600 -83.58414946 77.69772709     6     92    0    0    0
H 954.72155725 -84.87873735 80.80794798     6     92    0    0    0
C 951.50791687 -85.87639890 78.30820162     2     92    96   97   98
H 950.71107885 -85.14459403 76.59073910     6     95    0    0    0
H 952.38973593 -87.55591758 77.62062748     6     95    0    0    0
C 949.73609875 -86.32520802 80.38255502     2     95   99   100   101
H 950.45401950 -86.58388239 82.26768252     6    98    0    0    0
H 948.55721721 -84.63878412 80.54608821     6    98    0    0    0
C 947.98403901 -88.51893413 79.85325941     2    98   102   103   104
H 947.45065949 -88.81850310 77.87310849     6    101    0    0    0
H 949.24739218 -90.22293803 80.24753558     6    101    0    0    0
C 945.61417510 -88.49417453 81.45876738     2    101   105   106   107
H 946.08733040 -88.69719418 83.32093025     6    104    0    0    0
H 944.92520313 -86.56372632 81.38695289     6    104    0    0    0
C 943.53548794 -90.34976697 80.39611369     2    104   108   109   110
H 942.58655183 -89.71136933 78.52785324     6    107    0    0    0
H 944.66352768 -91.87591272 79.79983069     6    107    0    0    0
C 941.40078194 -90.90319872 82.31574416     2    107   111   112   113
H 942.10449175 -91.09744388 84.19790100     6    110    0    0    0
H 940.20290749 -89.37922070 82.46724797     6    110    0    0    0
C 939.86805264 -93.32834066 81.75076647     2    110   114   115   116
H 939.09656643 -92.78567398 79.96313438     6    113    0    0    0
H 940.91379529 -95.00411488 81.45191143     6    113    0    0    0
C 937.66000040 -93.60152260 83.67905054     2    113   117   118   119
H 938.39956513 -94.13978557 85.55393823     6    116    0    0    0
H 937.03674543 -91.77927550 84.00087777     6    116    0    0    0
C 935.49349402 -95.52694162 82.86276072     2    116   120   121   122
H 934.58531674 -95.66968452 84.76357030     6    119    0    0    0
H 934.48193348 -94.12689126 81.72196303     6    119    0    0    0
C 935.97338719 -98.07035928 81.49366559     1    119   123   124   125
H 934.08346143 -98.93850878 80.94739515     6    122    0    0    0
H 936.67784429 -99.62842801 82.60961114     6    122    0    0    0
H 937.29526066 -97.77349600 79.93563011     6    122    0    0    0
H 951.01681599 -69.83220100 69.93286073     6     127    0    0    0 
C 951.99831339 -68.15482639 70.35638864     1     126    128    129    130
H 952.78089585 -68.24903470 72.20966514     6     127    0    0    0
H 953.64590034 -68.28964541 68.98645881     6     127    0    0    0
C 950.02008842 -66.03121090 69.87189431     2     127    131    132    133
H 949.29561924 -66.47857878 68.02716536     6     130    0    0    0
H 948.33165274 -66.14800397 71.10405059     6     130    0    0    0
C 951.20489129 -63.29866219 70.25402709     2     130    134   135   136
H 951.23779272 -62.71856672 72.17547428     6     133    0    0    0
H 953.20818467 -63.17922242 70.01391146     6     133    0    0    0
C 949.50888519 -61.25424068 69.01340448     2     133   137   138   139
H 948.74371113 -61.56184800 67.21534725     6    136    0    0    0
H 947.82429282 -60.89629317 70.12358560     6    136    0    0    0
C 950.79724208 -58.75369526 68.89471314     2    136   140   141   142
H 951.36563260 -58.10908366 70.72662484     6    139    0    0    0
H 952.56163357 -59.03300111 67.74790060     6    139    0    0    0
C 949.09973215 -56.60360403 67.72705068     2    139   143   144   145
H 949.02838395 -56.94982094 65.67071682     6    142    0    0    0
H 947.21571262 -56.77969979 68.49809078     6    142    0    0    0
C 950.29693233 -54.00647736 68.11180320     2    142   146   147   148
H 950.59675635 -53.72533817 70.02649760     6    145    0    0    0
H 952.24997079 -53.90687759 67.42887062     6    145    0    0    0
C 948.66611176 -52.02766823 66.81381068     2    145   149   150   151
H 948.85795641 -52.14866466 64.72658428     6    148    0    0    0
H 946.68255815 -52.57649565 67.23845869     6    148    0    0    0
C 949.32405700 -49.32426070 67.78661426     2    148   152   153   154
H 948.86308233 -49.07022359 69.80492515     6    151    0    0    0
H 951.34900241 -49.03136598 67.80123960     6    151    0    0    0
C 948.01239721 -47.15231290 66.26799523     2    151   155   156   157
H 949.00469084 -47.05858451 64.53052148     6    154    0    0    0
H 946.08525977 -47.77764716 65.71182131     6    154    0    0    0
C 947.74228751 -44.79391797 67.86804733     2    154   158   159   160
H 946.80920854 -43.42579254 66.79115823     6    157    0    0    0
H 946.43872528 -44.74465881 69.46250248     6    157    0    0    0
C 950.27248182 -43.71428347 68.62639840     1    157   161   162   163
H 950.12931205 -41.75013008 69.37535920     6    160    0    0    0
H 951.34429089 -43.54439177 66.99224981     6    160    0    0    0
H 951.39204854 -44.74650785 70.11673215     6    160    0    0    0
H 951.82803114 -77.85288766 53.00865673     6     165    0    0    0 
C 953.83019842 -77.27293838 53.08030791     1     164    166    167    168
H 955.10572366 -78.66277510 54.00639601     6     165    0    0    0
H 954.53957900 -77.03509068 51.12244902     6     165    0    0    0
C 953.63612157 -74.64623439 54.50188562     2     165    169    170    171
H 951.81872083 -73.75744635 53.94172887     6     168    0    0    0
H 953.70826466 -74.88443871 56.48253907     6     168    0    0    0
C 955.82946516 -72.98662048 53.65981694     2     168    172   173   174
H 957.78161550 -73.64880269 53.93694459     6     171    0    0    0
H 955.50115262 -72.87741561 51.56983448     6     171    0    0    0
C 955.70818785 -70.29092643 54.77584056     2     171   175   176   177
H 953.80907776 -69.44883408 54.74163876     6    174    0    0    0
H 956.42483817 -70.42973275 56.67669562     6    174    0    0    0
C 957.32595186 -68.51887041 53.27677113     2    174   178   179   180
H 959.39399448 -69.01329051 53.22110658     6    177    0    0    0
H 956.57476059 -68.45802617 51.33581526     6    177    0    0    0
C 956.95718874 -65.89594369 54.49670589     2    177   181   182   183
H 954.81768397 -65.71923704 54.54575528     6    180    0    0    0
H 957.88728896 -65.90155944 56.32586597     6    180    0    0    0
C 958.25789249 -63.78761081 53.12393512     2    180   184   185   186
H 960.30138751 -64.00956765 53.20889575     6    183    0    0    0
H 958.14394873 -63.78167281 51.08811349     6    183    0    0    0
C 957.65439426 -61.12058904 54.19584448     2    183   187   188   189
H 955.82437670 -60.22126085 53.58312682     6    186    0    0    0
H 957.30706785 -61.35541162 56.09212528     6    186    0    0    0
C 959.71537575 -59.09909708 54.00196622     2    186   190   191   192
H 960.74250427 -59.08482450 55.75421025     6    189    0    0    0
H 961.21194344 -59.32727084 52.70478400     6    189    0    0    0
C 958.74970169 -56.35654527 53.96473151     2    189   193   194   195
H 957.78704255 -55.86787619 52.26523287     6    192    0    0    0
H 957.50229322 -55.94822645 55.53396265     6    192    0    0    0
C 960.90307416 -54.41604955 54.02267029     2    192   196   197   198
H 961.81756142 -54.33306142 55.83743932     6    195    0    0    0
H 962.58757028 -54.84152691 52.90891319     6    195    0    0    0
C 959.83312832 -51.87247781 53.09838946     1    195   199   200   201
H 958.06375145 -51.53323698 53.98635108     6    198    0    0    0
H 959.32098592 -51.80188938 51.09974537     6    198    0    0    0
H 960.97463235 -50.24255298 53.49496567     6    198    0    0    0
H 939.51743276 -76.61524515 53.91439562     6     203    0    0    0 
C 941.02363418 -75.35831429 53.73823788     1     202    204    205    206
H 940.42083362 -73.45975530 53.00986149     6     203    0    0    0
H 942.01163628 -75.03253879 55.49353859     6     203    0    0    0
C 943.08164753 -76.48929258 52.02154987     2     203    207    208    209
H 944.77882607 -75.20312038 52.14727993     6     206    0    0    0
H 943.82637944 -78.19072667 52.96222725     6     206    0    0    0
C 942.16268740 -77.15240066 49.25472686     2     206    210   211   212
H 943.80735853 -78.04872590 48.15189901     6     209    0    0    0
H 940.55610936 -78.46681765 49.31518907     6     209    0    0    0
C 941.29627771 -74.88232033 47.87913944     2     209   213   214   215
H 940.35765003 -73.59084681 49.16630052     6    212    0    0    0
H 942.83991110 -73.66101456 47.12414552     6    212    0    0    0
C 939.56796243 -75.50874718 45.66701506     2    212   216   217   218
H 940.48546157 -76.70110750 44.33158837     6    215    0    0    0
H 937.75323959 -76.40234323 46.19784809     6    215    0    0    0
C 938.63790011 -73.19227778 44.06516646     2    215   219   220   221
H 937.73124784 -71.81811980 45.34485472     6    218    0    0    0
H 940.37967076 -72.48624409 43.18119704     6    218    0    0    0
C 936.40153824 -73.88986913 42.15439490     2    218   222   223   224
H 936.90436684 -75.68599489 41.35270907     6    221    0    0    0
H 934.63908498 -74.30276167 42.92548090     6    221    0    0    0
C 935.98375451 -71.85543419 40.21739607     2    221   225   226   227
H 935.81541681 -70.14453904 41.37501015     6    224    0    0    0
H 937.64951453 -71.65264266 38.90950887     6    224    0    0    0
C 933.61712977 -72.25639612 38.42167661     2    224   228   229   230
H 933.65036459 -73.79335953 37.20942461     6    227    0    0    0
H 931.99370043 -72.18195863 39.58905980     6    227    0    0    0
C 933.31001652 -70.15318390 36.64329510     2    227   231   232   233
H 933.51840530 -68.29601137 37.67016639     6    230    0    0    0
H 934.91489085 -70.22302411 35.25146130     6    230    0    0    0
C 930.70813541 -70.21966458 35.29390529     2    230   234   235   236
H 930.73672730 -71.74494592 33.86911881     6    233    0    0    0
H 929.28658919 -71.26210911 36.25692913     6    233    0    0    0
C 929.43596920 -67.71540506 34.41383470     1    233   237   238   239
H 929.36833080 -66.25244879 35.78952076     6    236    0    0    0
H 927.45944375 -67.97071693 33.69971738     6    236    0    0    0
H 930.48588842 -66.79008643 32.84709882     6    236    0    0    0
H 920.85550582 -82.99509285 72.24643879     6     241    0    0    0 
C 921.69103545 -83.68193006 70.45947927     1     240    242    243    244
H 920.13571807 -83.85436783 69.16811134     6     241    0    0    0
H 922.71677185 -82.09164674 69.80837263     6     241    0    0    0
C 923.17811313 -86.14902769 70.48378001     2     241    245    246    247
H 921.81953681 -87.63780825 71.17430950     6     244    0    0    0
H 923.58825430 -86.64163139 68.62233384     6     244    0    0    0
C 925.48460423 -85.92524122 72.26744390     2     244    248   249   250
H 926.54106200 -87.60149145 72.20555199     6     247    0    0    0
H 926.92837593 -84.77243563 71.39946277     6     247    0    0    0
C 924.99575671 -85.12416165 74.98387209     2     247   251   252   253
H 926.96340324 -84.81515248 75.65875643     6    250    0    0    0
H 924.20812284 -83.24354039 75.31625106     6    250    0    0    0
C 923.68566158 -87.15011000 76.67128224     2    250   254   255   256
H 921.71350402 -87.40981885 76.15156795     6    253    0    0    0
H 924.42044763 -89.05638725 76.47759578     6    253    0    0    0
C 923.77245934 -86.21414875 79.42757114     2    253   257   258   259
H 925.53905923 -85.41618194 79.91350996     6    256    0    0    0
H 922.75458506 -84.52007640 79.52461159     6    256    0    0    0
C 923.09121256 -88.40570780 81.19226986     2    256   260   261   262
H 921.05144013 -88.59420968 81.29576250     6    259    0    0    0
H 923.82633892 -90.15814363 80.51376521     6    259    0    0    0
C 923.85188370 -88.08115818 83.95962621     2    259   263   264   265
H 925.62177831 -86.98685465 84.09219317     6    262    0    0    0
H 922.47531741 -86.71979004 84.68130979     6    262    0    0    0
C 923.80596048 -90.50936180 85.61695646     2    262   266   267   268
H 923.61737332 -89.96923447 87.59640908     6    265    0    0    0
H 922.14236719 -91.57427775 85.10663009     6    265    0    0    0
C 926.31687377 -92.17612744 85.35381161     2    265   269   270   271
H 926.83752207 -92.51565066 83.30011850     6    268    0    0    0
H 928.08766608 -91.13622456 86.09665702     6    268    0    0    0
C 926.10733152 -94.78510646 86.73428044     2    268   272   273   274
H 925.12071798 -94.51106207 88.56408790     6    271    0    0    0
H 925.16806798 -96.23315856 85.80201949     6    271    0    0    0
C 928.65077483 -95.98314262 87.19023669     1    271   275   276   277
H 929.51481364 -96.66697465 85.31065778     6    274    0    0    0
H 928.32470548 -97.61310584 88.38414455     6    274    0    0    0
H 930.11233249 -94.88293605 88.17052149     6    274    0    0    0
H 943.61149576 -84.60345375 57.10382088     6     279    0    0    0 
C 941.80507903 -85.18625647 56.29852105     1     278    280    281    282
H 942.16296934 -85.04612446 54.28724340     6     279    0    0    0
H 941.50130594 -87.03180294 56.97771859     6     279    0    0    0
C 939.62849730 -83.28458506 56.84526511     2     279    283    284    285
H 939.25621629 -83.19906928 58.72024133     6     282    0    0    0
H 940.08261057 -81.43765357 56.01510491     6     282    0    0    0
C 937.18714251 -84.23726607 55.46970382     2     282    286   287   288
H 937.73545432 -85.14591112 53.62766982     6     285    0    0    0
H 936.20688178 -85.67988279 56.42684092     6     285    0    0    0
C 935.27176086 -82.12176127 54.69890242     2     285   289   290   291
H 934.54503742 -81.04347967 56.24138294     6    288    0    0    0
H 936.02193919 -80.68006144 53.37930748     6    288    0    0    0
C 933.03547143 -83.30166116 53.34916620     2    288   292   293   294
H 933.02509960 -82.91374742 51.36237665     6    291    0    0    0
H 933.14085505 -85.31736815 53.68718078     6    291    0    0    0
C 930.47074359 -82.29384667 54.28394657     2    291   295   296   297
H 930.26870711 -83.18171644 56.09020526     6    294    0    0    0
H 930.23674651 -80.33091366 54.47463791     6    294    0    0    0
C 928.37432948 -83.40020204 52.60461279     2    294   298   299   300
H 928.46247349 -82.90005584 50.60204013     6    297    0    0    0
H 928.38508667 -85.40572247 52.52641423     6    297    0    0    0
C 925.66510884 -82.56096766 53.39128788     2    297   301   302   303
H 925.47039786 -82.57465350 55.50075528     6    300    0    0    0
H 925.51023301 -80.54019115 53.02067467     6    300    0    0    0
C 923.43326877 -83.85686645 51.93686526     2    300   304   305   306
H 923.58973482 -83.97181003 49.92365005     6    303    0    0    0
H 923.49554069 -85.81458301 52.54759583     6    303    0    0    0
C 920.95433643 -82.69966059 52.56936918     2    303   307   308   309
H 920.90042418 -82.85161478 54.62617292     6    306    0    0    0
H 921.22992168 -80.88078666 51.87043476     6    306    0    0    0
C 918.80412651 -84.25359672 51.40542543     2    306   310   311   312
H 918.78672261 -83.75253253 49.50963642     6    309    0    0    0
H 918.92411124 -86.30588266 51.65501415     6    309    0    0    0
C 916.25350649 -83.19460811 52.11098993     1    309   313   314   315
H 916.06976733 -81.18229995 51.75456971     6    312    0    0    0
H 916.16403637 -83.62226536 54.18727252     6    312    0    0    0
H 914.89789232 -84.15428184 51.05662695     6    312    0    0    0
H 953.38117248 -73.09803225 77.95047010     6     317    0    0    0 
C 954.12743819 -71.60262846 79.11378012     1     316    318    319    320
H 953.13489815 -71.97433536 80.83408539     6     317    0    0    0
H 956.23714081 -71.82831521 79.20312089     6     317    0    0    0
C 953.38002901 -68.97065658 78.00556479     2     317    321    322    323
H 954.43507653 -67.49647448 79.06501595     6     320    0    0    0
H 954.12177931 -68.83061431 76.12648692     6     320    0    0    0
C 950.58346004 -68.44576152 78.00855972     2     320    324   325   326
H 949.29557088 -69.67170562 77.00484102     6     323    0    0    0
H 949.72435953 -68.43936121 79.88336480     6     323    0    0    0
C 950.02151818 -65.59378740 77.32167611     2     323   327   328   329
H 951.07927197 -64.31567818 78.56264443     6    326    0    0    0
H 950.87547365 -65.19880436 75.31927036     6    326    0    0    0
C 947.33918805 -64.66567869 77.52155633     2    326   330   331   332
H 946.27903309 -66.00755203 76.33845352     6    329    0    0    0
H 946.51762242 -65.00898165 79.36636223     6    329    0    0    0
C 947.09698619 -61.86733662 76.57065916     2    329   333   334   335
H 948.12366652 -60.49927995 77.78218198     6    332    0    0    0
H 948.08060015 -61.60450263 74.79676132     6    332    0    0    0
C 944.27785046 -61.38046685 76.35618726     2    332   336   337   338
H 943.34631061 -62.04248797 74.60028383     6    335    0    0    0
H 943.15261683 -61.89894208 78.04666856     6    335    0    0    0
C 943.87789389 -58.42895965 76.17328184     2    335   339   340   341
H 941.91365724 -57.94537676 76.30183344     6    338    0    0    0
H 944.80513928 -57.52042650 77.71142402     6    338    0    0    0
C 944.60895750 -57.18952681 73.62589381     2    338   342   343   344
H 946.68333946 -57.04398309 73.58672646     6    341    0    0    0
H 943.93874463 -58.12392286 72.01802830     6    341    0    0    0
C 943.59876389 -54.45707638 73.45411990     2    341   345   346   347
H 944.33864076 -53.88464564 71.62257904     6    344    0    0    0
H 941.48930072 -54.30990798 73.04893666     6    344    0    0    0
C 944.55554490 -52.62321748 75.40082839     2    344   348   349   350
H 943.52225340 -53.03985625 77.21884045     6    347    0    0    0
H 946.54436702 -52.69774084 75.83091849     6    347    0    0    0
C 943.90677018 -49.90201649 74.63698038     1    347   351   352   353
H 944.12457086 -48.54701269 76.21339834     6    350    0    0    0
H 941.95886625 -49.84756129 73.88198993     6    350    0    0    0
H 944.98028351 -49.21439487 72.96692557     6    350    0    0    0
H 931.92851900 -90.08122466 68.07914572     6     355    0    0    0 
C 933.03649000 -88.32958907 68.09570611     1     354    356    357    358
H 931.67008066 -86.97424462 67.12977671     6     355    0    0    0
H 933.08790409 -87.80186450 70.02330031     6     355    0    0    0
C 935.61912951 -88.41282077 66.78466743     2     355    359    360    361
H 936.59619335 -90.05634363 67.39676125     6     358    0    0    0
H 935.24546412 -88.71733613 64.83003556     6     358    0    0    0
C 937.21779489 -85.96411445 66.82116752     2     358    362   363   364
H 935.97508769 -84.52578646 65.82522849     6     361    0    0    0
H 938.01536830 -85.26287248 68.64870562     6     361    0    0    0
C 939.41410596 -86.19152542 64.88273599     2     361   365   366   367
H 940.34074711 -87.90409248 65.47510581     6    364    0    0    0
H 938.68299165 -86.46024852 62.85088331     6    364    0    0    0
C 941.39711640 -84.00684578 65.25760563     2    364   368   369   370
H 940.33159024 -82.21608402 64.82870697     6    367    0    0    0
H 941.97819419 -83.92441879 67.21081155     6    367    0    0    0
C 943.83305491 -84.33960963 63.46828173     2    367   371   372   373
H 944.71555702 -86.25755299 63.49900757     6    370    0    0    0
H 943.10000904 -84.06773622 61.56360129     6    370    0    0    0
C 946.20312356 -82.58669788 63.77518773     2    370   374   375   376
H 945.71296755 -80.82529535 63.01841763     6    373    0    0    0
H 946.65546170 -82.36377440 65.84291167     6    373    0    0    0
C 948.73137218 -83.35976238 62.42801888     2    373   377   378   379
H 949.32715357 -85.03670132 63.36111372     6    376    0    0    0
H 948.76583583 -83.64141841 60.40210494     6    376    0    0    0
C 950.84536167 -81.53907315 62.87229031     2    376   380   381   382
H 950.38477350 -79.47899261 62.56501805     6    379    0    0    0
H 951.26268138 -81.83128998 64.92361649     6    379    0    0    0
C 953.11184349 -82.16690297 61.13698863     2    379   383   384   385
H 953.88925315 -84.05539315 61.53589605     6    382    0    0    0
H 952.65693756 -82.27165664 59.11924125     6    382    0    0    0
C 955.26330173 -80.28533091 61.29103866     2    382   386   387   388
H 956.79743172 -81.05453273 60.21708026     6    385    0    0    0
H 954.49576740 -78.44975224 60.59886005     6    385    0    0    0
C 956.36672670 -79.85683641 64.04395124     1    385   389   390   391
H 957.15623547 -81.66187319 64.80173546     6    388    0    0    0
H 954.80199931 -79.43930656 65.31261152     6    388    0    0    0
H 957.74726905 -78.39601999 63.81796451     6    388    0    0    0
H 925.10973547 -37.95449447 82.44025940     6     393    0    0    0 
C 923.12208999 -37.80203367 82.01683053     1     392    394    395    396
H 922.14888184 -37.11942136 83.78388685     6     393    0    0    0
H 922.92369667 -36.39908714 80.52662158     6     393    0    0    0
C 922.35872042 -40.30611513 80.85457360     2     393    397    398    399
H 923.15610892 -40.28119926 78.94079192     6     396    0    0    0
H 923.34524385 -41.72766617 81.91413779     6     396    0    0    0
C 919.46752374 -41.05667641 80.93379897     2     396    400   401   402
H 918.48361049 -40.21991741 82.51889192     6     399    0    0    0
H 918.60991978 -39.96405176 79.43968223     6     399    0    0    0
C 919.03606397 -43.89148381 80.76154799     2     399   403   404   405
H 920.13008460 -44.70611774 79.15843175     6    402    0    0    0
H 920.04047446 -44.75156232 82.39718815     6    402    0    0    0
C 916.29521280 -44.77123087 80.47494876     2    402   406   407   408
H 915.29728072 -43.95603582 81.98084452     6    405    0    0    0
H 915.45751804 -44.19172432 78.80296504     6    405    0    0    0
C 916.17271372 -47.63993346 81.13957133     2    405   409   410   411
H 917.14318750 -48.74807395 79.80099681     6    408    0    0    0
H 917.43834804 -47.86148198 82.91155906     6    408    0    0    0
C 913.53470806 -48.86221768 81.32429361     2    408   412   413   414
H 912.16527592 -47.74249114 82.40694868     6    411    0    0    0
H 912.52388791 -48.90048603 79.50949821     6    411    0    0    0
C 913.48946978 -51.59397796 82.43563814     2    411   415   416   417
H 914.82905548 -52.72237796 81.33860640     6    414    0    0    0
H 914.24586868 -51.55593030 84.40996912     6    414    0    0    0
C 910.84834315 -52.56887929 82.39281474     2    414   418   419   420
H 909.83039615 -51.08086382 83.40224717     6    417    0    0    0
H 910.35080230 -52.58953118 80.50208993     6    417    0    0    0
C 910.65995428 -55.11215821 83.73167309     2    417   421   422   423
H 911.58284928 -56.53085729 82.65549530     6    420    0    0    0
H 911.52317965 -55.01293962 85.57270887     6    420    0    0    0
C 907.90258445 -55.84429281 83.99045679     2    420   424   425   426
H 907.84437509 -57.86457414 84.33929421     6    423    0    0    0
H 906.76920009 -54.92203817 85.53094004     6    423    0    0    0
C 906.35647851 -55.58778783 81.61539238     1    423   427   428   429
H 904.74148174 -56.87181023 81.63473975     6    426    0    0    0
H 907.21039872 -55.94071718 79.82581930     6    426    0    0    0
H 905.34713554 -53.71578444 81.52175764     6    426    0    0    0
H 923.98439342 -69.95624361 84.57203404     6     431    0    0    0 
C 925.28361170 -69.17443324 85.88020678     1     430    432    433    434
H 925.02631765 -70.31267589 87.59884733     6     431    0    0    0
H 927.29115260 -69.41441920 85.26621103     6     431    0    0    0
C 924.73971573 -66.36391464 86.34150032     2     431    435    436    437
H 924.24413833 -65.50413447 84.52400056     6     434    0    0    0
H 923.08250012 -66.10145829 87.42286632     6     434    0    0    0
C 927.09681966 -64.96427113 87.52415190     2     434    438   439   440
H 927.24717106 -65.62625790 89.44576690     6     437    0    0    0
H 928.69115147 -65.46951193 86.31841355     6     437    0    0    0
C 926.76258909 -62.05954314 87.79053705     2     437   441   442   443
H 928.52185836 -61.25242071 88.43789870     6    440    0    0    0
H 926.53486212 -61.16293171 86.04782514     6    440    0    0    0
C 924.88741322 -61.11522578 89.83458073     2    440   444   445   446
H 923.00344610 -61.19762432 89.27796505     6    443    0    0    0
H 925.12406518 -62.15040277 91.61883164     6    443    0    0    0
C 925.31115287 -58.31533568 90.41260517     2    443   447   448   449
H 927.29716663 -58.06833944 91.18367957     6    446    0    0    0
H 925.29904505 -57.10498857 88.73590548     6    446    0    0    0
C 923.42380809 -56.98455387 92.22188278     2    446   450   451   452
H 921.69190521 -58.21542879 92.39769601     6    449    0    0    0
H 924.11372746 -56.94796744 94.13015582     6    449    0    0    0
C 922.30790275 -54.59228279 91.17291741     2    449   453   454   455
H 923.77744049 -53.45594146 90.94420157     6    452    0    0    0
H 921.37686498 -55.05739362 89.33187301     6    452    0    0    0
C 920.43900151 -53.55710138 92.91727152     2    452   456   457   458
H 918.85291256 -54.90831883 92.92690676     6    455    0    0    0
H 920.97476451 -53.35296264 94.99825405     6    455    0    0    0
C 919.31784966 -50.94578605 92.28586740     2    455   459   460   461
H 918.09716614 -50.64360114 93.93164480     6    458    0    0    0
H 920.62718683 -49.52174429 92.73047140     6    458    0    0    0
C 918.09359163 -50.46800614 89.67246731     2    458   462   463   464
H 919.57611436 -50.87649692 88.27335870     6    461    0    0    0
H 916.63012419 -51.89467357 89.34682665     6    461    0    0    0
C 917.04053723 -47.82472692 89.40044779     1    461   465   466   467
H 918.46300783 -46.25363003 89.46259663     6    464    0    0    0
H 915.53321942 -47.39473082 90.63616335     6    464    0    0    0
H 916.17713427 -47.93196658 87.52103789     6    464    0    0    0
H 954.18806932 -85.26348568 67.21901817     6     469    0    0    0 
C 954.17729262 -85.97601771 69.12881088     1     468    470    471    472
H 954.25141820 -87.90715258 69.00254799     6     469    0    0    0
H 955.92070997 -85.35597297 69.94809101     6     469    0    0    0
C 951.70691337 -85.21122074 70.50101502     2     469    473    474    475
H 951.80272354 -85.67993627 72.48567335     6     472    0    0    0
H 951.86041967 -83.18900367 70.36223163     6     472    0    0    0
C 949.35348009 -86.50527053 69.43358285     2     472    476   477   478
H 948.60660062 -85.80891297 67.57885562     6     475    0    0    0
H 949.88790902 -88.54070830 69.09454427     6     475    0    0    0
C 947.19042642 -86.39985026 71.36532270     2     475   479   480   481
H 947.80276466 -86.78064320 73.38128043     6    478    0    0    0
H 946.27348507 -84.55737844 71.24373728     6    478    0    0    0
C 944.95644661 -88.23626148 70.43601436     2    478   482   483   484
H 944.60219148 -87.90144406 68.46489774     6    481    0    0    0
H 945.73385949 -90.17357010 70.52579905     6    481    0    0    0
C 942.59540507 -88.19647908 72.10533880     2    481   485   486   487
H 943.41050691 -88.22882640 74.06646905     6    484    0    0    0
H 941.58170411 -86.41923443 71.91576304     6    484    0    0    0
C 940.86924511 -90.47159493 71.67279986     2    484   488   489   490
H 940.24077078 -90.45510031 69.74100322     6    487    0    0    0
H 941.72882721 -92.26801336 72.04528476     6    487    0    0    0
C 938.54579044 -90.21597635 73.39029442     2    487   491   492   493
H 938.88051419 -90.44748393 75.42162311     6    490    0    0    0
H 937.54463239 -88.50979888 72.92250708     6    490    0    0    0
C 936.68123607 -92.26855941 72.76858861     2    490   494   495   496
H 935.84176912 -91.86738483 71.00845531     6    493    0    0    0
H 937.80934858 -93.99303172 72.73170172     6    493    0    0    0
C 934.61735617 -92.57698286 74.70402386     2    493   497   498   499
H 935.71167596 -93.18093423 76.38870028     6    496    0    0    0
H 933.74630567 -90.66154316 75.13274964     6    496    0    0    0
C 932.79111271 -94.70209680 74.03827799     2    496   500   501   502
H 932.47054815 -94.64501418 72.00806905     6    499    0    0    0
H 933.46799411 -96.64965254 74.52323125     6    499    0    0    0
C 930.13719013 -94.56433807 75.59927355     1    499   503   504   505
H 929.03790546 -96.05201319 74.97519555     6    502    0    0    0
H 929.03082521 -92.88288700 75.02485080     6    502    0    0    0
H 930.19714484 -95.03085411 77.64141692     6    502    0    0    0
H 920.17259674 -84.62344468 88.41491582     6     507    0    0    0 
C 918.83938930 -83.54828905 87.32311761     1     506    508    509    510
H 918.08311692 -84.77945677 85.76723251     6     507    0    0    0
H 917.20796107 -83.04963924 88.55594015     6     507    0    0    0
C 920.04590148 -81.05519807 86.32464116     2     507    511    512    513
H 920.75479238 -79.96689426 87.84375041     6     510    0    0    0
H 921.65501852 -81.62963849 85.14770778     6     510    0    0    0
C 918.06794718 -79.30393836 85.18932811     2     510    514   515   516
H 917.00195893 -80.28595486 83.66944466     6     513    0    0    0
H 916.66214883 -79.03066348 86.66768143     6     513    0    0    0
C 919.31349604 -76.96701456 83.95495816     2     513   517   518   519
H 920.09395569 -75.83574941 85.38141973     6    516    0    0    0
H 920.93783067 -77.47625791 82.87506404     6    516    0    0    0
C 917.85951077 -75.43068201 82.17132075     2    516   520   521   522
H 917.99858114 -76.17366015 80.22477932     6    519    0    0    0
H 915.90216519 -75.53172166 82.71453310     6    519    0    0    0
C 918.72908697 -72.65506675 82.00917642     2    519   523   524   525
H 919.11225122 -71.82791573 83.92825240     6    522    0    0    0
H 920.61632856 -72.61803889 81.13253054     6    522    0    0    0
C 916.62980076 -71.19810293 80.56616463     2    522   526   527   528
H 916.03644288 -72.12138127 78.75915514     6    525    0    0    0
H 914.94816603 -71.10809123 81.87833214     6    525    0    0    0
C 917.41753503 -68.51472761 79.92207362     2    525   529   530   531
H 917.71163323 -67.41820985 81.56483528     6    528    0    0    0
H 919.17909582 -68.54547827 78.86168207     6    528    0    0    0
C 915.38345360 -67.29173882 78.25665966     2    528   532   533   534
H 915.49101985 -67.99079634 76.36802796     6    531    0    0    0
H 913.44463064 -67.52558037 78.96981331     6    531    0    0    0
C 915.89028682 -64.39214237 78.03474538     2    531   535   536   537
H 916.24273648 -63.58556860 79.89728285     6    534    0    0    0
H 917.72680562 -64.14246794 77.08373618     6    534    0    0    0
C 913.69491011 -62.96255432 76.89227183     2    534   538   539   540
H 913.39948428 -63.76866005 74.94648654     6    537    0    0    0
H 912.04429769 -63.44665802 78.01158690     6    537    0    0    0
C 914.05544457 -60.07849765 76.87423295     1    537   541   542   543
H 912.66743469 -59.44044442 75.65306989     6    540    0    0    0
H 915.66905424 -59.48611582 75.82560233     6    540    0    0    0
H 914.27592493 -59.55014653 78.87993622     6    540    0    0    0
H 929.50731403 -48.62803182 73.00834900     6     545    0    0    0 
C 931.13170208 -47.69793787 73.57988225     1     544    546    547    548
H 930.50855609 -46.17623682 74.73471035     6     545    0    0    0
H 932.39241694 -49.02283897 74.60757460     6     545    0    0    0
C 932.43402962 -46.73543437 71.26452321     2     545    549    550    551
H 932.24127354 -48.30296515 69.93224077     6     548    0    0    0
H 931.31932887 -45.15410050 70.40529963     6     548    0    0    0
C 935.17418228 -45.77544913 71.65736402     2     548    552   553   554
H 935.62938054 -44.39844092 73.00382379     6     551    0    0    0
H 936.37587136 -47.14608957 72.62600277     6     551    0    0    0
C 936.52291975 -45.19001980 69.12049141     2     551   555   556   557
H 935.94401656 -46.63157536 67.74948076     6    554    0    0    0
H 935.79238098 -43.43787264 68.51651075     6    554    0    0    0
C 939.33422564 -45.19525312 69.17852778     2    554   558   559   560
H 939.81702921 -43.85509437 70.54538492     6    557    0    0    0
H 940.01134462 -47.02921283 69.89234852     6    557    0    0    0
C 940.39493246 -44.84177744 66.54854036     2    557   561   562   563
H 942.25127018 -45.61347940 66.48458515     6    560    0    0    0
H 939.36863339 -45.87860414 65.17884122     6    560    0    0    0
C 940.53160235 -42.07437438 65.78187809     2    560   564   565   566
H 938.52792412 -41.39849840 65.36849459     6    563    0    0    0
H 941.35756354 -40.89989404 67.21072906     6    563    0    0    0
C 942.18605555 -41.64977939 63.30535879     2    563   567   568   569
H 941.67193014 -39.59787105 62.62405736     6    566    0    0    0
H 944.14159319 -41.53180372 63.74120063     6    566    0    0    0
C 941.72171527 -43.09475180 60.78838571     2    566   570   571   572
H 942.73161528 -44.97347606 60.73931446     6    569    0    0    0
H 939.73812564 -43.44619881 60.90526810     6    569    0    0    0
C 942.45513360 -41.82910583 58.39797286     2    569   573   574   575
H 942.10939688 -39.79548648 58.25578145     6    572    0    0    0
H 944.52166327 -41.86382858 58.29850134     6    572    0    0    0
C 941.34436812 -43.28260105 56.15177197     2    572   576   577   578
H 939.32022384 -43.44867349 56.16954020     6    575    0    0    0
H 941.98974159 -42.05903244 54.56424159     6    575    0    0    0
C 942.68253543 -45.74927166 55.49094666     1    575   579   580   581
H 944.73074903 -45.61751294 55.82856042     6    578    0    0    0
H 942.43408551 -46.40126966 53.59839629     6    578    0    0    0
H 941.82578651 -46.99121962 56.85022702     6    578    0    0    0
H 947.82923307 -72.12122834 60.64493482     6     583    0    0    0 
C 949.38351421 -71.66038050 61.78355261     1     582    584    585    586
H 949.12499447 -72.86475761 63.49508746     6     583    0    0    0
H 951.02353744 -72.46370654 60.71243970     6     583    0    0    0
C 949.91901843 -69.08535201 63.02819249     2     583    587    588    589
H 948.14155957 -68.60411339 63.54607511     6     586    0    0    0
H 950.82770539 -69.29166399 64.89979548     6     586    0    0    0
C 951.21792349 -67.24417314 61.17813367     2     586    590   591   592
H 953.04728042 -67.95296924 60.98719923     6     589    0    0    0
H 950.61633819 -67.49380673 59.33531407     6     589    0    0    0
C 951.10760314 -64.54279916 62.25629760     2     589   593   594   595
H 949.15481643 -63.70643003 62.27570359     6    592    0    0    0
H 951.65351842 -64.56388903 64.26805892     6    592    0    0    0
C 952.85027648 -62.75783213 60.82452289     2    592   596   597   598
H 954.63886189 -63.59725666 60.35767833     6    595    0    0    0
H 952.02889201 -62.30433752 58.97983832     6    595    0    0    0
C 953.48723140 -60.31333663 62.12164690     2    595   599   600   601
H 951.77090853 -59.19479815 62.32483574     6    598    0    0    0
H 954.13108397 -61.00292736 63.96180248     6    598    0    0    0
C 955.63126839 -58.72578715 60.72826435     2    598   602   603   604
H 957.53796524 -59.62823784 60.83774704     6    601    0    0    0
H 955.24429468 -58.68507565 58.62027534     6    601    0    0    0
C 955.66864583 -55.83358260 61.58030903     2    601   605   606   607
H 953.96604508 -54.98678096 60.82344563     6    604    0    0    0
H 955.24300194 -55.76495224 63.56114982     6    604    0    0    0
C 958.19022074 -54.45885541 61.06667186     2    604   608   609   610
H 959.66543191 -55.39256396 62.13558691     6    607    0    0    0
H 958.73144158 -54.60871835 59.01038083     6    607    0    0    0
C 958.19145367 -51.61909336 61.61576844     2    607   611   612   613
H 956.72112314 -50.66105617 60.63647354     6    610    0    0    0
H 957.79248096 -51.22577362 63.67919671     6    610    0    0    0
C 960.61882486 -50.18932800 60.93203303     2    610   614   615   616
H 962.14435718 -50.96318172 62.19892729     6    613    0    0    0
H 961.11232441 -50.98133320 59.10983535     6    613    0    0    0
C 960.33687955 -47.26160263 60.75594241     1    613   617   618   619
H 958.65191777 -46.36979075 59.99100120     6    616    0    0    0
H 962.11634492 -46.22248901 60.22844283     6    616    0    0    0
H 960.29201159 -46.49639414 62.73589794     6    616    0    0    0
H 916.73942016 -55.65219958 64.77692633     6     621    0    0    0 
C 917.95687219 -55.04860312 63.28682406     1     620    622    623    624
H 917.17910107 -53.09562290 63.07477127     6     621    0    0    0
H 919.85986510 -54.78614309 63.99352137     6     621    0    0    0
C 918.14264813 -56.91559787 61.00266444     2     621    625    626    627
H 919.77849191 -56.58643606 59.81419466     6     624    0    0    0
H 918.38342712 -59.02238697 61.74798746     6     624    0    0    0
C 915.74035413 -57.03394300 59.38442866     2     624    628   629   630
H 914.06301949 -57.41275136 60.40172028     6     627    0    0    0
H 915.43505514 -55.06024470 58.69015062     6     627    0    0    0
C 916.04884749 -58.79136924 57.12527417     2     627   631   632   633
H 917.91617160 -58.56727000 56.30797209     6    630    0    0    0
H 915.93636432 -60.58691662 58.09697261     6    630    0    0    0
C 914.06680098 -58.36265066 55.07113344     2    630   634   635   636
H 912.06523343 -58.33919299 55.75083402     6    633    0    0    0
H 914.09833310 -56.37285939 54.60569566     6    633    0    0    0
C 914.72285311 -60.05867872 52.69519893     2    633   637   638   639
H 916.58668582 -59.81396027 52.27865910     6    636    0    0    0
H 914.37146689 -61.96624018 53.20870536     6    636    0    0    0
C 913.34294469 -59.70738388 50.18919121     2    636   640   641   642
H 911.27920232 -60.21498187 50.34342301     6    639    0    0    0
H 913.48270764 -57.68677005 49.76954170     6    639    0    0    0
C 914.56949060 -61.07563062 48.09691035     2    639   643   644   645
H 916.54887621 -60.91333104 48.03874824     6    642    0    0    0
H 914.22254361 -63.02712183 48.52370633     6    642    0    0    0
C 913.17233474 -60.58686569 45.54127515     2    642   646   647   648
H 911.39515222 -61.47084528 45.61658970     6    645    0    0    0
H 912.86292166 -58.54359751 45.46438824     6    645    0    0    0
C 914.56366904 -61.46668579 43.10601093     2    645   649   650   651
H 916.58554606 -60.76833723 43.37919410     6    648    0    0    0
H 914.59188090 -63.46701086 43.10485250     6    648    0    0    0
C 913.44277455 -60.49532626 40.59044997     2    648   652   653   654
H 911.43367801 -60.46131604 40.46222506     6    651    0    0    0
H 913.77198943 -58.54785379 40.51126328     6    651    0    0    0
C 914.83349917 -61.87756610 38.29687028     1    651   655   656   657
H 916.94375245 -61.58083544 38.57085701     6    654    0    0    0
H 914.35747246 -61.02555158 36.54046170     6    654    0    0    0
H 914.37780062 -63.87921993 38.39218497     6    654    0    0    0
H 944.80095152 -70.08033802 57.63532617     6     659    0    0    0 
C 944.54127700 -68.16932113 58.25986848     1     658    660    661    662
H 942.97011265 -68.44423501 59.53368215     6     659    0    0    0
H 946.21855552 -67.54395727 59.12932973     6     659    0    0    0
C 943.70131428 -66.26351822 56.15123034     2     659    663    664    665
H 945.12880442 -66.09157441 54.72150474     6     662    0    0    0
H 942.08286347 -67.07795212 55.32328472     6     662    0    0    0
C 942.98292380 -63.57822237 56.82990207     2     662    666   667   668
H 942.72367150 -62.42711355 55.27283851     6     665    0    0    0
H 941.12044206 -63.80058544 57.76648931     6     665    0    0    0
C 944.79929206 -62.22198795 58.71193688     2     665   669   670   671
H 945.11723436 -63.47776318 60.29532431     6    668    0    0    0
H 946.64839850 -61.88225468 57.87911317     6    668    0    0    0
C 943.55622941 -59.90835204 59.92788888     2    668   672   673   674
H 943.05396725 -58.66720065 58.31572467     6    671    0    0    0
H 941.95593398 -60.40460286 61.00507668     6    671    0    0    0
C 945.61642041 -58.48676435 61.46023978     2    671   675   676   677
H 944.76430857 -57.47302415 63.03925772     6    674    0    0    0
H 946.90938729 -59.64986103 62.51300642     6    674    0    0    0
C 947.34457688 -56.63112997 60.18454493     2    674   678   679   680
H 948.86897029 -56.32938574 61.46107201     6    677    0    0    0
H 948.34496566 -57.56067984 58.67161964     6    677    0    0    0
C 945.84720638 -54.43047483 58.90260093     2    677   681   682   683
H 944.76092498 -55.21535818 57.32727809     6    680    0    0    0
H 944.54491403 -53.58630270 60.18650268     6    680    0    0    0
C 947.63740442 -52.43704381 57.66004877     2    680   684   685   686
H 949.02896577 -53.48249564 56.67350741     6    683    0    0    0
H 946.44330086 -51.28356001 56.42263062     6    683    0    0    0
C 948.88866916 -50.45563224 59.46006355     2    683   687   688   689
H 947.48155953 -49.35196974 60.53064579     6    686    0    0    0
H 949.83275009 -51.59512048 60.78895348     6    686    0    0    0
C 950.89589273 -48.58181171 58.29798820     2    686   690   691   692
H 952.54574789 -49.71551772 57.61888064     6    689    0    0    0
H 950.05052218 -47.63772217 56.69215316     6    689    0    0    0
C 951.76515798 -46.59039301 60.19825098     1    689   693   694   695
H 953.46491729 -45.59062738 59.63432510     6    692    0    0    0
H 952.47119070 -47.51122428 61.84675695     6    692    0    0    0
H 950.16645355 -45.33849411 60.80334797     6    692    0    0    0
H 935.12749740 -30.42800824 64.77106909     6     697    0    0    0 
C 933.64650822 -31.40797064 65.87416699     1     696    698    699    700
H 933.09221009 -30.07774905 67.18414632     6     697    0    0    0
H 932.32357005 -31.66288009 64.38663247     6     697    0    0    0
C 934.58701770 -33.62855206 67.33357811     2     697    701    702    703
H 935.05311504 -35.06974082 66.01263395     6     700    0    0    0
H 936.37823323 -33.15308894 68.37359998     6     700    0    0    0
C 932.48452914 -34.47133965 69.29895607     2     700    704   705   706
H 931.84353979 -32.81324391 70.25140465     6     703    0    0    0
H 930.92597299 -35.09714570 68.08884184     6     703    0    0    0
C 933.50183342 -36.43858205 71.21524787     2     703   707   708   709
H 934.64546581 -38.03678677 70.57049321     6    706    0    0    0
H 935.02314326 -35.50256256 72.47343206     6    706    0    0    0
C 931.36972246 -37.56972530 72.81673876     2    706   710   711   712
H 929.70799373 -36.33162978 73.04710692     6    709    0    0    0
H 930.48289793 -38.91691065 71.59909223     6    709    0    0    0
C 932.36300855 -38.70399853 75.30485642     2    709   713   714   715
H 933.96970397 -39.83479588 74.95059769     6    712    0    0    0
H 933.09174106 -37.18787375 76.40168520     6    712    0    0    0
C 930.34319051 -39.93480681 76.94203319     2    712   716   717   718
H 929.41695047 -38.39360014 77.74488670     6    715    0    0    0
H 928.79594187 -40.81027030 75.86198339     6    715    0    0    0
C 931.51842392 -41.83456372 78.75600626     2    715   719   720   721
H 932.15311495 -43.48706756 77.82349379     6    718    0    0    0
H 933.24484218 -40.95943314 79.64141381     6    718    0    0    0
C 929.66537246 -42.66788991 80.78163073     2    718   722   723   724
H 928.64272762 -41.17195176 81.61094284     6    721    0    0    0
H 928.26100740 -43.97000464 79.92810594     6    721    0    0    0
C 931.05396540 -44.17180554 82.87315811     2    721   725   726   727
H 932.39162665 -45.54913306 82.02273759     6    724    0    0    0
H 932.45124023 -42.87120712 83.77583196     6    724    0    0    0
C 929.36054352 -45.69738618 84.79062543     2    724   728   729   730
H 927.96473988 -46.92312678 83.83634982     6    727    0    0    0
H 930.65591004 -46.99889724 85.63855446     6    727    0    0    0
C 928.08413303 -44.17920609 86.99059791     1    727   731   732   733
H 927.06992431 -45.26609808 88.34454566     6    730    0    0    0
H 926.77014784 -42.84771460 86.23822185     6    730    0    0    0
H 929.43857169 -43.26326698 88.13972109     6    730    0    0    0
H 951.50271406 -74.47091269 71.23227110     6     735    0    0    0 
C 949.74319133 -75.51546830 71.04987584     1     734    736    737    738
H 948.31091309 -74.24179323 71.79478486     6     735    0    0    0
H 949.46872810 -75.96670453 69.01105553     6     735    0    0    0
C 949.58794645 -77.86167438 72.86708793     2     735    739    740    741
H 950.85786717 -79.25678461 72.22544636     6     738    0    0    0
H 950.38137840 -77.22574547 74.69577616     6     738    0    0    0
C 946.87159528 -78.91516184 73.03674021     2     738    742   743   744
H 945.63441172 -77.29261811 72.89923622     6     741    0    0    0
H 946.54482307 -79.71387265 71.28699387     6     741    0    0    0
C 946.43246506 -80.50427189 75.28025468     2     741   745   746   747
H 947.31866509 -82.39681158 75.16758411     6    744    0    0    0
H 947.35033589 -79.47851790 76.79644826     6    744    0    0    0
C 943.62674415 -81.01372459 75.54138497     2    744   748   749   750
H 942.71908364 -79.21514677 75.00160430     6    747    0    0    0
H 943.17918550 -82.34787902 74.06051323     6    747    0    0    0
C 943.03963391 -82.14904912 78.17011697     2    747   751   752   753
H 943.93232164 -83.98496572 78.57941698     6    750    0    0    0
H 943.75851400 -80.68598608 79.50299437     6    750    0    0    0
C 940.30383068 -82.48203696 78.51529067     2    750   754   755   756
H 939.87990686 -82.17567729 80.43793270     6    753    0    0    0
H 939.40580594 -80.91507430 77.43454396     6    753    0    0    0
C 939.36426018 -85.03362857 77.71437717     2    753   757   758   759
H 939.91263253 -85.39521159 75.80227568     6    756    0    0    0
H 940.15292705 -86.48722049 78.95731347     6    756    0    0    0
C 936.55567456 -84.92558549 77.66491300     2    756   760   761   762
H 936.04482065 -82.99452908 78.02454304     6    759    0    0    0
H 935.73772045 -85.13171517 75.71741523     6    759    0    0    0
C 935.37690455 -86.86473573 79.39253750     2    759   763   764   765
H 935.87669615 -88.85861812 78.87752911     6    762    0    0    0
H 935.76617658 -86.54388336 81.37520237     6    762    0    0    0
C 932.50423283 -86.74197735 79.53629461     2    762   766   767   768
H 931.91955460 -84.94280358 79.62480959     6    765    0    0    0
H 931.58031058 -87.44005405 77.84529795     6    765    0    0    0
C 931.35578729 -87.94792626 81.83344407     1    765   769   770   771
H 931.60093773 -89.99020397 82.05883586     6    768    0    0    0
H 929.29218118 -87.80082713 81.79517306     6    768    0    0    0
H 932.08618634 -86.91011548 83.57094751     6    768    0    0    0
H 905.22088232 -53.45568080 48.51872783     6     773    0    0    0 
C 905.36810189 -55.34989480 49.31167135     1     772    774    775    776
H 903.46311883 -56.09137468 49.84221512     6     773    0    0    0
H 906.19163114 -56.54244248 47.92012423     6     773    0    0    0
C 907.11643558 -55.34327534 51.48429881     2     773    777    778    779
H 907.53799172 -57.35727347 52.25541347     6     776    0    0    0
H 908.95660470 -54.47427941 50.91057124     6     776    0    0    0
C 906.07085597 -53.70201108 53.77736462     2     776    780   781   782
H 905.95614792 -51.69390246 53.17355837     6     779    0    0    0
H 904.13979297 -54.18520184 54.38100046     6     779    0    0    0
C 907.54522999 -53.90021750 56.31373805     2     779   783   784   785
H 907.65902492 -55.89433942 56.87516368     6    782    0    0    0
H 909.50764780 -53.28988266 55.99427358     6    782    0    0    0
C 906.38771843 -52.13433543 58.33639588     2    782   786   787   788
H 907.02668146 -50.16201245 58.12579020     6    785    0    0    0
H 904.36990598 -51.98186171 57.95841038     6    785    0    0    0
C 906.78799155 -52.78886537 61.05499971     2    785   789   790   791
H 905.93449686 -54.64460370 61.46713334     6    788    0    0    0
H 908.81157786 -52.89679545 61.35062552     6    788    0    0    0
C 906.14906453 -50.77905804 63.04034720     2    788   792   793   794
H 907.37235678 -49.17460833 62.91571871     6    791    0    0    0
H 904.19906707 -49.89742901 62.83484486     6    791    0    0    0
C 906.25814609 -51.90549949 65.77927015     2    791   795   796   797
H 904.51324589 -52.97112963 66.27240335     6    794    0    0    0
H 907.83658513 -53.40452062 65.65178570     6    794    0    0    0
C 906.90800234 -50.13949522 67.99522022     2    794   798   799   800
H 908.51413574 -48.88687426 67.31860144     6    797    0    0    0
H 905.38151996 -48.79014552 68.51547714     6    797    0    0    0
C 908.10627641 -51.66962071 70.12672839     2    797   801   802   803
H 907.24189219 -53.29718205 70.60172554     6    800    0    0    0
H 909.86392771 -52.37068121 69.32684278     6    800    0    0    0
C 908.54881412 -49.81917081 72.29999753     2    800   804   805   806
H 909.23306930 -48.06609890 71.66855139     6    803    0    0    0
H 906.69914490 -49.61996978 73.21144278     6    803    0    0    0
C 910.13726005 -50.99611507 74.38361850     1    803   807   808   809
H 911.98594810 -51.23439202 73.76246160     6    806    0    0    0
H 909.27124352 -52.51119469 75.40847791     6    806    0    0    0
H 910.18839664 -49.52786451 75.76212845     6    806    0    0    0
H 943.84133837 -72.19469089 63.75364823     6     811    0    0    0 
C 942.53515371 -73.78960819 63.95790457     1     810    812    813    814
H 943.51153806 -75.47583282 64.31815381     6     811    0    0    0
H 941.57611815 -73.27497745 65.69290982     6     811    0    0    0
C 940.70968436 -74.27137891 61.70097660     2     811    815    816    817
H 939.53945457 -72.56156622 61.17271094     6     814    0    0    0
H 941.96321541 -74.48718806 60.12808055     6     814    0    0    0
C 939.08407551 -76.66922205 62.26478930     2     814    818   819   820
H 939.98971529 -78.28609128 61.50553425     6     817    0    0    0
H 938.83290752 -76.82066300 64.22652520     6     817    0    0    0
C 936.32275290 -76.57519601 61.19354724     2     817   821   822   823
H 935.57248440 -74.87263839 61.87971994     6    820    0    0    0
H 936.34044682 -76.64997337 59.06604572     6    820    0    0    0
C 934.59063486 -78.81958649 61.96102545     2    820   824   825   826
H 935.44016305 -80.53551430 61.47934068     6    823    0    0    0
H 934.35033074 -78.96915284 64.04617637     6    823    0    0    0
C 931.91402949 -78.34128839 61.09408316     2    823   827   828   829
H 931.33088585 -76.60800748 62.09149519     6    826    0    0    0
H 931.80435642 -77.84327382 59.08238668     6    826    0    0    0
C 929.98129087 -80.57436792 61.34016321     2    826   830   831   832
H 930.62899639 -82.13574344 60.13147687     6    829    0    0    0
H 930.06599181 -81.13777269 63.32077553     6    829    0    0    0
C 927.25137489 -79.91331214 60.59300083     2    829   833   834   835
H 926.62747714 -78.34417763 61.60837359     6    832    0    0    0
H 927.30422001 -79.25718349 58.63245192     6    832    0    0    0
C 925.63620402 -82.21091913 61.15867766     2    832   836   837   838
H 926.26241886 -83.86306156 60.03999427     6    835    0    0    0
H 925.87106414 -82.67471455 63.13626071     6    835    0    0    0
C 922.77941673 -81.57448331 60.53743559     2    835   839   840   841
H 922.43588752 -79.55175063 60.86592176     6    838    0    0    0
H 922.48934633 -82.07516807 58.51749453     6    838    0    0    0
C 921.03594189 -83.00222585 62.31486175     2    838   842   843   844
H 921.31075954 -85.04066673 62.18165408     6    841    0    0    0
H 921.25945040 -82.63089249 64.29997938     6    841    0    0    0
C 918.38797816 -82.49435689 61.56209725     1    841   845   846   847
H 918.10942494 -80.49480387 61.57820580     6    844    0    0    0
H 917.08167912 -83.28935731 62.94758617     6    844    0    0    0
H 918.21374426 -83.46262862 59.76860616     6    844    0    0    0
H 949.24437412 -40.53873499 49.50929098     6     849    0    0    0 
C 951.12261790 -40.82699834 50.33374902     1     848    850    851    852
H 952.22076950 -39.24240986 49.61697482     6     849    0    0    0
H 950.74416238 -40.82977003 52.32746685     6     849    0    0    0
C 952.41554103 -43.19528312 49.47066892     2     849    853    854    855
H 952.53135293 -43.29722726 47.34736649     6     852    0    0    0
H 954.32506872 -43.16722755 50.03633992     6     852    0    0    0
C 951.28177501 -45.53369785 50.83482639     2     852    856   857   858
H 951.45993151 -45.25461341 52.86630962     6     855    0    0    0
H 949.13090065 -45.50997635 50.49625150     6     855    0    0    0
C 952.62568949 -47.98674141 49.99599182     2     855   859   860   861
H 952.69909024 -48.29984459 47.91086646     6    858    0    0    0
H 954.57378076 -47.92585988 50.58948093     6    858    0    0    0
C 951.19420220 -50.24854845 51.21011725     2    858   862   863   864
H 951.64873841 -50.14108996 53.20331704     6    861    0    0    0
H 949.13840774 -50.14435735 50.84931814     6    861    0    0    0
C 952.22093350 -52.65487789 50.17947444     2    861   865   866   867
H 952.20148087 -52.87799479 48.02109589     6    864    0    0    0
H 954.34928449 -52.92376002 50.45858955     6    864    0    0    0
C 950.91179184 -54.87900252 51.35813655     2    864   868   869   870
H 951.34106068 -54.89565727 53.47189635     6    867    0    0    0
H 948.89833587 -54.54821546 50.98864004     6    867    0    0    0
C 951.76809095 -57.37806152 50.07831040     2    867   871   872   873
H 951.24075660 -57.23777035 48.07406878     6    870    0    0    0
H 953.73556766 -57.59138853 50.18299149     6    870    0    0    0
C 950.52775433 -59.55891035 51.42499803     2    870   874   875   876
H 951.45224278 -59.84459541 53.25546871     6    873    0    0    0
H 948.59418075 -59.25221158 51.88046781     6    873    0    0    0
C 950.94963540 -61.99597492 50.05776824     2    873   877   878   879
H 949.77263525 -61.93270618 48.28067010     6    876    0    0    0
H 952.89644793 -62.18458957 49.57436558     6    876    0    0    0
C 949.93499411 -64.16934239 51.64528299     2    876   880   881   882
H 950.95302316 -64.14673978 53.54812083     6    879    0    0    0
H 947.89769615 -64.30897772 51.68777983     6    879    0    0    0
C 950.61290111 -66.88290876 50.67773862     1    879   883   884   885
H 952.57735594 -67.02637677 51.04836427     6    882    0    0    0
H 950.37031231 -67.27369193 48.73149645     6    882    0    0    0
H 949.48276245 -68.19557246 51.73646049     6    882    0    0    0
H 921.94503166 -75.63114747 53.92037204     6     887    0    0    0 
C 922.12551471 -74.96602508 55.75919441     1     886    888    889    890
H 920.50469761 -73.74989075 56.37383528     6     887    0    0    0
H 922.15852601 -76.63125173 56.97110508     6     887    0    0    0
C 924.69028229 -73.52472521 55.61995217     2     887    891    892    893
H 925.93765582 -74.80666096 54.53869385     6     890    0    0    0
H 924.49707692 -71.79937873 54.68406146     6     890    0    0    0
C 925.62668198 -72.78378332 58.39853157     2     890    894   895   896
H 923.95876907 -72.08688369 59.31415039     6     893    0    0    0
H 926.35600784 -74.52924227 59.42635615     6     893    0    0    0
C 927.69973570 -70.85413448 58.45894475     2     893   897   898   899
H 929.03422791 -71.56926249 57.14091593     6    896    0    0    0
H 927.01505145 -69.10132908 57.63887581     6    896    0    0    0
C 928.93231164 -70.20874831 61.00059082     2    896   900   901   902
H 927.54832962 -68.95212479 61.99593697     6    899    0    0    0
H 928.98393818 -72.09784501 61.92669973     6    899    0    0    0
C 931.54088901 -68.95467174 60.68017280     2    899   903   904   905
H 932.40110465 -69.84573368 59.07670548     6    902    0    0    0
H 931.30197835 -67.09093639 60.01673991     6    902    0    0    0
C 933.43071648 -69.14782501 62.88075701     2    902   906   907   908
H 932.61677496 -68.52366742 64.57104221     6    905    0    0    0
H 934.02466022 -71.16021652 63.29466959     6    905    0    0    0
C 935.72165636 -67.58518286 62.47439314     2    905   909   910   911
H 936.83297173 -68.47533256 60.92607472     6    908    0    0    0
H 935.36452744 -65.69431795 61.94733153     6    908    0    0    0
C 937.40748331 -67.50061876 64.92568994     2    908   912   913   914
H 936.50588779 -66.98804788 66.68987253     6    911    0    0    0
H 937.92295317 -69.42621495 65.35321871     6    911    0    0    0
C 939.84561229 -66.05838948 64.54314285     2    911   915   916   917
H 940.57953029 -66.55525933 62.74403024     6    914    0    0    0
H 939.25649544 -64.16802798 64.28333296     6    914    0    0    0
C 941.61564821 -66.24555570 66.79106539     2    914   918   919   920
H 940.59044981 -65.63999030 68.56310219     6    917    0    0    0
H 941.97945527 -68.28713142 67.00424712     6    917    0    0    0
C 943.86839280 -64.51909084 66.40828726     1    917   921   922   923
H 943.23307786 -62.52185182 66.31386646     6    920    0    0    0
H 944.82046506 -64.96432769 64.66265652     6    920    0    0    0
H 945.38935253 -64.53724999 67.81053283     6    920    0    0    0
H 931.53041843 -56.72947496 46.70267243     6     925    0    0    0 
C 933.23181865 -58.09693960 46.71886101     1     924    926    927    928
H 934.77080546 -57.03849165 47.38754147     6     925    0    0    0
H 932.96508448 -59.32430837 48.30693538     6     925    0    0    0
C 933.81460495 -59.83958876 44.25157481     2     925    929    930    931
H 932.36024924 -59.69122485 42.78784033     6     928    0    0    0
H 935.53581615 -59.31417219 43.35362062     6     928    0    0    0
C 934.47917659 -62.72746965 44.67702064     2     928    932   933   934
H 932.92713328 -63.69357360 45.57181509     6     931    0    0    0
H 934.87227696 -63.66525242 42.86840040     6     931    0    0    0
C 936.64368906 -62.98802329 46.59246715     2     931   935   936   937
H 938.16651770 -61.81966955 45.87218763     6    934    0    0    0
H 936.20006032 -62.27212820 48.53862481     6    934    0    0    0
C 937.14162246 -65.79359432 47.13363243     2    934   938   939   940
H 935.42725745 -66.71290795 48.04028633     6    937    0    0    0
H 937.49285840 -66.92714146 45.51216440     6    937    0    0    0
C 939.44119572 -66.07007933 48.84904200     2    937   941   942   943
H 939.45606335 -64.36620750 50.12775332     6    940    0    0    0
H 939.48950176 -67.79398362 50.02466464     6    940    0    0    0
C 942.02725880 -65.73015706 47.67446283     2    940   944   945   946
H 941.82738708 -64.51372834 45.99157411     6    943    0    0    0
H 943.26209478 -64.52572648 48.77848767     6    943    0    0    0
C 943.28625045 -68.15565774 47.10461033     2    943   947   948   949
H 944.15418072 -68.85255222 48.93994948     6    946    0    0    0
H 941.85316593 -69.61066064 46.68992056     6    946    0    0    0
C 945.08979529 -67.89492257 44.82947719     2    946   950   951   952
H 943.98610373 -67.76820674 43.04102873     6    949    0    0    0
H 946.18075131 -66.07793663 45.12312032     6    949    0    0    0
C 947.02973392 -70.05973231 44.66481396     2    949   953   954   955
H 948.27748800 -70.12508060 46.25110501     6    952    0    0    0
H 946.11055160 -72.01812403 44.56459946     6    952    0    0    0
C 948.89171221 -70.16665918 42.50456300     2    952   956   957   958
H 950.33649285 -71.44868770 42.98742060     6    955    0    0    0
H 947.87845590 -70.73699499 40.87293829     6    955    0    0    0
C 950.26013481 -67.71373367 41.77515386     1    955   959   960   961
H 948.95142150 -66.32445510 40.76895291     6    958    0    0    0
H 951.98937508 -67.94100664 40.66881215     6    958    0    0    0
H 950.73286564 -67.04262910 43.71327237     6    958    0    0    0
H 929.56063121 -72.29127772 80.14402778     6     963    0    0    0 
C 928.63621334 -72.10806415 78.21640540     1     962    964    965    966
H 930.07802529 -71.73446450 76.77831114     6     963    0    0    0
H 927.90605783 -74.01429782 77.64260690     6     963    0    0    0
C 926.24910034 -70.45699513 78.14489945     2     963    967    968    969
H 925.28375578 -70.73124964 76.39495522     6     966    0    0    0
H 924.92880406 -71.23545322 79.70253206     6     966    0    0    0
C 926.83570557 -67.68063123 78.57554241     2     966    970   971   972
H 928.26853001 -67.54910683 80.18865554     6     969    0    0    0
H 927.76614705 -66.88032476 76.93423331     6     969    0    0    0
C 924.32298953 -66.24308297 78.91583006     2     969   973   974   975
H 923.30065224 -66.33405933 77.10246103     6    972    0    0    0
H 923.17100053 -67.08323793 80.25085814     6    972    0    0    0
C 924.51620771 -63.37676161 79.85000671     2    972   976   977   978
H 925.67055861 -63.00588996 81.43669693     6    975    0    0    0
H 925.44033228 -62.41838770 78.39750102     6    975    0    0    0
C 921.95281255 -61.86035444 80.01077520     2    975   979   980   981
H 921.02193033 -62.18719587 78.18029558     6    978    0    0    0
H 921.05696943 -62.72438193 81.56986789     6    978    0    0    0
C 922.49382648 -59.07885333 80.71970808     2    978   982   983   984
H 923.27489072 -58.94152271 82.65888157     6    981    0    0    0
H 924.12148051 -58.48054560 79.41290415     6    981    0    0    0
C 920.25852419 -57.21644985 80.47932382     2    981   985   986   987
H 919.80079746 -56.59377933 78.64257170     6    984    0    0    0
H 918.60190511 -57.81962474 81.34155678     6    984    0    0    0
C 920.87121398 -54.65625690 81.67896335     2    984   988   989   990
H 919.23430815 -53.31429091 81.79694402     6    987    0    0    0
H 921.39179119 -54.98554626 83.66116008     6    987    0    0    0
C 923.08466889 -53.23209337 80.31075525     2    987   991   992   993
H 924.89361872 -54.29606918 80.36075010     6    990    0    0    0
H 922.45488103 -52.85287377 78.42747011     6    990    0    0    0
C 923.52321581 -50.58668606 81.28782606     2    990   994   995   996
H 921.64862132 -49.69928088 81.45104598     6    993    0    0    0
H 924.10181159 -50.54323352 83.23046742     6    993    0    0    0
C 925.17618855 -49.07460928 79.57765959     1    993   997   998   999
H 927.13139445 -49.72204581 79.28522195     6    996    0    0    0
H 925.45133678 -47.10833414 80.06436384     6    996    0    0    0
H 924.44875425 -49.17705484 77.65118194     6    996    0    0    0
H 925.35825522 -80.52557125 80.46518939     6     1001    0    0    0 
C 927.07804083 -80.38124735 81.61116433     1     1000    1002    1003    1004
H 927.24048113 -81.92807694 83.09968031     6     1001    0    0    0
H 928.60293122 -80.54884898 80.30392680     6     1001    0    0    0
C 927.10995749 -77.83596939 82.95747979     2     1001    1005    1006    1007
H 927.24907243 -76.36177257 81.38828682     6     1004    0    0    0
H 925.35269096 -77.74419908 83.96050902     6     1004    0    0    0
C 929.18751956 -77.79150966 85.11889391     2     1004    1008   1009   1010
H 928.85912306 -79.30998950 86.65096406     6     1007    0    0    0
H 931.04174104 -78.26711932 84.23459982     6     1007    0    0    0
C 929.26697750 -75.08566839 86.09148281     2     1007   1011   1012   1013
H 930.20280748 -74.10124058 84.84520729     6    1010    0    0    0
H 927.43940813 -74.34830800 86.25453872     6    1010    0    0    0
C 930.48971415 -74.82070519 88.62568418     2    1010   1014   1015   1016
H 929.39262556 -75.78404296 90.10725575     6    1013    0    0    0
H 932.31875096 -75.77532069 88.47297636     6    1013    0    0    0
C 930.75868347 -71.99880870 89.33763175     2    1013   1017   1018   1019
H 931.73056317 -71.37345113 87.59438876     6    1016    0    0    0
H 928.95404309 -71.01212190 89.38500359     6    1016    0    0    0
C 932.37021764 -71.65873769 91.60532050     2    1016   1020   1021   1022
H 931.47079098 -72.48937078 93.24772470     6    1019    0    0    0
H 934.18047667 -72.59523100 90.87249143     6    1019    0    0    0
C 932.70068511 -68.88136606 92.48436519     2    1019   1023   1024   1025
H 930.87204428 -68.22922210 93.10875437     6    1022    0    0    0
H 933.66962050 -68.88003246 94.28614995     6    1022    0    0    0
C 933.69506635 -66.97674407 90.53685150     2    1022   1026   1027   1028
H 935.66386858 -67.47337484 90.05873552     6    1025    0    0    0
H 932.60980182 -66.71968350 88.82800949     6    1025    0    0    0
C 933.77382440 -64.22624912 91.56728294     2    1025   1029   1030   1031
H 931.72431221 -63.93794359 92.00731466     6    1028    0    0    0
H 934.99593712 -64.09335978 93.20321382     6    1028    0    0    0
C 934.43412647 -62.19999860 89.44401862     2    1028   1032   1033   1034
H 936.35090499 -62.55154474 88.61782397     6    1031    0    0    0
H 932.95642768 -62.40535443 87.96931668     6    1031    0    0    0
C 934.08656330 -59.46870715 90.32118051     1    1031   1035   1036   1037
H 934.34965659 -58.06828232 88.78973765     6    1034    0    0    0
H 935.62240589 -59.13214003 91.69311837     6    1034    0    0    0
H 932.30025661 -58.93247654 91.18544369     6    1034    0    0    0
H 909.06309553 -62.01295065 62.03233996     6     1039    0    0    0 
C 909.73651815 -61.84423475 60.06288700     1     1038    1040    1041    1042
H 909.12040719 -59.91382524 59.36732217     6     1039    0    0    0
H 911.85706969 -61.84176560 60.20681028     6     1039    0    0    0
C 908.75713060 -64.03601449 58.44855374     2     1039    1043    1044    1045
H 909.21818406 -65.88203719 59.28109864     6     1042    0    0    0
H 906.72329935 -63.85391375 58.85644515     6     1042    0    0    0
C 909.09759728 -63.40702618 55.65718446     2     1042    1046   1047   1048
H 907.77295067 -61.86832823 55.06208690     6     1045    0    0    0
H 911.02299282 -62.83293356 55.27814441     6     1045    0    0    0
C 908.45795124 -65.63319243 53.98651034     2     1045   1049   1050   1051
H 908.84785479 -67.50414086 54.86030351     6    1048    0    0    0
H 906.50028881 -65.91198884 53.93863876     6    1048    0    0    0
C 909.55788932 -65.55256087 51.28783946     2    1048   1052   1053   1054
H 908.84337751 -63.99916965 50.17323129     6    1051    0    0    0
H 911.69322021 -65.53369331 51.52755982     6    1051    0    0    0
C 909.09126636 -67.86887722 49.65707181     2    1051   1055   1056   1057
H 910.02183590 -69.59152525 50.31182433     6    1054    0    0    0
H 907.06768355 -68.39002347 49.53497709     6    1054    0    0    0
C 909.90201062 -67.37197518 46.96254415     2    1054   1058   1059   1060
H 908.84878904 -65.72593440 46.27150202     6    1057    0    0    0
H 911.86852575 -66.75520470 46.94824561     6    1057    0    0    0
C 909.65867645 -69.71996840 45.12628686     2    1057   1061   1062   1063
H 911.03914210 -71.16262732 45.72581712     6    1060    0    0    0
H 907.90680542 -70.72947837 45.16309915     6    1060    0    0    0
C 910.40255146 -69.17981337 42.28428396     2    1060   1064   1065   1066
H 908.96160679 -68.08846600 41.40040142     6    1063    0    0    0
H 912.10427395 -68.08571972 42.37667807     6    1063    0    0    0
C 910.89475671 -71.48042632 40.69954936     2    1063   1067   1068   1069
H 912.20729479 -72.64069958 41.72733467     6    1066    0    0    0
H 909.13069134 -72.56206251 40.47473672     6    1066    0    0    0
C 912.05759034 -70.83466005 38.05175737     2    1066   1070   1071   1072
H 910.56251260 -70.06259804 36.86590917     6    1069    0    0    0
[...]
 1762      H     950.9612433900   -52.8252683800    82.0683219900
 1763      H     947.8660116700   -52.6528189800    80.6013844000
 1764      C     947.8085273800   -51.5386748200    84.5894266300
 1765      H     949.2172545800   -51.6350999100    86.1332955800
 1766      H     947.7104722900   -49.6668209200    83.9588472200
 1767      C     945.1327308600   -52.2376245700    85.4674209600
 1768      H     943.9912372600   -52.4743476000    83.7699630200
 1769      H     945.2136136900   -54.2141242700    86.2249498600
 1770      C     943.9334661100   -50.3035739300    87.0910746200
 1771      H     944.9181482600   -50.1334513200    88.9923614800
 1772      H     944.3497256900   -48.3796393200    86.4048120300
 1773      C     941.1366035800   -50.6197461600    87.4528481800
 1774      H     940.0304664700   -51.2214366000    85.7691863200
 1775      H     941.0141620800   -52.4137358200    88.5999354900
 1776      C     939.8197018300   -48.4396498800    88.7695377700
 1777      H     940.3570770700   -48.3544029500    90.7606501900
 1778      H     940.2592327500   -46.7270783900    87.7774856800
 1779      C     936.9013270400   -48.6171399100    88.5703744300
 1780      H     936.4607173700   -48.5073246900    86.5601876500
 1781      H     936.4432571700   -50.4103182300    89.3362248000
 1782      C     935.4989449600   -46.5384022300    89.8869454500
 1783      H     936.1924049400   -44.7799902500    89.1865760000
 1784      H     933.5384294100   -46.9820727600    89.4040434000
 1785      C     935.5924973900   -46.3164991500    92.8083561400
 1786      H     934.9974719500   -48.1483480700    93.4894449500
 1787      H     937.5377500700   -45.9367745700    93.2729239700
 1788      C     934.0849354900   -44.0894164200    93.8745426700
 1789      H     935.0318620200   -42.4903625800    93.0561392500
 1790      H     932.1457783700   -44.0639011200    92.9743774200
 1791      C     934.0679820200   -43.8625899200    96.8547197400
 1792      H     933.1404010200   -45.5160366600    97.5022353100
 1793      H     935.9582731400   -44.0864130300    97.7236511800
 1794      C     932.7577339200   -41.5040649200    97.9216023500
 1795      H     931.0748503000   -41.3100397100    96.9223187700
 1796      H     933.9086907800   -39.9903578600    97.4905628500
 1797      H     932.5246887400   -41.4686092200    99.9781266100
 1798      H     913.9652301000   -53.0306330600    44.9285747400
 1799      C     915.1250955200   -51.6028678800    45.7882252300
 1800      H     914.8032415100   -49.8577904800    44.7341844100
 1801      H     914.3383743400   -51.5436110500    47.7496056000
 1802      C     917.8999768100   -52.5224255400    45.7046265900
 1803      H     918.2717640200   -53.1087832200    43.7209988400
 1804      H     919.2281586300   -51.0263803200    45.9581501100
 1805      C     918.2534661900   -54.7302417800    47.4854158000
 1806      H     917.6171582200   -54.1582286900    49.4243416900
 1807      H     917.1728745700   -56.3411622000    46.9081886500
 1808      C     921.0631951500   -55.4423480700    47.6050810000
 1809      H     921.4905804800   -55.8003707500    45.6305385500
 1810      H     922.1838030000   -53.9833151200    48.3513492800
 1811      C     921.6212972700   -58.0539514500    48.8360108200
 1812      H     921.2819537200   -57.9364432500    50.8799997100
 1813      H     920.2278890600   -59.3997113900    48.0416916200
 1814      C     924.3382348300   -59.0627243300    48.2194113000
 1815      H     924.2692218200   -59.7796247500    46.3680941900
 1816      H     925.7518060800   -57.5749852900    48.1535495200
 1817      C     925.2092736200   -60.9921921600    50.1527989300
 1818      H     925.3126640600   -60.1520514000    51.9915102500
 1819      H     923.7379867600   -62.3951238100    50.5008656200
 1820      C     927.8215373200   -62.1896471400    49.8534925700
 1821      H     927.8496931100   -63.2415511900    48.1013211600
 1822      H     929.2978302000   -60.7907140500    49.6686275100
 1823      C     928.6381548500   -63.7668182300    52.1754784700
 1824      H     928.3254532500   -62.8780417300    53.9419396300
 1825      H     927.3846971900   -65.3471395100    52.0841894300
 1826      C     931.2880842400   -64.8081509500    52.1319606200
 1827      H     931.1748633300   -65.4776770800    50.2806569400
 1828      H     932.6916396900   -63.1214822400    52.3702786600
 1829      C     931.8028147200   -66.5351737500    54.4934962500
 1830      H     930.9582743400   -65.7595817000    56.2935528200
 1831      H     930.8703722700   -68.3238508900    54.1884468000
 1832      C     934.6554255600   -66.9313513500    55.0811717700
 1833      H     935.4024854600   -65.4317447500    56.2179557100
 1834      H     936.0265578200   -67.2408537100    53.5944614300
 1835      H     934.7721153300   -68.5363289900    56.4827635000
 1836      H     931.5932029100   -61.0618306500    62.6648171300
 1837      C     933.1106690000   -59.9538197600    63.5831383200
 1838      H     932.4505579100   -58.0046106500    63.7448403800
 1839      H     933.5262462700   -60.8404440000    65.4449853700
 1840      C     935.4758960100   -59.9082838600    61.9505337000
 1841      H     937.0895036000   -58.9428548400    62.8075586000
 1842      H     936.2271309400   -61.8071525700    61.6458944200
 1843      C     934.9756243300   -58.7046372500    59.3078345900
 1844      H     933.1848773900   -59.6311307400    58.5628404300
 1845      H     934.3517300400   -56.6955128300    59.5173644200
 1846      C     937.2654012000   -58.8470211000    57.4624390000
 1847      H     938.0823554400   -57.0137682400    57.6024416200
 1848      H     938.5869581200   -60.2310127300    58.1359814800
 1849      C     936.5242420400   -59.1142993900    54.8127364900
 1850      H     935.3901837900   -60.8810945500    54.8734710400
 1851      H     935.1264758200   -57.6594861900    54.5360659900
 1852      C     938.4972883400   -59.4448825900    52.8063975100
 1853      H     939.2533857300   -61.2663680400    53.2575725900
 1854      H     937.3628928100   -59.6484469600    51.0979441500
 1855      C     940.4318283200   -57.3305957900    52.4402756700
 1856      H     939.5392705700   -55.7719933400    51.3509990200
 1857      H     940.9159628700   -56.5437231900    54.1958556200
 1858      C     943.0028955600   -58.0490759000    51.1257422200
 1859      H     944.4170923200   -56.5207777400    51.4107463000
 1860      H     944.1413141700   -59.6711360900    51.7532377300
 1861      C     942.6847652700   -58.1523798600    48.1932657500
 1862      H     941.2255500000   -59.6210547700    47.7896348100
 1863      H     941.7170853500   -56.4866908800    47.2330520100
 1864      C     945.1977975400   -58.5059293600    46.7689927700
 1865      H     946.3862409300   -56.8948965600    47.3537400200
 1866      H     946.1747759800   -60.0903683000    47.4898255100
 1867      C     945.1296635900   -58.3324118700    43.8226033000
 1868      H     944.3327203400   -60.1612202900    43.1631963200
 1869      H     944.1260079100   -56.5989161100    43.4350171200
 1870      C     947.9507661900   -58.3032235100    42.7738085700
 1871      H     947.9383477600   -58.8613359000    40.8038825300
 1872      H     949.1070226500   -59.5782314300    43.9075551100
 1873      H     948.8294319000   -56.3323635600    42.9648777100
 1874      H     926.0600180500   -38.6538904500    69.4804595400
 1875      C     925.5724584500   -40.4859757900    68.7777078300
 1876      H     923.9170457200   -39.9466440600    67.6437565200
 1877      H     927.0243333600   -41.1382621900    67.4251469800
 1878      C     924.7989849000   -42.2645560000    70.8702625200
 1879      H     926.4374914500   -43.3217624800    71.7403588900
 1880      H     924.0544627900   -41.0274313400    72.3456343700
 1881      C     922.5377524300   -43.9680610700    70.2973143800
 1882      H     921.1717502400   -42.9882415500    68.9761197800
 1883      H     923.0768966200   -45.5020869100    69.0787585300
 1884      C     921.0987361400   -44.8662287900    72.7388699000
 1885      H     922.3737193300   -45.4980973800    74.2541430600
 1886      H     920.3067914300   -43.4539542800    73.8504940800
 1887      C     919.0633539800   -46.9936584500    72.3155007300
 1888      H     917.8748872100   -46.8250548300    73.9260759700
 1889      H     917.8371990900   -46.7150418800    70.6228288900
 1890      C     920.3670335500   -49.6635776500    72.1945573400
 1891      H     921.0148696200   -50.0578080000    70.3563294200
 1892      H     921.9792679600   -49.6854028200    73.4453253200
 1893      C     918.5833930400   -51.7913227400    73.1828974900
 1894      H     917.7000744800   -51.0890085500    75.0329696700
 1895      H     917.0541998200   -51.8796531700    71.8803455400
 1896      C     919.6836262300   -54.4257551300    73.3288786800
 1897      H     921.2098099700   -54.6588584400    74.7184435300
 1898      H     918.2532520600   -55.7403829900    73.9625844800
 1899      C     920.6095418600   -55.2893753300    70.6472532200
 1900      H     919.5227435600   -54.4399067000    69.0659087100
 1901      H     922.4260781100   -54.4031217100    70.3523547700
 1902      C     921.0197780500   -58.0704264600    70.7040923600
 1903      H     919.2084314500   -58.9166861200    70.9384383300
 1904      H     921.7067311400   -58.6740022100    68.8092110000
 1905      C     923.0390377700   -59.0116106400    72.5710606900
 1906      H     924.8728903000   -58.0425498800    72.3797603300
 1907      H     922.6549961200   -58.3271494500    74.4604479900
 1908      C     923.2591836000   -61.9840658500    72.6649925100
 1909      H     923.4376210300   -62.6608173300    70.7117583000
 1910      H     921.5415927100   -62.5930446200    73.5913623400
 1911      H     924.6976144300   -62.6399905800    73.8446963100
 ----------------------------------------------------------------
 Nuclear Repulsion Energy =           0.00000000 hartrees
 There are     2498 alpha and     2498 beta electrons

 Total QAlloc Memory Limit   2000 MB
 Mega-Array Size       204 MB
 MEM_STATIC part       192 MB
   **** Step 1: MM calculation on the entire system **** 
 OPLSAA force field loaded.
Reading user-defined FF parameters...
 Reading user defined atom types.
 Found 3 user defined AtomTypes
finished.
Determining angles, torsions, etc. from user defined input
Determining VDW/Coulomb pairs... (useList = 0)

 Time req'd to get MM system information: 0.2 s (CPU) 0.2 s (wall)

 ------ MM Energies ------
   Ebond:           541.941948544253
   Eangle:          873.440957028018
   EUreyBrad:         0.000000000000
   Eimptors:          0.000000000000
   Etorsion:        240.533712051185
   Evdw:         983443.421908716322
   Ecoulomb:        181.945760239609
   Etot:         985281.284286579350 Kcal/mol (   1570.145678783834 hartree)
 -------------------------
 Time req'd to calc MM energy: 0.1 s (CPU) 0.1 s (wall)
 OPLSAA force field loaded.
Reading user-defined FF parameters...
 Reading user defined atom types.
 Found 3 user defined AtomTypes
finished.
 Time req'd to get MM system information: 0.0 s (CPU) 0.0 s (wall)
 Time req'd to calc MM gradient: 0.2 s (CPU) 0.2 s (wall)
   **** Step 2: MM calculation on the model system **** 
 Reading user defined atom types.
 Found 3 user defined AtomTypes
 ----------------------------------------------------------------
             Standard Nuclear Orientation (Bohr)
    I     Atom           X                Y                Z
 ----------------------------------------------------------------
    1      Fe    930.0357620200   -54.4388611000    70.6231296600
    2      C     928.5097481600   -54.0822331900    73.6390542000
    3      C     931.3381818400   -53.6087511700    67.6159523400
    4      C     933.1055401000   -53.9441106900    72.1547476300
    5      C     929.6996603100   -57.7640280000    69.9866247700
    6      C     927.4248534900   -52.5368814500    69.6084831900
    7      O     927.3909720300   -54.4251862100    75.6134415000
    8      O     932.0798443500   -53.0432153200    65.6029265800
    9      O     935.1028849200   -53.5301384700    72.9318213600
   10      O     929.3843318200   -59.8088865700    69.2877251200
   11      O     925.7231387100   -51.1779324200    68.9657627600
 ----------------------------------------------------------------
 Nuclear Repulsion Energy =         798.98616075 hartrees
 There are       48 alpha and       48 beta electrons
 OPLSAA force field loaded.
Reading user-defined FF parameters...
 Reading user defined atom types.
 Found 3 user defined AtomTypes
finished.
Determining VDW/Coulomb pairs... (useList = 0)

 No MM bonds in system. Return all possible pairs.
 Time req'd to get MM system information: 0.0 s (CPU) 0.0 s (wall)

 ------ MM Energies ------
   Ebond:             0.000000000000
   Eangle:            0.000000000000
   EUreyBrad:         0.000000000000
   Eimptors:          0.000000000000
   Etorsion:          0.000000000000
   Evdw:         983915.028853631578
   Ecoulomb:         -6.370829535356
   Etot:         983908.658024096279 Kcal/mol (   1567.958259587920 hartree)
 -------------------------
 Eold: 1570.1456788 mm_energy: 1567.9582596 Enew:    2.1874192
 Time req'd to calc MM energy: 0.0 s (CPU) 0.0 s (wall)
 OPLSAA force field loaded.
Reading user-defined FF parameters...
 Reading user defined atom types.
 Found 3 user defined AtomTypes
finished.
Determining VDW/Coulomb pairs... (useList = 0)

 No MM bonds in system. Return all possible pairs.
 Time req'd to get MM system information: 0.0 s (CPU) 0.0 s (wall)
 Number of fixed atoms: 0
 Time req'd to calc MM gradient: 0.0 s (CPU) 0.0 s (wall)
   **** Step 3: QM calculation on the model system **** 
 Requested basis set is def2-mSVP
 There are 80 shells and 174 basis functions

                       Distance Matrix (Bohrs)
             Fe(  1)   C (  2)   C (  3)   C (  4)   C (  5)   C (  6)
   C (  2)  3.398780
   C (  3)  3.380606  6.670980
   C (  4)  3.466146  4.831516  4.882283
   C (  5)  3.402181  5.320878  5.056794  5.558106
   C (  6)  3.385835  4.450911  4.520312  6.382316  5.713213
   O (  7)  5.647859  2.295100  8.955829  6.697036  6.938225  6.294948
   O (  8)  5.597190  8.854631  2.218596  6.692535  6.867908  6.161964
   O (  9)  5.641947  6.653904  6.514417  2.182797  7.469594  8.425159
   O ( 10)  5.571790  7.245241  6.712230  7.514174  2.183882  7.538203
   O ( 11)  5.655019  6.167642  6.265746  8.504188  7.760898  2.270609
             O (  7)   O (  8)   O (  9)   O ( 10)
   O (  8) 11.140277
   O (  9)  8.213757  7.942831
   O ( 10)  8.542388  8.161975  9.241427
   O ( 11)  7.584059  7.429378 10.451896  9.380904

 A cutoff of  1.0D-11 yielded   2487 shell pairs
 There are     12797 function pairs (     14647 Cartesian)
 Smallest overlap matrix eigenvalue = 2.45E-03
 Guess MOs from SCF MO coefficient file
 Reading MOs from coefficient file
 Reading MOs from coefficient file
 A restricted Kohn-Sham SCF calculation will be
 performed using Pulay DIIS extrapolation
 Exchange:  B88      Correlation:  P86
 Using SG-1 standard quadrature grid
 SCF converges when DIIS error is below 1.0E-08
 Using Q-Chem read-in guess as SCF_GUESS READ specified.

 using 2 threads for integral computing
 -------------------------------------------------------
 OpenMP Integral computing Module                
 Release: version 1.0, May 2013, Q-Chem Inc. Pittsburgh 
 -------------------------------------------------------
 ---------------------------------------
  Cycle       Energy         DIIS Error
 ---------------------------------------
    1   -1830.5130015326      1.39E-09
    2   -1830.5130015326      4.37E-09 Convergence criterion met
 ---------------------------------------
 SCF time:  CPU 2.61 s  wall 1.37 s
 E(QM + QM/MM):    -1830.5130015326 E(MM):    2.1874192 E(Tot): -1828.325582336638 
 SCF   energy in the final basis set = -1828.32558234
 Total energy in the final basis set = -1828.32558234

 --------------------------------------------------------------

                    Orbital Energies (a.u.)
 --------------------------------------------------------------

 Alpha MOs
 -- Occupied --
******** -29.6408 -25.5979 -25.5935 -25.5811 -18.8888 -18.8847 -18.8824
-18.8779 -18.8746 -10.0613 -10.0566 -10.0561 -10.0537 -10.0371  -3.3260
 -2.1572  -2.1480  -2.1231  -1.0652  -1.0523  -1.0513  -1.0313  -1.0276
 -0.5823  -0.5294  -0.5279  -0.5173  -0.5143  -0.4551  -0.4455  -0.4381
 -0.4336  -0.4319  -0.4303  -0.4252  -0.4197  -0.4129  -0.4107  -0.4064
 -0.4020  -0.3952  -0.3874  -0.3797  -0.2860  -0.2629  -0.2453  -0.2276
 -- Virtual --
 -0.1127  -0.1051  -0.0884  -0.0871  -0.0736  -0.0695  -0.0658  -0.0648
 -0.0535  -0.0483  -0.0229   0.0107   0.1878   0.1984   0.2224   0.2494
  0.2943   0.3317   0.3486   0.3912   0.4081   0.4178   0.4235   0.4273
  0.4326   0.4847   0.4914   0.5114   0.5173   0.5359   0.5421   0.5941
  0.6122   0.6237   0.6254   0.6355   0.7462   0.7497   0.7661   0.7768
  0.7834   0.8217   0.8377   0.8694   0.8894   0.9050   0.9459   0.9518
  0.9593   0.9732   0.9793   0.9978   1.0190   1.0435   1.0656   1.0739
  1.1791   1.1882   1.2132   1.3323   1.3908   1.3945   1.4050   1.4121
  1.4145   1.4170   1.4245   1.4304   1.4577   1.4638   1.4697   1.5083
  1.5169   1.5273   1.5602   1.5732   1.6000   1.6341   1.6612   1.6764
  1.6873   1.8132   1.8237   1.8276   1.8332   1.8403   1.8434   1.8512
  1.8625   1.8640   1.8713   1.8778   1.8835   1.8991   1.9085   1.9485
  2.3299   2.3638   2.3878   2.3983   2.4409   2.4596   2.4717   2.4826
  2.4943   2.5266   2.6300   2.6355   2.6408   2.6477   2.6506   2.8063
  2.8270   2.8692   2.8923   2.9370  13.2504  13.3008  13.3154  13.3444
 13.4008  24.8868  24.9172  24.9416  24.9629  25.0108
 --------------------------------------------------------------

          Ground-State Mulliken Net Atomic Charges

     Atom                 Charge (a.u.)
  ----------------------------------------
      1 Fe                   -0.491960
      2 C                     0.212233
      3 C                     0.209980
      4 C                     0.227101
      5 C                     0.254421
      6 C                     0.207632
      7 O                    -0.147890
      8 O                    -0.119909
      9 O                    -0.097923
     10 O                    -0.109086
     11 O                    -0.144598
  ----------------------------------------
  Sum of atomic charges =     0.000000

 -----------------------------------------------------------------
                    Cartesian Multipole Moments
 -----------------------------------------------------------------
    Charge (ESU x 10^10)
                -0.0000
    Dipole Moment (Debye)
         X       0.5700845786      Y       0.1136822281      Z       0.1624557012
       Tot       0.6035825798
    Quadrupole Moments (Debye-Ang)
        XX     491.2194     XY      39.6771     YY     -76.4133
        XZ     101.7344     YZ       0.0399     ZZ     -58.0383
    Octopole Moments (Debye-Ang^2)
       XXX  311022.3498    XXY   13525.4100    XYY  -37136.2646
       YYY    6323.5068    XXZ   58175.5224    XYZ    -603.5733
       YYZ   -2740.9749    XZZ  -27728.6379    YZZ    1862.6094
       ZZZ   -7182.1797
    Hexadecapole Moments (Debye-Ang^3)
      XXXX ************   XXXY 4690172.1614   XXYY ************
      XYYY 3098355.5874   YYYY -359645.4186   XXXZ ************
      XXYZ -528752.6843   XYYZ ************   YYYZ  233007.4513
      XXZZ ************   XYZZ  892745.5657   YYZZ -156419.3476
      XZZZ ************   YZZZ  214459.2909   ZZZZ -554182.0066
 -----------------------------------------------------------------
 Calculating MO derivatives via CPSCF
 Full subspace dimension requested for CIS/TDDFT
 MAX_CIS_SUBSPACE fits in available memory
    1     0    36    0.0413652  
    2     0    36    0.0065888  
    3     0    36    0.0007670  
