                  Welcome to Q-Chem
     A Quantum Leap Into The Future Of Chemistry


 Q-Chem 5.4 (devel), Q-Chem, Inc., Pleasanton, CA (2021)

 E. Epifanovsky,  A. T. B. Gilbert,  Xintian Feng,  Joonho Lee,  Yuezhi Mao,  
 N. Mardirossian,  P. Pokhilko,  A. White,  M. Wormit,  M. P. Coons,  
 A. L. Dempwolff,  Zhengting Gan,  D. Hait,  P. R. Horn,  L. D. Jacobson,  
 I. Kaliman,  J. Kussmann,  A. W. Lange,  Ka Un Lao,  D. S. Levine,  Jie Liu,  
 S. C. McKenzie,  A. F. Morrison,  K. Nanda,  F. Plasser,  D. R. Rehn,  
 M. L. Vidal,  Zhi-Qiang You,  Ying Zhu,  B. Alam,  B. Albrecht,  
 A. Aldossary,  E. Alguire,  J. H. Andersen,  D. Barton,  K. Begam,  A. Behn,  
 Y. A. Bernard,  E. J. Berquist,  H. Burton,  A. Carreras,  K. Carter-Fenk,  
 R. Chakraborty,  A. D. Chien,  K. D. Closser,  V. Cofer-Shabica,  
 S. Dasgupta,  Jia Deng,  M. de Wergifosse,  M. Diedenhofen,  Hainam Do,  
 S. Ehlert,  Po-Tung Fang,  S. Fatehi,  Qingguo Feng,  T. Friedhoff,  
 J. Gayvert,  Qinghui Ge,  G. Gidofalvi,  M. Goldey,  J. Gomes,  
 C. Gonzalez-Espinoza,  S. Gulania,  A. Gunina,  M. W. D. Hanson-Heine,  
 P. H. P. Harbach,  A. W. Hauser,  M. F. Herbst,  M. Hernandez Vera,  
 M. Hodecker,  Z. C. Holden,  S. Houck,  Xunkun Huang,  Kerwin Hui,  
 B. C. Huynh,  M. Ivanov,  Hyunjun Ji,  Hanjie Jiang,  B. Kaduk,  S. Kaehler,  
 K. Khistyaev,  Jaehoon Kim,  P. Klunzinger,  Z. Koczor-Benda,  
 Joong Hoon Koh,  D. Kosenkov,  L. Koulias,  T. Kowalczyk,  C. M. Krauter,  
 K. Kue,  A. Kunitsa,  T. Kus,  A. Landau,  K. V. Lawler,  D. Lefrancois,  
 S. Lehtola,  Rain Li,  Yi-Pei Li,  Jiashu Liang,  M. Liebenthal,  
 Hung-Hsuan Lin,  You-Sheng Lin,  Fenglai Liu,  Kuan-Yu Liu,  
 M. Loipersberger,  A. Luenser,  A. Manjanath,  P. Manohar,  E. Mansoor,  
 S. F. Manzer,  Shan-Ping Mao,  A. V. Marenich,  T. Markovich,  S. Mason,  
 S. A. Maurer,  P. F. McLaughlin,  M. F. S. J. Menger,  J.-M. Mewes,  
 S. A. Mewes,  P. Morgante,  J. W. Mullinax,  K. J. Oosterbaan,  G. Paran,  
 Alexander C. Paul,  Suranjan K. Paul,  F. Pavosevic,  Zheng Pei,  S. Prager,  
 E. I. Proynov,  E. Ramos,  B. Rana,  A. E. Rask,  A. Rettig,  R. M. Richard,  
 F. Rob,  E. Rossomme,  T. Scheele,  M. Scheurer,  M. Schneider,  
 N. Sergueev,  S. M. Sharada,  W. Skomorowski,  D. W. Small,  C. J. Stein,  
 Yu-Chuan Su,  E. J. Sundstrom,  Zhen Tao,  J. Thirman,  T. Tsuchimochi,  
 N. M. Tubman,  S. P. Veccham,  O. Vydrov,  J. Wenzel,  J. Witte,  A. Yamada,  
 Kun Yao,  S. Yeganeh,  S. R. Yost,  A. Zech,  Igor Ying Zhang,  Xing Zhang,  
 Yu Zhang,  D. Zuev,  A. Aspuru-Guzik,  A. T. Bell,  N. A. Besley,  
 K. B. Bravaya,  B. R. Brooks,  D. Casanova,  Jeng-Da Chai,  S. Coriani,  
 C. J. Cramer,  A. E. DePrince, III,  R. A. DiStasio Jr.,  A. Dreuw,  
 B. D. Dunietz,  T. R. Furlani,  W. A. Goddard III,  S. Grimme,  
 S. Hammes-Schiffer,  T. Head-Gordon,  W. J. Hehre,  Chao-Ping Hsu,  
 T.-C. Jagau,  Yousung Jung,  A. Klamt,  Jing Kong,  D. S. Lambrecht,  
 WanZhen Liang,  N. J. Mayhall,  C. W. McCurdy,  J. B. Neaton,  
 C. Ochsenfeld,  J. A. Parkhill,  R. Peverati,  V. A. Rassolov,  Yihan Shao,  
 L. V. Slipchenko,  T. Stauch,  R. P. Steele,  J. E. Subotnik,  
 A. J. W. Thom,  A. Tkatchenko,  D. G. Truhlar,  T. Van Voorhis,  
 T. A. Wesolowski,  K. B. Whaley,  H. L. Woodcock III,  P. M. Zimmerman,  
 S. Faraji,  P. M. W. Gill,  M. Head-Gordon,  J. M. Herbert,  A. I. Krylov

 Additional authors for Version 5.4.1: 
 S. Kotaru,  Shaozhi Li,  Xiangyuan Li,  F. Matz,  A. Molle,  Haisheng Ren,  
 Yingli Su,  Hung-Yi Tsai,  C. Utku,  Fang Wang

 Contributors to earlier versions of Q-Chem not listed above: 
 R. D. Adamson,  B. Austin,  R. Baer,  J. Baker,  G. J. O. Beran,  
 K. Brandhorst,  S. T. Brown,  E. F. C. Byrd,  A. K. Chakraborty,  
 G. K. L. Chan,  Chun-Min Chang,  Yunqing Chen,  C.-L. Cheng,  
 Siu Hung Chien,  D. M. Chipman,  D. L. Crittenden,  H. Dachsel,  
 R. J. Doerksen,  A. D. Dutoi,  R. G. Edgar,  J. Fosso-Tande,  
 L. Fusti-Molnar,  D. Ghosh,  A. Ghysels,  A. Golubeva-Zadorozhnaya,  
 J. Gonthier,  M. S. Gordon,  S. R. Gwaltney,  G. Hawkins,  J. E. Herr,  
 A. Heyden,  S. Hirata,  E. G. Hohenstein,  G. Kedziora,  F. J. Keil,  
 C. Kelley,  Jihan Kim,  R. A. King,  R. Z. Khaliullin,  P. P. Korambath,  
 W. Kurlancheek,  A. Laurent,  A. M. Lee,  M. S. Lee,  S. V. Levchenko,  
 Ching Yeh Lin,  D. Liotard,  E. Livshits,  R. C. Lochan,  I. Lotan,  
 L. A. Martinez-Martinez,  P. E. Maslen,  N. Nair,  D. P. O'Neill,  
 D. Neuhauser,  E. Neuscamman,  C. M. Oana,  R. Olivares-Amaya,  R. Olson,  
 T. M. Perrine,  B. Peters,  P. A. Pieniazek,  A. Prociuk,  Y. M. Rhee,  
 J. Ritchie,  M. A. Rohrdanz,  E. Rosta,  N. J. Russ,  H. F. Schaefer III,  
 M. W. Schmidt,  N. E. Schultz,  S. Sharma,  N. Shenvi,  C. D. Sherrill,  
 A. C. Simmonett,  A. Sodt,  T. Stein,  D. Stuck,  K. S. Thanthiriwatte,  
 V. Vanovschi,  L. Vogt,  Tao Wang,  A. Warshel,  M. A. Watson,  
 C. F. Williams,  Q. Wu,  X. Xu,  Jun Yang,  W. Zhang,  Yan Zhao

 Please cite Q-Chem as follows:
 Y. Shao et al., Mol. Phys. 113, 184-215 (2015)
 DOI: 10.1080/00268976.2014.952696

 Q-Chem 5.4.1 for Intel X86 EM64T Linux

 Parts of Q-Chem use Armadillo 9.900.5 (Nocturnal Misbehaviour).
 http://arma.sourceforge.net/

 Q-Chem begins on Sun Jul  3 09:42:05 2022  

 Host: p09r14n10.grace.hpc.yale.internal
0

     Scratch files written to /home/tl686/scratch60/qchem_dev/scratch/qchem37072//
 Processing $rem in /home/tl686/qchem_dev/qchem/config/preferences:
 Processing $rem in /home/tl686/.qchemrc:
Applying user defined connections for MM calculations

 Checking the input file for inconsistencies... 	...done.

--------------------------------------------------------------
User input:
--------------------------------------------------------------
$molecule
0   1
Fe 930.12701250 -54.14570371 70.36302985    -1  0   0   0   0
C 929.17322802 -54.06706973 73.66101703    -2  0   0   0   0 
C 931.22942769 -53.80711760 67.16690688    -2  0   0   0   0
C 933.18153631 -53.78500110 71.72059858    -2  0   0   0   0
C 929.15782501 -57.43496725 69.66673971    -2  0   0   0   0
C 927.77950359 -51.89320717 69.33543383    -2  0   0   0   0
O 928.51973284 -53.68536092 75.73523428    -3  0   0   0   0
O 931.93633541 -53.67129699 65.10244840    -3  0   0   0   0 
O 935.07893300 -53.51602432 72.83873358    -3  0   0   0   0
O 928.69626354 -59.46608828 68.90192393    -3  0   0   0   0 
O 926.41090233 -50.28490725 68.83786301    -3  0   0   0   0
H 943.25249688 -64.81722647 88.47551911      6     13    0    0    0 
C 941.98175567 -65.51271702 90.09951780     1     12    14    15    16
H 943.34156463 -65.45674463 91.69146659     6     13    0    0    0
H 940.41306547 -64.15716761 90.09736442     6     13    0    0    0
C 941.34611923 -68.29155764 89.63984874     2     13    17    18    19
H 943.20331873 -69.28242072 89.40958404     6     16    0    0    0
H 940.43107117 -69.04391893 91.30433981     6     16    0    0    0
C 939.46841722 -68.61312507 87.48758512     2     16    20   21   22
H 937.74397261 -67.46423086 87.85243513     6     19    0    0    0
H 940.27432484 -67.79364587 85.77663284     6     19    0    0    0
C 938.64234113 -71.26463933 86.73013875     2     19   23   24   25
H 940.24835601 -72.42012458 86.06558607     6    22    0    0    0
H 937.77564784 -72.19924787 88.33976500     6    22    0    0    0
C 936.79586743 -71.37304580 84.51209490     2    22   26   27   28
H 935.15797382 -70.13050647 84.99946839     6    25    0    0    0
H 937.56231254 -70.38456701 82.98296373     6    25    0    0    0
C 936.10435211 -74.04594485 83.70429091     2    25   29   30   31
H 937.94097475 -74.90523102 83.17702260     6    28    0    0    0
H 935.28056783 -74.94722069 85.40531533     6    28    0    0    0
C 934.24168759 -74.17119370 81.47867440     2    28   32   33   34
H 932.37338280 -73.59888206 81.96799274     6    31    0    0    0
H 934.62231936 -72.65667663 80.29453673     6    31    0    0    0
C 933.98202096 -76.51522949 79.94168088     2    31   35   36   37
H 935.76678964 -76.87348878 79.09212288     6    34    0    0    0
H 933.57571553 -78.27464700 80.92254875     6    34    0    0    0
C 932.05894583 -76.17090884 77.78118454     2    34   38   39   40
H 930.17629295 -76.05063185 78.51466510     6    37    0    0    0
H 932.46951007 -74.28196236 76.96415698     6    37    0    0    0
C 931.96199072 -78.55424857 75.97903074     2    37   41   42   43
H 933.90178923 -78.87829749 75.56858221     6    40    0    0    0
H 931.37747586 -80.14018230 77.18266380     6    40    0    0    0
C 930.47448596 -78.26848924 73.60450762     2    40   44   45   46
H 928.38979518 -77.95214643 74.08689468     6    43    0    0    0
H 931.35973158 -76.69617712 72.49846552     6    43    0    0    0
C 930.67301300 -80.59206496 71.89449571     1    43   47   48   49
H 932.26886225 -80.56861902 70.72207031     6    46    0    0    0
H 928.88254175 -80.93051477 70.79961514     6    46    0    0    0
H 931.00686051 -82.38984971 72.90497978     6    46    0    0    0
H 926.52802111 -68.97607196 72.12988415     6     51    0    0    0 
C 928.33296714 -68.08354057 71.46949646     1     50    52    53    54
H 928.01033424 -67.15674026 69.71686437     6     51    0    0    0
H 928.92766618 -67.00656746 73.06673486     6     51    0    0    0
C 930.34905072 -70.21503740 70.99226256     2     51    55    56    57
H 932.33512280 -69.49934966 70.82797397     6     54    0    0    0
H 930.53146306 -71.37858264 72.65195447     6     54    0    0    0
C 929.75863124 -71.90225202 68.80607232     2     54    58   59   60
H 929.14295602 -70.86039841 67.09515146     6     57    0    0    0
H 931.41022414 -73.14937710 68.36176461     6     57    0    0    0
C 927.51776868 -73.41201476 69.57438522     2     57   61   62   63
H 927.84526296 -74.17083222 71.39537932     6    60    0    0    0
H 925.94960929 -72.21259415 69.59320411     6    60    0    0    0
C 927.23640200 -75.54680753 67.72416355     2    60   64   65   66
H 927.55430256 -75.01575842 65.73502013     6    63    0    0    0
H 928.44517111 -77.05274759 68.20715110     6    63    0    0    0
C 924.57514643 -76.61662251 67.69423348     2    63   67   68   69
H 924.59428191 -78.03911254 66.31833830     6    66    0    0    0
H 924.05165245 -77.64877479 69.45200363     6    66    0    0    0
C 922.30705523 -74.92154737 67.31383644     2    66   70   71   72
H 922.33303078 -73.68352340 68.93313959     6    69    0    0    0
H 922.49656733 -73.71232846 65.66542726     6    69    0    0    0
C 919.73553705 -76.13733682 67.03985178     2    69   73   74   75
H 919.81856497 -77.66414097 65.64527550     6    72    0    0    0
H 919.29260636 -77.11897971 68.76553220     6    72    0    0    0
C 917.54849047 -74.17815512 66.36850446     2    72   76   77   78
H 917.12321692 -72.78267669 67.84148999     6    75    0    0    0
H 917.92630594 -73.10060859 64.73703771     6    75    0    0    0
C 915.09928868 -75.63887397 65.90803369     2    75   79   80   81
H 915.39797465 -76.80220704 64.25794160     6    78    0    0    0
H 914.81855248 -76.93227032 67.53153383     6    78    0    0    0
C 912.64910652 -74.11481454 65.07397754     2    78   82   83   84
H 912.38939009 -72.60193633 66.65248816     6    81    0    0    0
H 913.13601504 -73.08837870 63.37010432     6    81    0    0    0
C 910.22658784 -75.72749138 64.59961437     1    81   85   86   87
H 908.67812092 -74.33606549 64.70225989     6    84    0    0    0
H 910.10053480 -77.26505011 66.11843894     6    84    0    0    0
H 910.06841974 -76.83960445 62.79990953     6    84    0    0    0
H 959.01238373 -83.51648135 77.69546319     6     89    0    0    0 
C 957.46319305 -84.22272142 78.88568776     1     88    90    91    92
H 957.74037477 -83.80425458 80.77017075     6     89    0    0    0
H 955.58662077 -83.13406303 78.68781327     6     89    0    0    0
C 957.34859799 -87.14598171 78.45031674     2     89    93    94    95
H 958.58754778 -87.65949813 76.71551655     6     92    0    0    0
H 958.12850413 -88.11659501 80.02361886     6     92    0    0    0
C 954.61003982 -88.12781201 77.89685759     2     92    96   97   98
H 954.02024029 -87.27798582 75.98413334     6     95    0    0    0
H 954.89890555 -90.17492257 77.75527914     6     95    0    0    0
C 952.64143533 -87.64423744 79.93160651     2     95   99   100   101
H 953.07560162 -88.93756999 81.57951415     6    98    0    0    0
H 952.67579117 -85.69745460 80.71622215     6    98    0    0    0
C 950.05157361 -88.32932695 78.99142953     2    98   102   103   104
H 949.75720894 -86.97465700 77.42123139     6    101    0    0    0
H 949.95000384 -90.11682708 78.00823840     6    101    0    0    0
C 948.13596777 -88.18732075 81.19103069     2    101   105   106   107
H 948.88846679 -88.86496570 83.05826765     6    104    0    0    0
H 947.35328970 -86.30411939 81.55345265     6    104    0    0    0
C 945.81104581 -89.67379557 80.59594824     2    104   108   109   110
H 944.73505019 -88.96489418 79.08188761     6    107    0    0    0
H 946.37641144 -91.48959858 79.70191885     6    107    0    0    0
C 943.98552111 -89.92035242 82.78285628     2    107   111   112   113
H 944.95644403 -90.73317737 84.39661137     6    110    0    0    0
H 943.13444163 -88.10212789 83.45233266     6    110    0    0    0
C 941.80714702 -91.60071892 82.09699572     2    110   114   115   116
H 940.61025892 -90.77823806 80.57615004     6    113    0    0    0
H 942.45204876 -93.35515977 81.14168950     6    113    0    0    0
C 939.66310380 -92.09661689 84.16213361     2    113   117   118   119
H 940.44042503 -92.87778857 85.78448499     6    116    0    0    0
H 938.54127392 -90.28593726 84.55524619     6    116    0    0    0
C 937.63909949 -93.92039651 82.93856628     2    116   120   121   122
H 935.90853255 -93.68208047 84.00538576     6    119    0    0    0
H 937.36557346 -93.48329465 80.98781452     6    119    0    0    0
C 938.06105096 -96.85848755 82.96573871     1    119   123   124   125
H 936.56780514 -97.89096611 82.09071219     6    122    0    0    0
H 938.57899709 -97.51770359 84.91121509     6    122    0    0    0
H 939.76748390 -97.03655994 81.90006381     6    122    0    0    0
H 949.90608578 -70.40469173 64.85653498     6     127    0    0    0 
C 950.75824011 -68.72456970 65.77188350     1     126    128    129    130
H 951.74460481 -69.50178283 67.36332139     6     127    0    0    0
H 951.89525052 -68.19132554 64.20161870     6     127    0    0    0
C 948.88101465 -66.56180303 66.48153744     2     127    131    132    133
H 947.57398432 -66.27473787 64.86299937     6     130    0    0    0
H 947.40645979 -67.23059298 67.84336682     6     130    0    0    0
C 950.13912539 -63.97159102 67.06995856     2     130    134   135   136
H 951.42761954 -64.35253901 68.58487740     6     133    0    0    0
H 951.31769755 -63.50657438 65.50818950     6     133    0    0    0
C 948.26752392 -61.77674194 67.57033619     2     133   137   138   139
H 946.87286676 -61.84876584 66.09830201     6    136    0    0    0
H 947.14609044 -62.33710184 69.20726614     6    136    0    0    0
C 949.76817477 -59.30370619 67.86282814     2    136   140   141   142
H 950.95107642 -59.56519027 69.54753923     6    139    0    0    0
H 950.89923058 -59.02559206 66.18417532     6    139    0    0    0
C 948.09419496 -56.92277042 68.25852150     2    139   143   144   145
H 946.72705387 -56.79979648 66.86842896     6    142    0    0    0
H 946.91677366 -57.08857751 69.86199479     6    142    0    0    0
C 949.71978592 -54.31618385 68.35287932     2    142   146   147   148
H 951.27682007 -54.43845786 69.56404874     6    145    0    0    0
H 950.28033971 -53.71665121 66.54370020     6    145    0    0    0
C 948.16196080 -52.00994171 69.25424375     2    145   149   150   151
H 946.12636233 -52.19366309 68.59230855     6    148    0    0    0
H 948.21292682 -52.18854305 71.36213019     6    148    0    0    0
C 949.30678443 -49.55643772 68.49320170     2    148   152   153   154
H 951.16920459 -49.61298878 69.26264223     6    151    0    0    0
H 949.60775871 -49.28251740 66.47809746     6    151    0    0    0
C 947.78672196 -47.24110296 69.51467500     2    151   155   156   157
H 948.76529949 -45.43776776 68.73131830     6    154    0    0    0
H 945.82855080 -47.03558906 68.82115849     6    154    0    0    0
C 947.91658597 -46.66764700 72.50265011     2    154   158   159   160
H 946.84803360 -44.91100993 72.85456987     6    157    0    0    0
H 946.99767535 -48.26432693 73.41487145     6    157    0    0    0
C 950.60284201 -46.39556885 73.64687906     1    157   161   162   163
H 950.69109257 -46.46093131 75.72264921     6    160    0    0    0
H 951.55160063 -44.60954576 72.82267489     6    160    0    0    0
H 951.73119599 -47.88010795 73.13581488     6    160    0    0    0
H 953.36920453 -80.25678398 55.98954358     6     165    0    0    0 
C 954.56964949 -78.66981378 56.56833237     1     164    166    167    168
H 953.54696306 -77.61954031 57.91155740     6     165    0    0    0
H 956.26651099 -79.39779011 57.18755131     6     165    0    0    0
C 955.05829335 -77.14694078 54.21771059     2     165    169    170    171
H 956.23265863 -78.30949826 53.00539843     6     168    0    0    0
H 953.25135112 -76.77194849 53.23072866     6     168    0    0    0
C 956.37765779 -74.68877119 55.05155940     2     168    172   173   174
H 954.96613430 -73.28957666 55.84005403     6     171    0    0    0
H 957.80765549 -74.91364128 56.59741806     6     171    0    0    0
C 957.67166137 -73.19107531 52.76827408     2     171   175   176   177
H 959.43248587 -73.92930080 51.92068533     6    174    0    0    0
H 956.12671366 -73.14367778 51.38891492     6    174    0    0    0
C 958.10019368 -70.51963897 53.51929050     2    174   178   179   180
H 956.93937878 -69.91284530 55.06143288     6    177    0    0    0
H 960.08035559 -70.47169271 54.19266377     6    177    0    0    0
C 957.76674090 -68.61803511 51.45803262     2    177   181   182   183
H 958.72862262 -69.28523161 49.82793757     6    180    0    0    0
H 955.74759738 -68.75459470 50.78218628     6    180    0    0    0
C 958.59447943 -65.86576667 52.09474593     2    180   184   185   186
H 957.43018216 -64.94010560 53.62060620     6    183    0    0    0
H 960.64275282 -66.19293901 52.64569965     6    183    0    0    0
C 958.35371788 -63.81711525 49.92470875     2    183   187   188   189
H 959.64732991 -64.37442067 48.54106363     6    186    0    0    0
H 956.40064006 -64.19576516 49.10131176     6    186    0    0    0
C 958.68938981 -61.11959802 51.30450167     2    186   190   191   192
H 956.78576066 -60.71279867 52.00617345     6    189    0    0    0
H 959.83323451 -61.53606226 53.07160164     6    189    0    0    0
C 959.70167996 -59.00912885 49.43336696     2    189   193   194   195
H 961.56661059 -59.71030173 48.54777393     6    192    0    0    0
H 958.28694157 -58.58088208 47.93238834     6    192    0    0    0
C 959.96372827 -56.64236597 51.15556257     2    192   196   197   198
H 958.11337538 -56.09914008 51.93817758     6    195    0    0    0
H 961.22264216 -57.04510560 52.71320064     6    195    0    0    0
C 961.23773034 -54.47857814 49.68919406     1    195   199   200   201
H 960.19778589 -53.78245761 47.96492598     6    198    0    0    0
H 963.10571005 -54.91829506 49.32503154     6    198    0    0    0
H 961.25243014 -52.83875913 50.82353864     6    198    0    0    0
H 938.41122409 -75.06467174 55.63355180     6     203    0    0    0 
C 940.20159022 -74.07375932 54.97784899     1     202    204    205    206
H 939.93607191 -72.43101062 53.93299446     6     203    0    0    0
H 941.02415742 -73.56189280 56.78030592     6     203    0    0    0
C 941.87279032 -75.86256886 53.57747864     2     203    207    208    209
H 943.83650680 -75.09740981 53.17302096     6     206    0    0    0
H 942.48684108 -77.24007566 54.96593548     6     206    0    0    0
C 940.59169841 -77.21172341 51.30651000     2     206    210   211   212
H 941.59535773 -78.80653450 50.63171498     6     209    0    0    0
H 938.83020757 -77.97948441 51.85126052     6     209    0    0    0
C 940.33885606 -75.45741846 49.01287815     2     209   213   214   215
H 939.88124077 -73.50042481 49.44317400     6    212    0    0    0
H 942.13903745 -75.22018668 48.14634144     6    212    0    0    0
C 938.83184835 -76.71403060 46.93525134     2    212   216   217   218
H 939.74132801 -78.32556586 46.10745928     6    215    0    0    0
H 937.12498386 -77.38800329 47.83617256     6    215    0    0    0
C 937.93179794 -74.90040688 44.78061909     2    215   219   220   221
H 937.31762724 -73.02469389 45.42154130     6    218    0    0    0
H 939.65945995 -74.48237841 43.77476065     6    218    0    0    0
C 935.88577089 -75.73407620 42.89456092     2    218   222   223   224
H 936.53633576 -77.51789551 42.20841185     6    221    0    0    0
H 934.02208045 -76.02811311 43.78860631     6    221    0    0    0
C 935.76289866 -73.73809664 40.74936282     2    221   225   226   227
H 935.09376218 -71.88215236 41.58899317     6    224    0    0    0
H 937.61201404 -73.63792443 40.05052242     6    224    0    0    0
C 934.05817207 -74.45316675 38.39546539     2    224   228   229   230
H 935.04333220 -76.03790470 37.36562404     6    227    0    0    0
H 932.22773313 -75.41577566 39.03123535     6    227    0    0    0
C 933.38722775 -72.46733756 36.50851058     2    227   231   232   233
H 932.03463369 -71.16956255 37.26570025     6    230    0    0    0
H 935.02255429 -71.39182427 36.07128172     6    230    0    0    0
C 932.54578692 -73.60061819 34.06305779     2    230   234   235   236
H 932.07894412 -72.05381794 32.83821800     6    233    0    0    0
H 934.03201760 -74.68901003 33.11260109     6    233    0    0    0
C 930.34198120 -75.59826341 34.43001009     1    233   237   238   239
H 928.77351178 -74.51346187 35.42360695     6    236    0    0    0
H 930.69906285 -77.44478131 35.43009857     6    236    0    0    0
H 929.89301266 -76.12551190 32.42302427     6    236    0    0    0
H 918.94367477 -82.70849645 70.40320807     6     241    0    0    0 
C 919.45517301 -83.34053341 68.52699509     1     240    242    243    244
H 917.58430368 -83.79824758 67.50603786     6     241    0    0    0
H 920.20871831 -81.79907475 67.34734149     6     241    0    0    0
C 921.30124181 -85.72271312 68.36705455     2     241    245    246    247
H 920.51795972 -87.45256968 69.13885276     6     244    0    0    0
H 921.67787182 -86.20785417 66.40477249     6     244    0    0    0
C 923.80874320 -85.02533146 69.50718974     2     244    248   249   250
H 925.29311362 -86.33577088 68.83001705     6     247    0    0    0
H 924.31540116 -83.18305484 68.76327022     6     247    0    0    0
C 923.78218672 -84.81118381 72.46775894     2     247   251   252   253
H 925.71060425 -84.23816925 73.11507408     6    250    0    0    0
H 922.47681988 -83.25934489 73.06483410     6    250    0    0    0
C 923.22394430 -87.29088010 73.73208023     2    250   254   255   256
H 921.33245032 -87.75485220 73.10543787     6    253    0    0    0
H 924.10504861 -88.88966847 72.73037492     6    253    0    0    0
C 923.91894440 -87.35066434 76.40592838     2    253   257   258   259
H 926.00022164 -87.30606418 76.51089495     6    256    0    0    0
H 923.33172533 -85.47413962 77.23280716     6    256    0    0    0
C 922.86895489 -89.47125622 78.11949562     2    256   260   261   262
H 920.85815523 -89.44920533 78.27581561     6    259    0    0    0
H 923.06915969 -91.12164579 77.14362439     6    259    0    0    0
C 924.13367541 -89.66505700 80.77780771     2    259   263   264   265
H 926.12914671 -90.17092758 80.32563626     6    262    0    0    0
H 924.05199324 -87.70497070 81.53371483     6    262    0    0    0
C 922.77450170 -91.57100800 82.61817714     2    262   266   267   268
H 922.99329441 -91.13513104 84.58586097     6    265    0    0    0
H 920.87603173 -91.21189669 82.34285313     6    265    0    0    0
C 923.17367982 -94.31473955 82.06382443     2    265   269   270   271
H 922.65193849 -95.07295280 80.24220990     6    268    0    0    0
H 925.25780825 -94.67909392 82.20591708     6    268    0    0    0
C 921.76272861 -96.07020217 83.95945790     2    268   272   273   274
H 921.55020453 -95.26080049 85.82237429     6    271    0    0    0
H 919.91093556 -96.24463683 83.08905499     6    271    0    0    0
C 923.01908058 -98.69254928 84.03099739     1    271   275   276   277
H 923.14337615 -99.31083921 82.23049207     6    274    0    0    0
H 921.99418816 -100.11539301 85.02114468     6    274    0    0    0
H 924.85976016 -98.41186425 85.03855998     6    274    0    0    0
H 943.36115138 -83.43147269 55.49130609     6     279    0    0    0 
C 941.86016055 -83.88995080 56.89481709     1     278    280    281    282
H 941.42642209 -86.02642862 57.20519475     6     279    0    0    0
H 942.36434959 -83.08141278 58.76001417     6     279    0    0    0
C 939.60898315 -82.76224199 55.39846252     2     279    283    284    285
H 939.77421502 -80.59950877 55.64721591     6     282    0    0    0
H 939.92848853 -83.28315924 53.43701205     6     282    0    0    0
C 937.11449610 -83.73655668 56.09575551     2     282    286   287   288
H 937.16015859 -85.77169685 55.90503325     6     285    0    0    0
H 936.94338697 -83.39646863 58.10643770     6     285    0    0    0
C 934.77448433 -82.56805979 54.81242358     2     285   289   290   291
H 934.54254338 -80.55471502 55.38775792     6    288    0    0    0
H 935.09430621 -82.61177949 52.80031123     6    288    0    0    0
C 932.51926933 -84.18569776 55.44589320     2    288   292   293   294
H 932.86611666 -86.00337952 54.61430324     6    291    0    0    0
H 932.39596280 -84.59832057 57.40414389     6    291    0    0    0
C 930.20221777 -82.93429730 54.28127627     2    291   295   296   297
H 929.82170591 -80.92550355 54.94912263     6    294    0    0    0
H 930.39092884 -82.98777330 52.16967142     6    294    0    0    0
C 927.84259902 -84.38658351 54.96023136     2    294   298   299   300
H 928.32175398 -86.32353481 54.41168317     6    297    0    0    0
H 927.61044753 -84.22980893 57.00660097     6    297    0    0    0
C 925.41636332 -83.36147126 53.65766955     2    297   301   302   303
H 925.08288276 -81.44703467 54.09220777     6    300    0    0    0
H 925.78688271 -83.24315294 51.69928787     6    300    0    0    0
C 923.25546270 -85.03791765 54.48296717     2    300   304   305   306
H 923.72238572 -86.87790623 53.89105647     6    303    0    0    0
H 923.39056104 -85.30183531 56.44017775     6    303    0    0    0
C 920.47486111 -84.34221308 53.81452344     2    303   307   308   309
H 920.00771123 -82.74072104 54.99937222     6    306    0    0    0
H 920.46757645 -83.84761577 51.88056150     6    306    0    0    0
C 918.78214771 -86.55303718 54.14341323     2    306   310   311   312
H 919.41119952 -87.69982515 52.43812933     6    309    0    0    0
H 918.90006194 -87.74066037 55.76364733     6    309    0    0    0
C 915.94797037 -86.15411833 53.58654936     1    309   313   314   315
H 915.82428229 -85.83534908 51.58347028     6    312    0    0    0
H 915.06480844 -84.66581926 54.64576961     6    312    0    0    0
H 914.91366357 -88.01813561 53.89748462     6    312    0    0    0
H 959.82945952 -68.12473919 73.92481542     6     317    0    0    0 
C 959.39039829 -66.48145809 72.69147744     1     316    318    319    320
H 960.58198102 -64.91906356 73.03427865     6     317    0    0    0
H 960.02780141 -67.07167284 70.92707985     6     317    0    0    0
C 956.59831711 -65.84537683 72.45801890     2     317    321    322    323
H 956.43539924 -64.17463495 71.28366210     6     320    0    0    0
H 955.66223276 -67.41996685 71.44011738     6     320    0    0    0
C 955.25465480 -65.28454131 74.91450074     2     320    324   325   326
H 954.86898100 -66.81992874 76.42661650     6     323    0    0    0
H 956.42938687 -63.84063536 75.82711196     6     323    0    0    0
C 952.80494035 -63.84686152 74.33597460     2     323   327   328   329
H 953.03353308 -62.22030638 72.96293606     6    326    0    0    0
H 951.38101082 -65.01933793 73.53772119     6    326    0    0    0
C 951.71651821 -62.65608664 76.79038992     2    326   330   331   332
H 951.39181479 -64.27921333 78.11430769     6    329    0    0    0
H 953.17062315 -61.41327771 77.77367390     6    329    0    0    0
C 949.42024761 -60.84680314 76.21033835     2    329   333   334   335
H 950.00481631 -59.52644862 74.79162018     6    332    0    0    0
H 947.85215486 -61.96365520 75.32749576     6    332    0    0    0
C 948.60865224 -59.26359969 78.50789242     2    332   336   337   338
H 947.82433740 -60.36801090 80.08964396     6    335    0    0    0
H 950.20075319 -58.40416388 79.22713195     6    335    0    0    0
C 946.93624337 -57.01428689 77.70458505     2    335   339   340   341
H 946.36628543 -56.01073380 79.38454482     6    338    0    0    0
H 948.03958036 -55.62039932 76.74863403     6    338    0    0    0
C 944.31771976 -57.88878341 76.35854821     2    338   342   343   344
H 944.71222966 -58.79841902 74.58255467     6    341    0    0    0
H 943.12695676 -59.27412601 77.46534710     6    341    0    0    0
C 942.41525303 -55.70522385 75.69479097     2    341   345   346   347
H 940.67759463 -56.43536460 74.87557970     6    344    0    0    0
H 941.61592219 -54.86602653 77.40636716     6    344    0    0    0
C 943.60254416 -53.61750164 73.98717933     2    344   348   349   350
H 945.52940816 -53.04455270 74.58672152     6    347    0    0    0
H 943.76502220 -54.57509964 72.15231747     6    347    0    0    0
C 941.84310390 -51.27206441 73.49687011     1    347   351   352   353
H 941.43792660 -50.42585273 75.19500135     6    350    0    0    0
H 939.98369925 -51.83411243 72.76337515     6    350    0    0    0
H 942.93309498 -50.09669470 72.23246261     6    350    0    0    0
H 928.83683971 -86.67411282 65.31510026     6     355    0    0    0 
C 930.46119883 -86.40451850 66.51278477     1     354    356    357    358
H 930.19624734 -84.77091632 67.72707720     6     355    0    0    0
H 930.85665675 -88.16957769 67.58873029     6     355    0    0    0
C 932.86780275 -85.57390278 65.10308664     2     355    359    360    361
H 932.69208102 -86.80398570 63.52025474     6     358    0    0    0
H 932.58461614 -83.73347629 64.49269720     6     358    0    0    0
C 935.37047461 -85.89908216 66.50771035     2     358    362   363   364
H 935.46419612 -85.01590569 68.33892979     6     361    0    0    0
H 935.54841105 -87.84881395 67.17724488     6     361    0    0    0
C 937.82336649 -85.33193407 64.83673000     2     361   365   366   367
H 938.12552189 -86.97124305 63.36455779     6    364    0    0    0
H 937.44695123 -83.56031285 63.75632864     6    364    0    0    0
C 940.27572340 -84.70382895 66.26883219     2    364   368   369   370
H 939.83863209 -83.47668709 67.86281353     6    367    0    0    0
H 941.06112434 -86.43252840 67.18313543     6    367    0    0    0
C 942.41292660 -83.35335333 64.60436148     2    367   371   372   373
H 943.28811726 -84.51619735 63.15992495     6    370    0    0    0
H 941.24993435 -81.79826603 63.65463762     6    370    0    0    0
C 944.39461775 -82.07530111 66.08486532     2    370   374   375   376
H 943.47462728 -81.05372071 67.72487713     6    373    0    0    0
H 945.65277852 -83.30959117 67.15281941     6    373    0    0    0
C 946.23219079 -80.18386141 64.63953571     2    373   377   378   379
H 947.45627402 -81.27654743 63.39226405     6    376    0    0    0
H 945.18243715 -79.06150394 63.34799042     6    376    0    0    0
C 948.02800229 -78.48508589 66.12758745     2    376   380   381   382
H 946.66585719 -77.53131220 67.28756986     6    379    0    0    0
H 949.21763940 -79.84055359 67.06233604     6    379    0    0    0
C 949.57333686 -76.70109640 64.55379329     2    379   383   384   385
H 950.48552171 -77.57747967 62.83914852     6    382    0    0    0
H 948.22540704 -75.43486524 63.70978095     6    382    0    0    0
C 951.51369639 -75.09532751 66.02694807     2    382   386   387   388
H 952.18298182 -73.89048248 64.58504845     6    385    0    0    0
H 950.51950275 -74.05004718 67.34013746     6    385    0    0    0
C 953.64461594 -76.61465264 67.24716896     1    385   389   390   391
H 955.11591053 -76.95494805 65.91082892     6    388    0    0    0
H 952.82853399 -78.25409849 68.34246348     6    388    0    0    0
H 954.65281415 -75.57313485 68.73928067     6    388    0    0    0
H 925.58616136 -34.86893166 80.22484722     6     393    0    0    0 
C 923.66157681 -35.78935689 79.96158304     1     392    394    395    396
H 922.23119597 -34.74009721 80.95123517     6     393    0    0    0
H 923.31789480 -35.66822040 77.85511062     6     393    0    0    0
C 923.79250523 -38.54177908 80.58001313     2     393    397    398    399
H 925.12630108 -39.57936897 79.37081747     6     396    0    0    0
H 924.58512228 -38.71730411 82.54535624     6     396    0    0    0
C 921.24121574 -39.81478640 80.22385494     2     396    400   401   402
H 920.09650928 -39.34041080 81.81238670     6     399    0    0    0
H 920.34590375 -39.41456436 78.30704108     6     399    0    0    0
C 921.38287916 -42.69330563 80.41078135     2     399   403   404   405
H 922.97485697 -43.31025550 79.36456293     6    402    0    0    0
H 921.90651116 -43.30305972 82.32167602     6    402    0    0    0
C 919.00805141 -44.06498057 79.58769406     2    402   406   407   408
H 917.39775775 -43.21583831 80.52425642     6    405    0    0    0
H 918.50666883 -43.66017912 77.68781478     6    405    0    0    0
C 918.79305899 -46.98400710 79.92890338     2    405   409   410   411
H 920.53162553 -47.73231648 79.22504917     6    408    0    0    0
H 918.85808367 -47.49355433 81.94025838     6    408    0    0    0
C 916.42411566 -48.13834944 78.72572710     2    408   412   413   414
H 914.97535722 -47.02118261 79.70231579     6    411    0    0    0
H 916.29422525 -47.84268890 76.68373737     6    411    0    0    0
C 916.10146270 -51.07207983 79.47989902     2    411   415   416   417
H 917.71843484 -52.09801049 78.88284534     6    414    0    0    0
H 915.89137364 -51.23320194 81.49201978     6    414    0    0    0
C 913.70033234 -52.50096431 78.47844625     2    414   418   419   420
H 912.37826529 -50.92323452 77.97570381     6    417    0    0    0
H 914.40340341 -53.47303429 76.71368162     6    417    0    0    0
C 912.43676824 -54.35394132 80.37995321     2    417   421   422   423
H 913.61619993 -55.97687229 80.79685312     6    420    0    0    0
H 912.36186604 -53.29457755 82.01512320     6    420    0    0    0
C 909.69727906 -55.29270829 79.78918154     2    420   424   425   426
H 909.14851918 -56.31439509 81.38512285     6    423    0    0    0
H 908.48627587 -53.56094324 79.65538620     6    423    0    0    0
C 909.86654668 -57.28510000 77.50313010     1    423   427   428   429
H 908.05929065 -58.05585023 77.09694615     6    426    0    0    0
H 911.24626761 -58.81395981 77.76374733     6    426    0    0    0
H 910.34529396 -56.27428580 75.68586358     6    426    0    0    0
H 921.78906348 -69.35125173 84.42300015     6     431    0    0    0 
C 922.69737835 -69.00560684 86.18856595     1     430    432    433    434
H 921.42111681 -69.15804691 87.78882380     6     431    0    0    0
H 924.08376817 -70.34479216 86.35081147     6     431    0    0    0
C 924.00830502 -66.45237843 86.05980123     2     431    435    436    437
H 925.38625063 -66.57358789 84.51983257     6     434    0    0    0
H 922.36855272 -65.35915505 85.40920520     6     434    0    0    0
C 924.83145571 -65.74968426 88.70111969     2     434    438   439   440
H 923.26167939 -66.21494139 90.05623181     6     437    0    0    0
H 926.58084988 -66.82922993 89.12097792     6     437    0    0    0
C 925.60713497 -63.01264367 89.00904264     2     437   441   442   443
H 926.46590889 -62.71939666 90.87135023     6    440    0    0    0
H 926.96489484 -62.42385296 87.52805660     6    440    0    0    0
C 923.27153394 -61.26540941 88.59724762     2    440   444   445   446
H 923.12134224 -61.01770121 86.60890593     6    443    0    0    0
H 921.51450359 -62.32225876 88.96305072     6    443    0    0    0
C 923.67020951 -58.58366513 89.72321209     2    443   447   448   449
H 924.02160343 -58.74354684 91.74122160     6    446    0    0    0
H 925.38433168 -57.90849790 88.92151693     6    446    0    0    0
C 921.19461972 -57.02952234 89.18517855     2    446   450   451   452
H 921.02528931 -57.04240761 87.15580157     6    449    0    0    0
H 919.54476357 -57.90356502 90.18391822     6    449    0    0    0
C 921.59857050 -54.15343136 90.14939452     2    449   453   454   455
H 922.17851175 -54.23743214 92.17009497     6    452    0    0    0
H 923.12982880 -53.32860297 89.34540805     6    452    0    0    0
C 919.15811515 -52.49743296 90.04920647     2    452   456   457   458
H 918.52131267 -52.60310356 88.06145981     6    455    0    0    0
H 917.89659605 -53.27167458 91.40667238     6    455    0    0    0
C 919.85741787 -49.65503207 90.79629127     2    455   459   460   461
H 918.00969515 -48.82563382 91.55520702     6    458    0    0    0
H 921.20034795 -49.75605586 92.34392731     6    458    0    0    0
C 920.75672245 -48.10709792 88.58461790     2    458   462   463   464
H 922.12169437 -49.25092281 87.45344153     6    461    0    0    0
H 919.04858075 -47.56899951 87.58889155     6    461    0    0    0
C 922.18575634 -45.65370992 89.32200522     1    461   465   466   467
H 923.74624797 -45.97629554 90.70096722     6    464    0    0    0
H 920.94398941 -44.46076920 90.54519064     6    464    0    0    0
H 922.99581531 -44.71793410 87.66041794     6    464    0    0    0
H 953.18999135 -84.74783735 66.49103944     6     469    0    0    0 
C 953.94297448 -84.94877730 68.38306102     1     468    470    471    472
H 955.16923110 -86.62078262 68.43514108     6     469    0    0    0
H 954.99513569 -83.35536814 68.96502920     6     469    0    0    0
C 951.73063828 -85.22422684 70.32642046     2     469    473    474    475
H 952.53934195 -85.31227114 72.22888371     6     472    0    0    0
H 950.76972142 -83.41381803 70.24852401     6     472    0    0    0
C 949.75288296 -87.18576739 69.52442177     2     472    476   477   478
H 948.94821217 -86.87745375 67.64133115     6     475    0    0    0
H 950.58475159 -89.07904658 69.59089371     6     475    0    0    0
C 947.65912080 -87.69927890 71.33955139     2     475   479   480   481
H 948.52732488 -88.23362802 73.13366432     6    478    0    0    0
H 946.70900925 -85.80375019 71.67190155     6    478    0    0    0
C 945.75735546 -89.74526721 70.47797390     2    478   482   483   484
H 945.11715544 -89.46486325 68.47624999     6    481    0    0    0
H 946.50742185 -91.56588013 70.48159006     6    481    0    0    0
C 943.32377924 -90.07763631 72.03940178     2    481   485   486   487
H 943.83339060 -90.42550650 73.93180250     6    484    0    0    0
H 942.44063516 -88.18338680 72.29320371     6    484    0    0    0
C 941.30395375 -91.78398424 71.14647285     2    484   488   489   490
H 940.93580935 -91.71149715 69.08429022     6    487    0    0    0
H 941.83834341 -93.70293229 71.45997967     6    487    0    0    0
C 938.73672258 -91.17300156 72.50667128     2    487   491   492   493
H 939.03404556 -91.01430639 74.53755644     6    490    0    0    0
H 938.03970235 -89.26741926 72.13521898     6    490    0    0    0
C 936.38392300 -92.84149638 71.88868703     2    490   494   495   496
H 936.55420884 -93.63047974 69.89368331     6    493    0    0    0
H 936.31735298 -94.51973073 72.99372674     6    493    0    0    0
C 934.05867623 -91.41019636 72.38359455     2    493   497   498   499
H 934.07107567 -90.81182527 74.32825237     6    496    0    0    0
H 934.24677205 -89.61769814 71.29047117     6    496    0    0    0
C 931.73884044 -92.83005925 71.40430913     2    496   500   501   502
H 931.47022013 -92.96142028 69.35678871     6    499    0    0    0
H 931.89060114 -94.83657233 71.82787516     6    499    0    0    0
C 929.46201652 -91.56728267 72.62215725     1    499   503   504   505
H 927.54949779 -92.43400076 72.18085292     6    502    0    0    0
H 929.35455812 -89.57906085 72.05510165     6    502    0    0    0
H 929.66118037 -91.53414507 74.65767592     6    502    0    0    0
H 918.40021856 -86.48910376 88.14146984     6     507    0    0    0 
C 917.33216192 -85.31553628 86.90987799     1     506    508    509    510
H 917.54602448 -85.85005085 84.89203447     6     507    0    0    0
H 915.38740751 -85.80949607 87.42491492     6     507    0    0    0
C 918.10171167 -82.55358323 87.52910782     2     507    511    512    513
H 917.90442740 -82.12607994 89.60536994     6     510    0    0    0
H 920.03454340 -82.24338701 86.92279249     6     510    0    0    0
C 916.76405023 -80.72235150 85.73958584     2     510    514   515   516
H 917.38234616 -81.17491908 83.92641780     6     513    0    0    0
H 914.76998846 -81.07219771 85.67503890     6     513    0    0    0
C 917.43372684 -77.95770192 86.21058198     2     513   517   518   519
H 916.92783963 -77.46309433 88.13142737     6    516    0    0    0
H 919.45971434 -77.61601968 86.02322481     6    516    0    0    0
C 915.97182040 -76.34515745 84.14047472     2    516   520   521   522
H 916.07313720 -77.06293842 82.11608845     6    519    0    0    0
H 913.92902477 -76.36395261 84.83087875     6    519    0    0    0
C 917.07036784 -73.69694705 84.20282299     2    519   523   524   525
H 917.12544192 -73.17369058 86.20837871     6    522    0    0    0
H 919.09110342 -73.65270730 83.61039614     6    522    0    0    0
C 915.33435727 -71.79841180 82.91288655     2    522   526   527   528
H 914.79119866 -72.26817732 81.07795020     6    525    0    0    0
H 913.70055030 -71.68615093 83.96594571     6    525    0    0    0
C 916.73338026 -69.19006941 82.50012632     2    525   529   530   531
H 917.32241070 -68.31576947 84.31763064     6    528    0    0    0
H 918.53861176 -69.40093830 81.57506272     6    528    0    0    0
C 915.22081718 -67.45341605 80.91760277     2    528   532   533   534
H 915.12177209 -68.16724322 79.06746027     6    531    0    0    0
H 913.28560143 -67.32358493 81.60411678     6    531    0    0    0
C 916.14391293 -64.80222311 80.84486921     2    531   535   536   537
H 915.88262503 -64.07038942 82.71591005     6    534    0    0    0
H 918.14081023 -64.92731814 80.48855366     6    534    0    0    0
C 914.86590830 -63.11322991 78.79171282     2    534   538   539   540
H 914.78092962 -63.93139730 76.86036750     6    537    0    0    0
H 912.97939405 -63.11113800 79.61898206     6    537    0    0    0
C 916.10528312 -60.50725974 78.37155596     1    537   541   542   543
H 915.36191681 -59.54754676 76.59567429     6    540    0    0    0
H 918.13618736 -60.77411261 77.86026318     6    540    0    0    0
H 915.88132672 -59.25685427 79.83142488     6    540    0    0    0
H 931.05267870 -49.09521871 75.63239550     6     545    0    0    0 
C 930.82453700 -47.61202999 74.16967203     1     544    546    547    548
H 929.52153913 -48.20718973 72.79379989     6     545    0    0    0
H 930.01260921 -45.85544587 75.15539867     6     545    0    0    0
C 933.38716116 -47.17241972 72.83959457     2     545    549    550    551
H 934.63868908 -46.40356959 74.40816783     6     548    0    0    0
H 934.29133343 -49.02479379 72.44742123     6     548    0    0    0
C 933.27006687 -45.52419404 70.47307199     2     548    552   553   554
H 932.34817443 -46.46599234 68.90937312     6     551    0    0    0
H 932.16636973 -43.91439464 70.96465415     6     551    0    0    0
C 935.80743617 -44.78281925 69.45690077     2     551   555   556   557
H 936.73953032 -43.38449351 70.66457341     6    554    0    0    0
H 936.85246503 -46.61484615 69.65327724     6    554    0    0    0
C 935.90083868 -43.89772998 66.68265438     2    554   558   559   560
H 935.10172823 -45.38079388 65.39728838     6    557    0    0    0
H 934.83014175 -42.11909102 66.57371192     6    557    0    0    0
C 938.61379276 -43.52022911 65.87612266     2    557   561   562   563
H 939.48905773 -42.13878959 67.09103396     6    560    0    0    0
H 939.67351279 -45.23347861 65.92829083     6    560    0    0    0
C 939.02559587 -42.68302984 63.13698569     2    560   564   565   566
H 937.17832323 -42.86355798 62.13616992     6    563    0    0    0
H 939.20720302 -40.66787627 62.98778155     6    563    0    0    0
C 941.39614258 -43.83185506 61.91151080     2    563   567   568   569
H 943.07978897 -43.09177206 62.75563465     6    566    0    0    0
H 941.68555225 -45.77261279 62.39575194     6    566    0    0    0
C 941.64374165 -43.82089785 58.95291846     2    566   570   571   572
H 940.46415767 -45.27043511 58.17706618     6    569    0    0    0
H 940.92979130 -42.06681309 58.20938917     6    569    0    0    0
C 944.27274824 -44.32387799 58.04620589     2    569   573   574   575
H 945.51903277 -42.87159882 59.05071807     6    572    0    0    0
H 944.65159787 -46.26683154 58.62308730     6    572    0    0    0
C 944.43090658 -43.85110617 55.16523732     2    572   576   577   578
H 943.59303422 -42.03792613 54.62328551     6    575    0    0    0
H 946.45801522 -43.76984735 54.72254817     6    575    0    0    0
C 943.22652634 -45.90654289 53.57053931     1    575   579   580   581
H 944.40403964 -47.52773457 53.07536780     6    578    0    0    0
H 942.66509809 -44.99004642 51.70736768     6    578    0    0    0
H 941.47519517 -46.68825470 54.53381885     6    578    0    0    0
H 951.23906899 -72.28941212 54.15644447     6     583    0    0    0 
C 949.86609622 -72.07322704 55.83571428     1     582    584    585    586
H 948.09931779 -71.49680966 54.96836685     6     583    0    0    0
H 949.66325159 -73.87960229 56.65113285     6     583    0    0    0
C 950.81227025 -70.14584361 57.98669283     2     583    587    588    589
H 949.15410276 -69.65544146 59.15065458     6     586    0    0    0
H 952.31654477 -70.79789058 59.09912360     6     586    0    0    0
C 951.86215744 -67.80890277 56.84801656     2     586    590   591   592
H 953.57370670 -68.39518381 55.79320436     6     589    0    0    0
H 950.64011551 -67.12369528 55.31523760     6     589    0    0    0
C 952.72675117 -65.80572921 58.95891758     2     589   593   594   595
H 951.31110965 -65.87856114 60.55182206     6    592    0    0    0
H 954.40507528 -66.56825072 60.05268128     6    592    0    0    0
C 953.00383495 -63.01563049 58.06345547     2    592   596   597   598
H 954.50534367 -62.94170752 56.71477301     6    595    0    0    0
H 951.28021077 -62.52940292 56.94280401     6    595    0    0    0
C 953.51604945 -60.86556642 59.99821343     2    595   599   600   601
H 951.68605229 -60.61010405 61.04058150     6    598    0    0    0
H 954.99998232 -61.50708344 61.10542578     6    598    0    0    0
C 954.47160771 -58.40491159 58.68718568     2    598   602   603   604
H 956.06910889 -59.00832698 57.42706524     6    601    0    0    0
H 953.00279676 -57.59680943 57.52132928     6    601    0    0    0
C 955.21371413 -56.25668785 60.46047630     2    601   605   606   607
H 953.55845507 -55.68635698 61.42147691     6    604    0    0    0
H 956.60861223 -56.82573501 61.90126446     6    604    0    0    0
C 956.34300004 -54.14507377 58.73043486     2    604   608   609   610
H 957.98225378 -54.77014603 57.56335457     6    607    0    0    0
H 954.93157586 -53.71994959 57.30744914     6    607    0    0    0
C 957.19336585 -51.79834737 60.08268389     2    607   611   612   613
H 955.47221103 -51.22247919 61.04861740     6    610    0    0    0
H 958.40894582 -52.31222939 61.48515487     6    610    0    0    0
C 957.94382172 -49.83177164 58.07405912     2    610   614   615   616
H 959.52151837 -50.66765699 57.03587437     6    613    0    0    0
H 956.35993136 -49.35788893 56.84378542     6    613    0    0    0
C 958.77593455 -47.38422470 59.25568777     1    613   617   618   619
H 957.54305460 -46.67261980 60.86756067     6    616    0    0    0
H 958.65870891 -45.96001210 57.68685641     6    616    0    0    0
H 960.66218013 -47.64682937 60.33528105     6    616    0    0    0
H 915.38789009 -58.19539543 61.57265853     6     621    0    0    0 
C 917.12087179 -57.55404575 60.55529450     1     620    622    623    624
H 916.95959924 -55.79110624 59.53605579     6     621    0    0    0
H 918.71429789 -57.28322076 61.85697332     6     621    0    0    0
C 918.02534604 -59.45401971 58.49345986     2     621    625    626    627
H 920.05232769 -59.23897782 58.06406332     6     624    0    0    0
H 917.82232990 -61.18027699 59.56857955     6     624    0    0    0
C 916.29626936 -59.26693823 56.12663820     2     624    628   629   630
H 914.33785711 -59.45967979 56.75331038     6     627    0    0    0
H 916.46725208 -57.31083365 55.32914622     6     627    0    0    0
C 916.99341805 -61.27795009 54.15397127     2     627   631   632   633
H 918.77751287 -60.94546286 53.29193976     6    630    0    0    0
H 917.07348851 -63.19795637 54.92940686     6    630    0    0    0
C 915.01234435 -61.24358749 51.96429386     2    630   634   635   636
H 913.10026572 -61.75292693 52.44509962     6    633    0    0    0
H 914.74931706 -59.35136139 51.41001500     6    633    0    0    0
C 916.04042495 -62.56346813 49.63979300     2    633   637   638   639
H 918.12848652 -62.96720023 49.28552869     6    636    0    0    0
H 915.51560059 -64.65343436 49.91018057     6    636    0    0    0
C 914.91341274 -61.58372965 47.08702559     2    636   640   641   642
H 912.95769404 -62.06619938 46.90492730     6    639    0    0    0
H 914.72999131 -59.50227865 46.91003241     6    639    0    0    0
C 916.26987912 -62.58533200 44.76261743     2    639   643   644   645
H 918.27853687 -62.40238494 45.23751813     6    642    0    0    0
H 916.11056963 -64.56521867 44.44919600     6    642    0    0    0
C 915.78295076 -61.06462973 42.38275223     2    642   646   647   648
H 913.68535647 -60.88280822 42.07611348     6    645    0    0    0
H 916.62669721 -59.21836049 42.53801753     6    645    0    0    0
C 916.59316716 -62.31135379 39.92823327     2    645   649   650   651
H 918.62636703 -62.64881123 40.09194354     6    648    0    0    0
H 915.49828536 -64.14496295 39.85469042     6    648    0    0    0
C 916.02537458 -60.60690234 37.56355781     2    648   652   653   654
H 914.04790426 -60.19656256 37.44216121     6    651    0    0    0
H 917.26420862 -58.95520690 37.79506402     6    651    0    0    0
C 916.87168406 -61.98214621 35.17842596     1    651   655   656   657
H 918.86312247 -62.20447411 35.06462637     6    654    0    0    0
H 916.26118844 -61.00406205 33.53274507     6    654    0    0    0
H 916.03865069 -63.84610060 34.95803213     6    654    0    0    0
H 944.08924673 -69.77580949 54.19846733     6     659    0    0    0 
C 943.38454435 -68.60685785 55.79406957     1     658    660    661    662
H 942.09828690 -69.55024828 57.08618920     6     659    0    0    0
H 945.02227256 -68.02033690 56.95008608     6     659    0    0    0
C 942.00010972 -66.31585444 54.55615019     2     659    663    664    665
H 943.09776134 -65.51291754 53.14713363     6     662    0    0    0
H 940.38215899 -67.25940073 53.48188396     6     662    0    0    0
C 940.89389128 -64.29752293 56.24811732     2     662    666   667   668
H 939.63911669 -63.07940901 55.30958056     6     665    0    0    0
H 939.87109220 -65.34887430 57.68116824     6     665    0    0    0
C 943.17203388 -62.92629660 57.57353879     2     665   669   670   671
H 944.32335047 -64.33282604 58.63439075     6    668    0    0    0
H 944.33346212 -62.27159983 55.95143783     6    668    0    0    0
C 942.15067995 -60.87932204 59.34786919     2    668   672   673   674
H 941.44837304 -59.21034268 58.43658890     6    671    0    0    0
H 940.82324825 -61.43938147 60.78088596     6    671    0    0    0
C 944.32951707 -59.87647257 60.98886682     2    671   675   676   677
H 943.49483912 -58.74170627 62.51256512     6    674    0    0    0
H 945.28134209 -61.40397184 61.92460534     6    674    0    0    0
C 946.36632007 -58.20795081 59.60727123     2    674   678   679   680
H 947.79053617 -57.55625384 61.00291393     6    677    0    0    0
H 947.44000116 -59.40245871 58.22604596     6    677    0    0    0
C 945.13930528 -55.85805375 58.19737668     2    677   681   682   683
H 944.01273223 -56.58027206 56.62905163     6    680    0    0    0
H 943.50955427 -55.01817770 59.25129500     6    680    0    0    0
C 946.90088557 -53.75213811 57.20106934     2    680   684   685   686
H 948.61868433 -54.61527329 56.55067682     6    683    0    0    0
H 945.91806339 -52.66004246 55.84759700     6    683    0    0    0
C 947.52875624 -51.90710959 59.43217188     2    683   687   688   689
H 945.90620230 -50.90838310 60.01058849     6    686    0    0    0
H 948.27729372 -53.13550168 60.92106252     6    686    0    0    0
C 949.57087987 -49.94276351 58.57121650     2    686   690   691   692
H 951.27605313 -50.90061300 58.12567438     6    689    0    0    0
H 948.95966803 -48.59332661 57.12847838     6    689    0    0    0
C 950.22933356 -48.21991444 60.84467997     1    689   693   694   695
H 950.85110349 -46.37559329 60.16449348     6    692    0    0    0
H 951.55164991 -48.96792976 62.16227083     6    692    0    0    0
H 948.69816224 -47.52125208 61.98734208     6    692    0    0    0
H 932.21946188 -35.60553641 62.73492166     6     697    0    0    0 
C 931.24411752 -35.91526209 64.51269219     1     696    698    699    700
H 929.73537795 -34.43765719 64.91233063     6     697    0    0    0
H 930.06986833 -37.61017521 64.40496279     6     697    0    0    0
C 933.04668197 -36.17646131 66.71130359     2     697    701    702    703
H 934.30423466 -37.81136304 66.23689298     6     700    0    0    0
H 934.28161400 -34.50313918 66.85621064     6     700    0    0    0
C 931.69085952 -36.83996488 69.17533232     2     700    704   705   706
H 930.49522923 -35.17970426 69.61486177     6     703    0    0    0
H 930.26997201 -38.23993508 68.80376205     6     703    0    0    0
C 933.56060320 -37.67874265 71.35775838     2     703   707   708   709
H 934.63650096 -39.35672952 70.70088621     6    706    0    0    0
H 934.92916395 -36.30799953 71.72336025     6    706    0    0    0
C 932.18864647 -38.26647928 73.94817982     2    706   710   711   712
H 931.39959094 -36.61544821 74.70103821     6    709    0    0    0
H 930.68208881 -39.50087203 73.29566718     6    709    0    0    0
C 933.61446879 -40.08404681 75.81904395     2    709   713   714   715
H 934.21879468 -41.92154639 74.93362777     6    712    0    0    0
H 935.43285898 -39.07318085 76.07114048     6    712    0    0    0
C 932.06077472 -40.32091232 78.23474115     2    712   716   717   718
H 932.07335623 -38.66458381 79.43762378     6    715    0    0    0
H 930.03979081 -40.62264751 77.67289348     6    715    0    0    0
C 932.90135923 -42.67941591 79.77891860     2    715   719   720   721
H 932.58709648 -44.43414148 78.79645138     6    718    0    0    0
H 934.91858668 -42.46968588 79.95594963     6    718    0    0    0
C 931.64018171 -42.63182307 82.53399649     2    718   722   723   724
H 932.66581968 -41.18663656 83.72652374     6    721    0    0    0
H 929.71532552 -42.10764300 82.19061649     6    721    0    0    0
C 931.57195118 -45.04227606 83.99210376     2    721   725   726   727
H 931.11338479 -46.60862912 82.65482152     6    724    0    0    0
H 933.37980387 -45.72848657 84.78496503     6    724    0    0    0
C 929.79550514 -44.93428549 86.19392675     2    724   728   729   730
H 927.69241457 -44.97307553 85.61219750     6    727    0    0    0
H 929.84730765 -46.70009701 87.46550000     6    727    0    0    0
C 930.55915621 -42.99927519 88.09152676     1    727   731   732   733
H 929.61163848 -43.16955691 89.98506706     6    730    0    0    0
H 930.09042753 -41.18443215 87.34974737     6    730    0    0    0
H 932.64199756 -43.04300164 88.36012043     6    730    0    0    0
H 950.65723062 -73.84670000 73.92084260     6     735    0    0    0 
C 950.39619550 -75.71630653 74.80104804     1     734    736    737    738
H 952.35801851 -76.24001714 75.03850562     6     735    0    0    0
H 949.83849715 -75.57750624 76.78494403     6     735    0    0    0
C 948.62144605 -77.40719274 73.09273552     2     735    739    740    741
H 948.99178221 -76.77218127 71.15836833     6     738    0    0    0
H 949.25258351 -79.31636169 73.04616068     6     738    0    0    0
C 945.78901866 -77.13386964 73.61903266     2     738    742   743   744
H 945.04233238 -75.22648060 73.46837434     6     741    0    0    0
H 944.66291671 -78.00298496 72.08539155     6     741    0    0    0
C 945.06485102 -78.40759846 76.17264615     2     741   745   746   747
H 946.25079230 -80.06085890 76.14670618     6    744    0    0    0
H 945.55344593 -77.32061484 77.88762737     6    744    0    0    0
C 942.39859544 -79.32052594 76.28629603     2    744   748   749   750
H 941.06948898 -77.77535988 75.91295361     6    747    0    0    0
H 942.11944905 -80.56760926 74.73357216     6    747    0    0    0
C 941.76624489 -81.20314191 78.33297128     2    747   751   752   753
H 942.92965444 -82.74074926 78.40462786     6    750    0    0    0
H 942.23248943 -80.06594435 79.88040067     6    750    0    0    0
C 938.93447965 -82.10128700 78.31106447     2    750   754   755   756
H 938.18494158 -82.83743480 80.08440747     6    753    0    0    0
H 937.68322019 -80.44604750 78.14412742     6    753    0    0    0
C 938.17364810 -83.76884002 76.14130459     2    753   757   758   759
H 938.32451932 -82.54107446 74.45912535     6    756    0    0    0
H 939.39932188 -85.38374268 75.87301204     6    756    0    0    0
C 935.42472054 -84.73588095 76.38930991     2    756   760   761   762
H 934.10275677 -83.31466468 77.00956700     6    759    0    0    0
H 934.70173853 -85.09580453 74.43724377     6    759    0    0    0
C 935.27512998 -86.93058862 78.29132487     2    759   763   764   765
H 936.34705397 -88.52321478 77.75678330     6    762    0    0    0
H 936.03338240 -86.29853840 80.13098732     6    762    0    0    0
C 932.57407182 -87.46719140 78.76532087     2    762   766   767   768
H 931.51843718 -85.74621966 79.48475762     6    765    0    0    0
H 931.73997154 -87.93630657 76.89365057     6    765    0    0    0
C 932.07484145 -89.52925759 80.66439580     1    765   769   770   771
H 932.65004898 -91.44838426 79.86949475     6    768    0    0    0
H 930.02314249 -89.66625316 80.69380985     6    768    0    0    0
H 932.54037707 -89.13323564 82.64022124     6    768    0    0    0
H 909.30926387 -56.72090011 49.76413902     6     773    0    0    0 
C 907.48032387 -57.53182475 49.52337175     1     772    774    775    776
H 906.11702771 -56.21369617 48.80596214     6     773    0    0    0
H 907.80022513 -58.98403384 48.10787070     6     773    0    0    0
C 906.98489944 -58.36503466 52.41016745     2     773    777    778    779
H 905.44684513 -59.67711255 52.29847380     6     776    0    0    0
H 908.57874057 -59.35747320 53.05906083     6     776    0    0    0
C 906.36128335 -55.98078763 54.02574430     2     776    780   781   782
H 907.94066498 -54.67739494 53.83574598     6     779    0    0    0
H 904.60490062 -55.04420565 53.46035104     6     779    0    0    0
C 906.17971051 -56.86435098 56.83337310     2     779   783   784   785
H 904.86995862 -58.50143189 57.09790097     6    782    0    0    0
H 908.02330339 -57.55935782 57.20831581     6    782    0    0    0
C 905.74172017 -54.44615106 58.54537652     2    782   786   787   788
H 906.96444404 -52.82386469 57.95264679     6    785    0    0    0
H 903.78454549 -53.63745450 58.38918661     6    785    0    0    0
C 906.21350363 -54.89596323 61.31247733     2    785   789   790   791
H 904.95942953 -56.39374473 61.92973966     6    788    0    0    0
H 908.13115686 -55.65348846 61.48412932     6    788    0    0    0
C 906.07920102 -52.54879693 63.01201184     2    788   792   793   794
H 907.54190406 -51.36458581 62.10921488     6    791    0    0    0
H 904.22673147 -51.68077938 62.78018285     6    791    0    0    0
C 906.40504638 -53.07582834 65.77596168     2    791   795   796   797
H 904.97784298 -54.44556992 66.38946724     6    794    0    0    0
H 908.07402276 -54.24097858 66.05299291     6    794    0    0    0
C 906.34212448 -50.71288928 67.42836917     2    794   798   799   800
H 907.83627376 -49.34170127 66.75201545     6    797    0    0    0
H 904.54339008 -49.83653585 66.99328793     6    797    0    0    0
C 906.69342513 -51.40542296 70.27588186     2    797   801   802   803
H 904.85635363 -52.28071750 71.12184230     6    800    0    0    0
H 908.21978512 -52.64369275 70.52296017     6    800    0    0    0
C 907.13182631 -48.92293718 71.82720746     2    800   804   805   806
H 909.03151024 -48.09645531 71.32404632     6    803    0    0    0
H 905.82084646 -47.48137426 71.23863119     6    803    0    0    0
C 906.72763396 -48.97930247 74.87866411     1    803   807   808   809
H 907.69445980 -50.58059551 75.68188901     6    806    0    0    0
H 904.74884539 -49.30210943 75.54663787     6    806    0    0    0
H 907.44372502 -47.52639873 76.10957551     6    806    0    0    0
H 943.46044162 -72.57983378 63.58430983     6     811    0    0    0 
C 942.40939886 -74.15392498 63.84142286     1     810    812    813    814
H 943.28179240 -75.64413296 62.58245464     6     811    0    0    0
H 942.60173528 -74.67899082 65.84939439     6     811    0    0    0
C 939.65110414 -74.19740324 62.88567188     2     811    815    816    817
H 938.41514105 -73.25225444 64.04599205     6     814    0    0    0
H 939.33890825 -73.27077938 61.11067211     6     814    0    0    0
C 938.66595875 -76.94864995 62.34147841     2     814    818   819   820
H 939.81509553 -77.57570716 60.67854586     6     817    0    0    0
H 938.89588482 -78.15874078 63.98591001     6     817    0    0    0
C 935.77856477 -76.70841641 61.76016773     2     817   821   822   823
H 934.98216100 -75.30471075 62.98351109     6    820    0    0    0
H 935.56197340 -76.21554780 59.77760529     6    820    0    0    0
C 934.21422026 -79.14528242 62.23191830     2    820   824   825   826
H 934.93161373 -80.90331984 61.31131486     6    823    0    0    0
H 934.16729615 -79.75988280 64.16125709     6    823    0    0    0
C 931.43094343 -78.57098469 61.48747061     2    823   827   828   829
H 930.72148353 -77.08047444 62.67100523     6    826    0    0    0
H 931.35669810 -78.06888320 59.46927518     6    826    0    0    0
C 929.55414620 -80.75765286 61.80020587     2    826   830   831   832
H 930.14147130 -82.44712751 60.99555794     6    829    0    0    0
H 929.41221978 -81.12879428 63.81168452     6    829    0    0    0
C 926.90629491 -80.04518727 60.88173996     2    829   833   834   835
H 926.43349699 -78.23182504 61.77974881     6    832    0    0    0
H 927.22154384 -79.76417622 58.86625793     6    832    0    0    0
C 924.93439421 -81.88278168 61.52259490     2    832   836   837   838
H 925.44139210 -83.65935219 60.74312017     6    835    0    0    0
H 924.58418005 -82.05879349 63.54933157     6    835    0    0    0
C 922.27857697 -80.98707559 60.45025335     2    835   839   840   841
H 921.67478133 -79.32614971 61.42829417     6    838    0    0    0
H 922.52751869 -80.41580178 58.46823405     6    838    0    0    0
C 920.11162422 -82.96003408 60.80218173     2    838   842   843   844
H 920.46531140 -84.81558748 59.84074884     6    841    0    0    0
H 920.25910294 -83.40285640 62.88542215     6    841    0    0    0
C 917.42038823 -81.79261456 60.32444337     1    841   845   846   847
H 917.61261177 -79.82631091 61.13762594     6    844    0    0    0
H 915.67133232 -82.65450743 61.12490585     6    844    0    0    0
H 917.06351024 -81.50352428 58.31825729     6    844    0    0    0
H 953.45368290 -38.33224033 54.24189727     6     849    0    0    0 
C 953.55844575 -38.53176245 52.22934889     1     848    850    851    852
H 952.52447107 -36.78169767 51.35970365     6     849    0    0    0
H 955.56802282 -38.56034169 51.55930997     6     849    0    0    0
C 952.04504746 -40.82924188 51.30691953     2     849    853    854    855
H 950.06826080 -40.42387714 51.61486030     6     852    0    0    0
H 952.19634138 -41.16106272 49.12958752     6     852    0    0    0
C 952.83294396 -43.42908473 52.43472662     2     852    856   857   858
H 954.99365508 -43.32925991 52.48338756     6     855    0    0    0
H 952.28418150 -43.60898097 54.46837629     6     855    0    0    0
C 951.83639644 -45.75980946 50.94057816     2     855   859   860   861
H 949.84668138 -45.85141604 51.34184218     6    858    0    0    0
H 952.08960369 -45.47358843 48.97763011     6    858    0    0    0
C 952.83883337 -48.16545255 51.87361738     2    858   862   863   864
H 954.74173573 -48.60494184 51.19378067     6    861    0    0    0
H 952.78230742 -48.22767151 53.97672130     6    861    0    0    0
C 951.17913650 -50.44969347 50.85102303     2    861   865   866   867
H 949.35781739 -50.44535748 51.74237380     6    864    0    0    0
H 950.68969846 -50.42606367 48.84159890     6    864    0    0    0
C 952.26483211 -53.01058481 51.93800109     2    864   868   869   870
H 954.27544074 -52.76834248 51.72261541     6    867    0    0    0
H 951.60759550 -53.22712939 53.87532703     6    867    0    0    0
C 951.72790591 -55.46651686 50.36280588     2    867   871   872   873
H 950.04430190 -54.88856126 49.26195191     6    870    0    0    0
H 953.09153956 -55.78437471 48.88064571     6    870    0    0    0
C 951.38175390 -57.87312601 51.87345652     2    870   874   875   876
H 952.87456709 -58.33906501 53.24068747     6    873    0    0    0
H 949.76683078 -57.64261445 53.21560197     6    873    0    0    0
C 950.64356308 -60.15611607 50.18453028     2    873   877   878   879
H 949.59956739 -59.20456038 48.61420772     6    876    0    0    0
H 952.31534166 -61.17699804 49.35254267     6    876    0    0    0
C 948.96356558 -62.10338681 51.61124026     2    876   880   881   882
H 950.02935029 -63.10947126 53.01633093     6    879    0    0    0
H 947.41358127 -61.09230467 52.51009517     6    879    0    0    0
C 947.84705881 -63.91518443 49.67117024     1    879   883   884   885
H 949.15523284 -64.68178858 48.29881489     6    882    0    0    0
H 946.16485040 -63.26109424 48.61120581     6    882    0    0    0
H 947.15599439 -65.54143785 50.65526836     6    882    0    0    0
H 921.76552723 -72.38811012 60.03039402     6     887    0    0    0 
C 922.19861272 -73.86149535 58.73405260     1     886    888    889    890
H 921.87849703 -75.72710288 59.68555310     6     887    0    0    0
H 920.76555501 -73.81080610 57.20803160     6     887    0    0    0
C 924.88388553 -73.69994433 57.82922717     2     887    891    892    893
H 925.52477038 -75.30341142 56.70041607     6     890    0    0    0
H 924.96795075 -72.17105018 56.31747838     6     890    0    0    0
C 926.94002241 -72.99289188 59.68242596     2     890    894   895   896
H 926.32677324 -71.48320487 61.00020862     6     893    0    0    0
H 927.38687510 -74.67618330 60.92815544     6     893    0    0    0
C 929.57161186 -72.08558343 58.52007849     2     893   897   898   899
H 930.21521938 -73.20520345 56.92610707     6    896    0    0    0
H 928.99820207 -70.49991126 57.49272541     6    896    0    0    0
C 931.66385403 -71.81635308 60.50191188     2    896   900   901   902
H 931.47662680 -73.32295747 61.91833168     6    899    0    0    0
H 933.49378994 -72.17300876 59.61424628     6    899    0    0    0
C 932.12135146 -69.20975594 61.70224943     2    899   903   904   905
H 932.52962902 -67.58814711 60.46381138     6    902    0    0    0
H 930.50613084 -68.46069172 62.68773255     6    902    0    0    0
C 934.44413264 -69.15964423 63.41057185     2    902   906   907   908
H 934.10620422 -70.44111920 65.00545640     6    905    0    0    0
H 935.96236082 -69.72046244 62.32163133     6    905    0    0    0
C 935.46157980 -66.62316697 64.41707535     2    905   909   910   911
H 935.76943260 -65.33030503 62.77310353     6    908    0    0    0
H 933.95201817 -65.53674657 65.42489412     6    908    0    0    0
C 937.84617078 -67.04164210 66.12500542     2    908   912   913   914
H 937.24882180 -68.20832312 67.63406794     6    911    0    0    0
H 939.08353661 -68.15777411 65.18564821     6    911    0    0    0
C 939.09610604 -64.66226726 67.08334793     2    911   915   916   917
H 939.69924132 -63.36882312 65.60773196     6    914    0    0    0
H 937.50325527 -63.42616112 67.80861816     6    914    0    0    0
C 941.15991434 -64.97307025 69.17221842     2    914   918   919   920
H 940.46370939 -66.51067559 70.42705446     6    917    0    0    0
H 942.92584579 -65.65293282 68.37694122     6    917    0    0    0
C 941.60109791 -62.63805063 70.69059898     1    917   921   922   923
H 939.92502810 -62.04722013 71.72265740     6    920    0    0    0
H 942.25661926 -61.18266649 69.34054065     6    920    0    0    0
H 943.00528161 -63.22853375 72.13785458     6    920    0    0    0
H 935.14363706 -56.79782621 42.89345958     6     925    0    0    0 
C 935.62117179 -58.69621055 43.29402521     1     924    926    927    928
H 937.63228963 -58.90602120 42.92932749     6     925    0    0    0
H 935.40405742 -58.92075423 45.38253518     6     925    0    0    0
C 934.35769970 -60.78549175 41.67150471     2     925    929    930    931
H 932.47597276 -60.35299943 41.05718094     6     928    0    0    0
H 935.33297827 -60.95001050 39.79897904     6     928    0    0    0
C 934.56559959 -63.41433116 43.04655380     2     928    932   933   934
H 933.49826230 -63.13696617 44.86557239     6     931    0    0    0
H 933.68518204 -64.94847384 42.05401856     6     931    0    0    0
C 937.19960029 -64.09267805 44.02428180     2     931   935   936   937
H 938.51807528 -64.20428118 42.42868432     6    934    0    0    0
H 938.17880780 -62.62154630 45.17671019     6    934    0    0    0
C 937.25179046 -66.55312675 45.62499398     2    934   938   939   940
H 935.57096305 -66.35269913 46.70533470     6    937    0    0    0
H 937.07044567 -68.05008222 44.10235571     6    937    0    0    0
C 939.53719478 -67.04366095 47.35686581     2    937   941   942   943
H 939.36809534 -65.73505707 48.85280425     6    940    0    0    0
H 939.40312983 -68.88326807 48.33928311     6    940    0    0    0
C 942.22655796 -66.82611868 46.15186585     2    940   944   945   946
H 942.67482093 -65.06597545 45.24500711     6    943    0    0    0
H 943.65251036 -66.64517570 47.71443079     6    943    0    0    0
C 942.93699120 -69.11996659 44.46923355     2    943   947   948   949
H 942.55734234 -70.79240635 45.59199117     6    946    0    0    0
H 941.70221402 -69.30308399 42.77929378     6    946    0    0    0
C 945.60550806 -69.38301598 43.46272813     2    946   950   951   952
H 945.97593340 -67.91260500 42.09754202     6    949    0    0    0
H 946.84836143 -69.05942801 45.01715224     6    949    0    0    0
C 946.18198987 -72.07481991 42.39074836     2    949   953   954   955
H 945.97253095 -73.50010194 43.89396326     6    952    0    0    0
H 944.61528036 -72.70197554 41.31292480     6    952    0    0    0
C 948.83887405 -72.48782508 41.45120542     2    952   956   957   958
H 949.15213155 -74.59387262 41.03151558     6    955    0    0    0
H 949.30396509 -71.58643540 39.63468286     6    955    0    0    0
C 950.73209181 -72.04375310 43.43976492     1    955   959   960   961
H 952.54793412 -72.64158478 42.87591584     6    958    0    0    0
H 950.41319572 -72.98459026 45.37779401     6    958    0    0    0
H 950.78009205 -70.00371651 43.71190271     6    958    0    0    0
H 929.35170575 -70.46752493 79.79942479     6     963    0    0    0 
C 928.42293890 -70.61174071 78.03403943     1     962    964    965    966
H 929.71661023 -70.43133976 76.47507885     6     963    0    0    0
H 927.66598380 -72.52264862 78.03990847     6     963    0    0    0
C 926.12031449 -68.91437425 78.18846133     2     963    967    968    969
H 925.15619749 -69.18129440 76.27809245     6     966    0    0    0
H 924.78021799 -69.52159719 79.53064516     6     966    0    0    0
C 926.94512217 -66.07213899 78.57364975     2     966    970   971   972
H 927.66716633 -66.19436170 80.42877761     6     969    0    0    0
H 928.49701121 -65.52974494 77.39150370     6     969    0    0    0
C 924.70269732 -64.35760606 78.70460436     2     969   973   974   975
H 923.81926333 -64.15223943 76.88218388     6    972    0    0    0
H 923.31580757 -65.33770719 79.92129979     6    972    0    0    0
C 925.28275062 -61.91458895 79.91583765     2    972   976   977   978
H 926.42929589 -61.94475826 81.65541540     6    975    0    0    0
H 926.48605504 -60.96927321 78.78046977     6    975    0    0    0
C 923.03364585 -60.26896373 80.40319202     2    975   979   980   981
H 922.06579343 -59.90216345 78.71083728     6    978    0    0    0
H 921.81745578 -61.32205771 81.68547887     6    978    0    0    0
C 923.67492756 -57.59781488 81.38352198     2    978   982   983   984
H 924.59678446 -58.12155123 83.13866038     6    981    0    0    0
H 925.06730723 -56.79668688 79.91642859     6    981    0    0    0
C 921.39838901 -55.79411036 81.61620851     2    981   985   986   987
H 920.42185240 -55.60844684 79.82194184     6    984    0    0    0
H 920.12395942 -56.75362687 82.87423713     6    984    0    0    0
C 922.18264183 -53.26485411 82.78017568     2    984   988   989   990
H 920.46627318 -52.11141983 83.16656063     6    987    0    0    0
H 922.93728039 -53.51622910 84.62035664     6    987    0    0    0
C 923.80208678 -51.66003501 81.20197942     2    987   991   992   993
H 925.68921883 -52.46394041 81.16187649     6    990    0    0    0
H 923.19436573 -51.46043931 79.26307407     6    990    0    0    0
C 924.47219752 -49.02971807 82.49960259     2    990   994   995   996
H 922.78993980 -47.94003863 82.69833965     6    993    0    0    0
H 925.25202793 -49.35662679 84.42105762     6    993    0    0    0
C 926.05711615 -47.30272948 80.80162938     1    993   997   998   999
H 927.98666327 -48.02365214 80.78151522     6    996    0    0    0
H 926.15836297 -45.41383698 81.75862400     6    996    0    0    0
H 925.26724250 -47.16258940 78.95640127     6    996    0    0    0
H 923.15814129 -80.93991449 80.38377168     6     1001    0    0    0 
C 924.95309965 -80.38631135 81.32045934     1     1000    1002    1003    1004
H 925.17507772 -81.92736036 82.69965978     6     1001    0    0    0
H 926.56015257 -80.41455932 79.99651173     6     1001    0    0    0
C 925.16269771 -77.81249818 82.67277666     2     1001    1005    1006    1007
H 925.22949843 -76.48639721 81.21789337     6     1004    0    0    0
H 923.40603149 -77.47606496 83.87256749     6     1004    0    0    0
C 927.49242556 -77.43923368 84.36796600     2     1004    1008   1009   1010
H 927.49064862 -79.01280349 85.54521276     6     1007    0    0    0
H 929.24438600 -77.62515092 83.26671346     6     1007    0    0    0
C 927.23728554 -75.13874524 86.25361176     2     1007   1011   1012   1013
H 926.94006379 -73.31752877 85.15674341     6    1010    0    0    0
H 925.58301597 -75.42083780 87.40277855     6    1010    0    0    0
C 929.46920883 -74.80487315 88.04759000     2    1010   1014   1015   1016
H 929.59252473 -76.41957421 89.31910824     6    1013    0    0    0
H 931.31646100 -74.63273617 87.09584789     6    1013    0    0    0
C 929.18545214 -72.66783138 89.97689054     2    1013   1017   1018   1019
H 928.61074831 -70.96667846 89.18439606     6    1016    0    0    0
H 927.72214383 -73.05709246 91.39583613     6    1016    0    0    0
C 931.61225759 -72.35662916 91.46268161     2    1016   1020   1021   1022
H 931.74537006 -73.86635676 92.95288479     6    1019    0    0    0
H 933.37204460 -72.44843623 90.31853074     6    1019    0    0    0
C 931.67269307 -69.77798655 92.74362402     2    1019   1023   1024   1025
H 930.02613643 -69.58173090 94.02073509     6    1022    0    0    0
H 933.21980261 -69.84196889 94.04751038     6    1022    0    0    0
C 932.32620236 -67.47068878 91.03291382     2    1022   1026   1027   1028
H 934.18420445 -67.90662583 90.26749213     6    1025    0    0    0
H 930.77607350 -66.88486454 89.79578069     6    1025    0    0    0
C 932.77881708 -64.97928366 92.62172008     2    1025   1029   1030   1031
H 931.24110021 -64.47094848 93.76376586     6    1028    0    0    0
H 934.25069433 -65.39610551 94.12047198     6    1028    0    0    0
C 933.59926170 -62.77642241 90.94369871     2    1028   1032   1033   1034
H 935.46399478 -63.08345372 90.12391883     6    1031    0    0    0
H 932.20254692 -62.65274199 89.44031083     6    1031    0    0    0
C 933.71917481 -60.15765642 92.28242631     1    1031   1035   1036   1037
H 933.72108515 -58.69750071 90.92278281     6    1034    0    0    0
H 935.38125940 -60.10347127 93.61669373     6    1034    0    0    0
H 931.99866688 -59.98626301 93.60984670     6    1034    0    0    0
H 907.24455763 -62.59755996 63.18716769     6     1039    0    0    0 
C 907.95509687 -62.50237532 61.29412883     1     1038    1040    1041    1042
H 907.31585048 -60.80870043 60.34959425     6     1039    0    0    0
H 910.02661392 -62.60723956 61.36764449     6     1039    0    0    0
C 907.24016768 -65.05706038 59.95145392     2     1039    1043    1044    1045
H 908.02864132 -66.72029996 60.90566081     6     1042    0    0    0
H 905.26107771 -65.37810330 59.94434736     6     1042    0    0    0
C 908.34755905 -64.80355918 57.23369430     2     1042    1046   1047   1048
H 907.78272461 -62.97066884 56.35938261     6     1045    0    0    0
H 910.37960200 -64.49800228 57.22458348     6     1045    0    0    0
C 907.82848992 -66.94874494 55.40204055     2     1045   1049   1050   1051
H 908.27296855 -68.70629762 56.23287713     6    1048    0    0    0
H 905.73764199 -66.63451678 55.07321012     6    1048    0    0    0
C 909.21139174 -66.71421919 52.93272869     2    1048   1052   1053   1054
H 908.33334117 -65.10537442 51.84574839     6    1051    0    0    0
H 911.17389626 -66.35151956 53.27111973     6    1051    0    0    0
C 909.33960442 -69.13889447 51.30114709     2    1051   1055   1056   1057
H 910.45571391 -70.59692805 52.27746340     6    1054    0    0    0
H 907.60523172 -70.04029889 50.95064761     6    1054    0    0    0
C 910.68100808 -68.67634315 48.68267550     2    1054   1058   1059   1060
H 909.65697448 -67.20853617 47.62557323     6    1057    0    0    0
H 912.65352127 -68.00295326 48.81960566     6    1057    0    0    0
C 910.81909827 -71.12318448 47.09743730     2    1057   1061   1062   1063
H 912.35139359 -72.37123780 47.65105984     6    1060    0    0    0
H 909.05689028 -72.15916725 47.38909828     6    1060    0    0    0
C 911.17346983 -70.33735794 44.37671389     2    1060   1064   1065   1066
H 909.54266450 -69.02749050 43.88719562     6    1063    0    0    0
H 912.98788896 -69.25084980 44.21524324     6    1063    0    0    0
C 911.24732300 -72.55327427 42.54638665     2    1063   1067   1068   1069
H 912.34109869 -74.01207431 43.48086262     6    1066    0    0    0
H 909.29518253 -73.11040521 42.29365103     6    1066    0    0    0
C 912.32970561 -71.84271662 39.98386592     2    1066   1070   1071   1072
H 911.02998744 -70.28124665 39.31486959     6    1069    0    0    0
[...]
 1619      H     899.4693558900   -55.2131432800    61.3861958100
 1620      H     896.2757144900   -55.8139909700    62.0996742300
 1621      C     899.0766618100   -55.2623557800    65.2790121900
 1622      H     897.9538098400   -56.1580684600    66.7608079900
 1623      H     900.9427969500   -55.7208103300    65.7057720800
 1624      C     898.7714673000   -52.2756298700    65.5281855900
 1625      H     900.1300430500   -51.2823927600    64.3815419700
 1626      H     897.0125823500   -51.5541768900    64.7901698100
 1627      C     899.1701283900   -51.5447329000    68.1508931000
 1628      H     897.5904321400   -52.2879540700    69.2694768800
 1629      H     901.0414884200   -52.4123666600    68.5849760400
 1630      C     899.3061269000   -48.7462696100    68.7475670600
 1631      H     900.8325838600   -47.8476577900    67.6374972300
 1632      H     897.5443908000   -47.7372693600    68.1762507800
 1633      C     899.8474459300   -48.0444274500    71.6138149600
 1634      H     898.4483406600   -49.2268662800    72.7743528500
 1635      H     901.6024016300   -48.8782233800    72.1273643600
 1636      C     899.5514068600   -45.3643298100    72.2553271000
 1637      H     900.7522613100   -44.1283529400    70.9865916800
 1638      H     897.6679982700   -44.7744316000    72.1383658700
 1639      C     900.0962303000   -44.9224882100    75.0775735900
 1640      H     898.1850970900   -45.2839950900    76.1308908900
 1641      H     901.6815846800   -46.2211297100    75.7916904200
 1642      C     900.7077329500   -42.2179358900    75.8761448700
 1643      H     902.5599263200   -41.8026015300    75.3246512800
 1644      H     900.6434959800   -42.0103508200    77.9310158200
 1645      H     899.6405298600   -40.6643625100    75.0559338500
 1646      H     903.8618986300   -79.4846721300    79.6998465500
 1647      C     903.4951276800   -77.5244975600    80.1458782700
 1648      H     904.3549851600   -76.4736347000    78.5322159400
 1649      H     901.3444506500   -77.1474460400    80.0213230900
 1650      C     904.2097797400   -76.4183619900    82.8060980400
 1651      H     903.5433229900   -74.4704911300    83.0284562000
 1652      H     903.5482439700   -77.5577261500    84.3993118600
 1653      C     907.1046286000   -76.3640032600    83.1074996300
 1654      H     907.7925639800   -78.3710803300    83.3942335000
 1655      H     908.0115225100   -75.6000062400    81.4725921900
 1656      C     907.7737193000   -74.7214545100    85.4110839400
 1657      H     906.8100118300   -75.4399156100    87.1544100300
 1658      H     909.7301694100   -75.0880614100    85.8122213300
 1659      C     907.4121671700   -71.8323625200    84.7845199500
 1660      H     908.1070204300   -71.4898473400    82.9379786500
 1661      H     905.4905391000   -71.3344413600    84.6872897100
 1662      C     908.8922473900   -70.2436162300    86.8401251500
 1663      H     908.6209995800   -70.8313994800    88.8280613600
 1664      H     910.9703359500   -70.5444826100    86.7159783300
 1665      C     908.5121507600   -67.5548803600    86.5823648900
 1666      H     908.3164718100   -66.8593582000    84.6257670000
 1667      H     906.6355753400   -67.2109431100    87.3683193100
 1668      C     910.8104226400   -65.9398080200    87.4675144300
 1669      H     911.0700396500   -65.8865638600    89.5583437300
 1670      H     912.4189890900   -66.7995768500    86.5564003900
 1671      C     910.4125227400   -63.0987940100    86.7953292900
 1672      H     910.0375246400   -63.2613643000    84.7885650600
 1673      H     908.7705165900   -62.4255511500    87.7048807400
 1674      C     912.7887308800   -61.5898557300    87.2831779800
 1675      H     913.1034305600   -61.1937027400    89.3268556400
 1676      H     914.3232537100   -62.7417815000    86.7499856800
 1677      C     913.2581995700   -59.1524755000    85.5511805100
 1678      H     913.9132427400   -59.7927008400    83.8593087400
 1679      H     911.4613186200   -57.9987261500    85.6505270400
 1680      C     915.5010607300   -57.4737825500    86.3850538800
 1681      H     915.9023548000   -56.0401946400    84.9257701200
 1682      H     917.1198271800   -58.7928486400    86.4459851600
 1683      H     915.1310714300   -56.7430635000    88.2831328000
 1684      H     923.1160335800   -76.9934265400    76.4985375600
 1685      C     921.6754250900   -75.7463479800    77.1847349700
 1686      H     920.1001918300   -76.7600021900    77.9616039500
 1687      H     922.3796601700   -74.7255647300    78.8471985000
 1688      C     920.9592071500   -73.7581457100    75.1202430400
 1689      H     922.4309319000   -73.1594078800    73.7243606700
 1690      H     919.4910780400   -74.5641321500    73.7685201200
 1691      C     919.8415949500   -71.2796491700    76.3068755000
 1692      H     918.3773708100   -71.9108540400    77.7358068700
 1693      H     921.2417763400   -70.3571861200    77.4831043800
 1694      C     918.6043273000   -69.5228068400    74.2547049200
 1695      H     917.0553303100   -70.5555277700    73.2471528000
 1696      H     917.8542812600   -67.8815181700    75.0640048000
 1697      C     920.4452109100   -68.5391866200    72.2086855700
 1698      H     921.8982829900   -67.3607005900    73.0927721700
 1699      H     921.3352934600   -70.2561301700    71.2947721100
 1700      C     919.3393651100   -67.2403146200    69.9388174600
 1701      H     921.0169563200   -66.3804367200    68.9752794200
 1702      H     918.6670374900   -68.7574661900    68.8429535500
 1703      C     917.3012529200   -65.3942598000    70.6838801900
 1704      H     915.7788796700   -66.5477640500    71.2214788700
 1705      H     917.9238947600   -64.0281799700    72.2369356600
 1706      C     916.5030080200   -63.6383591200    68.4583853900
 1707      H     918.1213153200   -62.2622158100    68.2797120900
 1708      H     916.3028447100   -64.7272978000    66.7233436000
 1709      C     914.0332409300   -62.3240586600    69.0660388000
 1710      H     912.3646653100   -63.5689442000    69.1187368500
 1711      H     914.4208730900   -61.4951486300    70.8884015100
 1712      C     913.8499467600   -60.3542361200    66.8444289500
 1713      H     915.6007105600   -59.0621222100    66.9693980900
 1714      H     913.8226249900   -61.2091307300    65.0074865400
 1715      C     911.5451402700   -58.7904755000    66.9138403600
 1716      H     911.4099818600   -57.6378125400    65.1876953600
 1717      H     909.9100402100   -60.0200556900    66.8493909700
 1718      C     911.1441906300   -57.3845517700    69.3744248800
 1719      H     911.1824207200   -58.9472200400    70.7830336700
 1720      H     909.2327852900   -56.6452771900    69.3934399200
 1721      H     912.5663961800   -56.0011161200    69.6573257900
 1722      H     925.7254321600   -51.0667346900    92.4265803000
 1723      C     927.6258559900   -51.1674516200    93.2010289400
 1724      H     928.2701314800   -49.2785192100    93.0730429000
 1725      H     927.2399966800   -51.7183525400    95.2538618100
 1726      C     929.4023410100   -52.9875836700    91.8578822500
 1727      H     931.1657618800   -53.1601843400    92.8602826400
 1728      H     928.5714733800   -54.8409342400    92.0082208700
 1729      C     929.9540071500   -52.1676447600    89.2162051500
 1730      H     928.0690096400   -51.9207995900    88.3650145500
 1731      H     931.0736466700   -50.4745006300    89.2446362300
 1732      C     931.1997533100   -54.4974470000    87.7711139100
 1733      H     933.1488349300   -54.7465587100    88.6143754300
 1734      H     930.1905210200   -56.2008740300    88.2952429600
 1735      C     931.3451891400   -54.3467570200    84.8415181200
 1736      H     929.5301182700   -53.6847435500    84.2242094300
 1737      H     932.6532091500   -52.8576385900    84.4491162100
 1738      C     932.1239840400   -56.8471465000    83.4388079900
 1739      H     934.0954361100   -57.2669228700    83.8421998600
 1740      H     930.7583475200   -58.2649147900    83.8670731500
 1741      C     932.0846699700   -56.9387066400    80.5581025800
 1742      H     930.2891532500   -56.3694269400    79.9130883400
 1743      H     933.3770783100   -55.5402867300    79.7199678800
 1744      C     932.6339774100   -59.6194218900    79.4397988500
 1745      H     934.7278659900   -59.8903016200    79.4985171800
 1746      H     931.6764683800   -61.1506059900    80.4851359700
 1747      C     931.9235919200   -59.8288790300    76.7479187500
 1748      H     930.0006145700   -60.1008434800    76.5206121500
 1749      H     932.4598493600   -58.1322803200    75.5773822600
 1750      C     933.2302378600   -62.1443987000    75.7900934700
 1751      H     935.2569206700   -61.9974976100    76.0636368400
 1752      H     932.7368946800   -64.0148704900    76.7764687600
 1753      C     933.0618959100   -62.5476700900    73.0082511500
 1754      H     931.1686666300   -62.6245142800    72.5229390600
 1755      H     933.9023492000   -60.9437855500    72.1227797400
 1756      C     934.5466259400   -64.8999783700    72.1319296400
 1757      H     934.2357225800   -65.0851073900    70.0745823100
 1758      H     934.2177589600   -66.6409559100    73.1850746200
 1759      H     936.5730903200   -64.3564640800    72.1241488500
 1760      H     948.8553039900   -57.6712962000    84.7456748200
 1761      C     950.2656398500   -57.2114937500    86.1703714900
 1762      H     950.8831357900   -58.8132576800    87.2967202400
 1763      H     951.9024092000   -56.4036775600    85.0941874300
 1764      C     949.1224197000   -55.1336902800    87.7770661100
 1765      H     947.5689287800   -55.9266964700    88.9706156800
 1766      H     950.6960681000   -54.3823951300    88.8486178400
 1767      C     948.1688544300   -52.9695740500    86.1047491700
 1768      H     949.6771126600   -52.1101102100    85.2096416900
 1769      H     946.7732558500   -53.8247534200    84.8183320700
 1770      C     946.8487930800   -51.1749267200    88.0013284400
 1771      H     945.4762871600   -52.2419978900    88.9306464000
 1772      H     948.2210307700   -50.5948942600    89.3582911600
 1773      C     945.4843579100   -48.9754237100    86.8354461100
 1774      H     946.9447611900   -47.7893344700    85.8866458200
 1775      H     944.3378065200   -49.6052777100    85.2473691900
 1776      C     943.5899701200   -47.7270287200    88.6258275100
 1777      H     942.7272900900   -49.1526745400    89.7340863400
 1778      H     944.7671011200   -46.7604851200    90.0187432000
 1779      C     941.6828920900   -46.0662735100    87.3287512000
 1780      H     942.5727923600   -44.4672449000    86.2026488000
 1781      H     940.4842072000   -46.9937329500    86.0155956400
 1782      C     939.8130305300   -44.9296249900    89.0871785600
 1783      H     940.9389585900   -43.7128827100    90.5079544500
 1784      H     938.3501007800   -43.6617374600    88.3054821000
 1785      C     938.1024678300   -46.8871549200    90.5799531500
 1786      H     937.0655195300   -48.0835855200    89.1899868000
 1787      H     939.4392129100   -48.2584234300    91.3423713600
 1788      C     936.2622233700   -45.7443939500    92.5009461200
 1789      H     937.2209946900   -44.1405649200    93.5691299600
 1790      H     934.5935715700   -44.8813855500    91.5260877000
 1791      C     935.2784077600   -47.8819805300    94.2368556500
 1792      H     934.0903453000   -49.1990271400    93.1130889000
 1793      H     936.7271160300   -49.0102890300    95.0467917800
 1794      C     933.8004355400   -46.7080771700    96.4093160100
 1795      H     932.3107876300   -45.2316600100    95.8711577000
 1796      H     935.0577260700   -45.5362690800    97.5804025300
 1797      H     932.8315983400   -47.9704051500    97.7547744400
 1798      H     914.1326511700   -54.4516512900    43.9719945200
 1799      C     914.8806953900   -52.8013639300    44.9597465000
 1800      H     914.2341107600   -51.3255919300    43.6291754000
 1801      H     913.8441956100   -52.3792974200    46.6128047300
 1802      C     917.7047321700   -52.8976824900    45.5049869800
 1803      H     918.7859386800   -53.2493327400    43.7904602800
 1804      H     918.4602729400   -51.0782969400    46.1105208500
 1805      C     918.3900828100   -55.1326680000    47.2231316800
 1806      H     917.2300123200   -54.8680133400    48.9551145600
 1807      H     917.9863077700   -56.9223473100    46.2199604000
 1808      C     921.0811426900   -55.0734586500    47.9290463000
 1809      H     922.3395852200   -55.0841956200    46.3442103500
 1810      H     921.5498941600   -53.3832694500    49.0492857300
 1811      C     921.8442789700   -57.5641678300    49.1948055900
 1812      H     921.1419712500   -57.8131682300    51.0955642600
 1813      H     921.0370315900   -59.0102978600    48.0917778900
 1814      C     924.7558604300   -57.8912929200    49.3785117400
 1815      H     925.5349672700   -57.9911492300    47.4300568000
 1816      H     925.2725316400   -56.1558138100    50.3338293500
 1817      C     925.5046631900   -60.2092468500    51.0208955100
 1818      H     924.6715952700   -60.0847462500    52.9352928700
 1819      H     924.6635220800   -61.7860809700    50.1962176200
 1820      C     928.2993825100   -60.5914610300    51.4550221400
 1821      H     929.2224772500   -60.7655878800    49.6492724800
 1822      H     929.2872174400   -58.9425503000    52.3227420300
 1823      C     928.4731122000   -63.1246502000    52.7367584200
 1824      H     927.9743821600   -62.9567665300    54.8031428700
 1825      H     927.2472508900   -64.6225664800    51.8895072100
 1826      C     931.1779233200   -64.2483799700    52.7287093900
 1827      H     931.6513534300   -65.0098815400    50.9552289600
 1828      H     932.4859485000   -62.6371764700    52.8790822200
 1829      C     931.5898616400   -66.2895522100    54.6497864600
 1830      H     931.4735520500   -65.5426633600    56.5600835600
 1831      H     929.9339900500   -67.4893637100    54.7193969600
 1832      C     934.1317222000   -67.6513650600    54.3151538200
 1833      H     935.6307044200   -66.3063804800    53.7262108400
 1834      H     933.9763960400   -69.0135669100    52.7525663200
 1835      H     934.5876153000   -68.6363763800    56.0533188900
 1836      H     930.8771626600   -61.4136435600    63.3526711300
 1837      C     932.1176684500   -59.9208341200    64.1180993300
 1838      H     930.9771550900   -58.2670586500    64.5387253400
 1839      H     932.6821946600   -60.9607945700    65.7798850600
 1840      C     934.3535604400   -59.5045922700    62.3408692800
 1841      H     935.6453736300   -58.3521747100    63.4345578200
 1842      H     935.4236277000   -61.3076049600    61.9445805300
 1843      C     933.5280064700   -58.0741083700    59.8372877900
 1844      H     932.0388006200   -58.9407047800    58.9850732700
 1845      H     932.5928082800   -56.3235057700    60.2399364800
 1846      C     935.6611918100   -57.7760570800    57.8845012900
 1847      H     936.6296815100   -55.9801179800    58.2774651200
 1848      H     936.8227729100   -59.3417060900    58.1553949800
 1849      C     934.7448651900   -57.5087204700    55.0568170900
 1850      H     933.4365132000   -59.0647099700    54.8008596600
 1851      H     933.9547158800   -55.7131278800    54.7136435100
 1852      C     936.8536719300   -58.0836562700    53.0489500100
 1853      H     938.0628509700   -59.6561324000    53.5321024300
 1854      H     936.0601077200   -58.6205956000    51.1260010000
 1855      C     938.8968633200   -55.8816583700    52.7588329200
 1856      H     938.2981783700   -54.3569027000    51.5746072500
 1857      H     939.5445694100   -55.0774845400    54.5735242200
 1858      C     941.5008295900   -57.0644012400    51.8301465900
 1859      H     942.8785838500   -55.5681578800    51.9099318900
 1860      H     942.3000167600   -58.5946603300    52.9844378900
 1861      C     941.3896301600   -57.8610533200    49.0356133600
 1862      H     940.9001658100   -59.9001111300    49.0393036300
 1863      H     939.8868673900   -56.7548018700    48.3119756300
 1864      C     943.8701784200   -57.5363487300    47.7245476400
 1865      H     944.7371156000   -55.8371214300    48.2576845300
 1866      H     945.1843174700   -58.9122544700    48.6277592600
 1867      C     943.7003656100   -57.5561371600    44.7102520400
 1868      H     942.8114131200   -59.1461809900    43.9040426600
 1869      H     942.7715592400   -55.8198348400    44.0158734900
 1870      C     946.3806727500   -57.2853285500    43.7164929800
 1871      H     946.6506216500   -57.3301040700    41.6961397900
 1872      H     947.4867901100   -58.8292169600    44.4784830100
 1873      H     947.3147523600   -55.5037754100    44.1213269000
 1874      H     922.2232600400   -37.4104116000    66.6291389200
 1875      C     922.3058356900   -39.4944160200    66.9204252800
 1876      H     920.3524439100   -40.1320414300    66.9332285200
 1877      H     923.1932143400   -40.3449232900    65.2833404600
 1878      C     923.5606795900   -40.1491625500    69.5245639100
 1879      H     925.6100983900   -39.9033740000    69.5745407300
 1880      H     922.7734121900   -38.8841697300    70.9094371300
 1881      C     922.9377366800   -42.8640254800    70.4295762900
 1882      H     921.0332275900   -43.3166250100    69.9812494200
 1883      H     924.2692618600   -44.1488967100    69.4765117200
 1884      C     923.4289478800   -43.1407708300    73.2431946700
 1885      H     925.4196155200   -43.2547035000    73.5492556700
 1886      H     922.7024255600   -41.4243598800    74.3839339600
 1887      C     921.8274965300   -45.4264411900    74.1295996900
 1888      H     922.3054837900   -45.6406272200    76.0913903600
 1889      H     919.7840115600   -45.0415206000    73.8832810700
 1890      C     922.4045592000   -47.7806862600    72.7287899500
 1891      H     921.8080866700   -47.2632987900    70.8605352100
 1892      H     924.4075401600   -48.1074101100    73.0439704800
 1893      C     920.6742305400   -49.9810294600    73.5248507500
 1894      H     920.6813800500   -50.1194042000    75.5588629200
 1895      H     918.6512115400   -49.8143610300    72.7963698900
 1896      C     921.7818264600   -52.5520047500    72.7028480100
 1897      H     921.9203369300   -52.6653845300    70.7476155000
 1898      H     923.6361200600   -52.8258161000    73.5774795900
 1899      C     920.2733853800   -54.9273209900    73.3354180600
 1900      H     919.9611151700   -54.4465158400    75.3276153500
 1901      H     918.5172361400   -55.3439851800    72.4794318300
 1902      C     922.0770700100   -57.2739612800    73.0496965800
 1903      H     924.0085946400   -56.8721818200    73.4730716200
 1904      H     921.5081556600   -58.6175409800    74.5666039500
 1905      C     921.8794691300   -58.6246013100    70.5019426100
 1906      H     919.9811936300   -58.6532098900    69.7589164300
 1907      H     922.8044688000   -57.6713625100    68.9031197500
 1908      C     922.7788982900   -61.4174442200    70.9083309400
 1909      H     921.3875016100   -62.3522871300    72.0361449800
 1910      H     924.6606843700   -61.3437361200    71.8607722800
 1911      H     923.1955540400   -62.5204428400    69.1639455100
 ----------------------------------------------------------------
 Nuclear Repulsion Energy =           0.00000000 hartrees
 There are       48 alpha and       48 beta electrons
 Total job time:  29.21s(wall), 26.68s(cpu) 
 Sun Jul  3 09:42:34 2022

        *************************************************************
        *                                                           *
        *  Thank you very much for using Q-Chem.  Have a nice day.  *
        *                                                           *
        *************************************************************


