                  Welcome to Q-Chem
     A Quantum Leap Into The Future Of Chemistry


 Q-Chem 5.4 (devel), Q-Chem, Inc., Pleasanton, CA (2021)

 E. Epifanovsky,  A. T. B. Gilbert,  Xintian Feng,  Joonho Lee,  Yuezhi Mao,  
 N. Mardirossian,  P. Pokhilko,  A. White,  M. Wormit,  M. P. Coons,  
 A. L. Dempwolff,  Zhengting Gan,  D. Hait,  P. R. Horn,  L. D. Jacobson,  
 I. Kaliman,  J. Kussmann,  A. W. Lange,  Ka Un Lao,  D. S. Levine,  Jie Liu,  
 S. C. McKenzie,  A. F. Morrison,  K. Nanda,  F. Plasser,  D. R. Rehn,  
 M. L. Vidal,  Zhi-Qiang You,  Ying Zhu,  B. Alam,  B. Albrecht,  
 A. Aldossary,  E. Alguire,  J. H. Andersen,  D. Barton,  K. Begam,  A. Behn,  
 Y. A. Bernard,  E. J. Berquist,  H. Burton,  A. Carreras,  K. Carter-Fenk,  
 R. Chakraborty,  A. D. Chien,  K. D. Closser,  V. Cofer-Shabica,  
 S. Dasgupta,  Jia Deng,  M. de Wergifosse,  M. Diedenhofen,  Hainam Do,  
 S. Ehlert,  Po-Tung Fang,  S. Fatehi,  Qingguo Feng,  T. Friedhoff,  
 J. Gayvert,  Qinghui Ge,  G. Gidofalvi,  M. Goldey,  J. Gomes,  
 C. Gonzalez-Espinoza,  S. Gulania,  A. Gunina,  M. W. D. Hanson-Heine,  
 P. H. P. Harbach,  A. W. Hauser,  M. F. Herbst,  M. Hernandez Vera,  
 M. Hodecker,  Z. C. Holden,  S. Houck,  Xunkun Huang,  Kerwin Hui,  
 B. C. Huynh,  M. Ivanov,  Hyunjun Ji,  Hanjie Jiang,  B. Kaduk,  S. Kaehler,  
 K. Khistyaev,  Jaehoon Kim,  P. Klunzinger,  Z. Koczor-Benda,  
 Joong Hoon Koh,  D. Kosenkov,  L. Koulias,  T. Kowalczyk,  C. M. Krauter,  
 K. Kue,  A. Kunitsa,  T. Kus,  A. Landau,  K. V. Lawler,  D. Lefrancois,  
 S. Lehtola,  Rain Li,  Yi-Pei Li,  Jiashu Liang,  M. Liebenthal,  
 Hung-Hsuan Lin,  You-Sheng Lin,  Fenglai Liu,  Kuan-Yu Liu,  
 M. Loipersberger,  A. Luenser,  A. Manjanath,  P. Manohar,  E. Mansoor,  
 S. F. Manzer,  Shan-Ping Mao,  A. V. Marenich,  T. Markovich,  S. Mason,  
 S. A. Maurer,  P. F. McLaughlin,  M. F. S. J. Menger,  J.-M. Mewes,  
 S. A. Mewes,  P. Morgante,  J. W. Mullinax,  K. J. Oosterbaan,  G. Paran,  
 Alexander C. Paul,  Suranjan K. Paul,  F. Pavosevic,  Zheng Pei,  S. Prager,  
 E. I. Proynov,  E. Ramos,  B. Rana,  A. E. Rask,  A. Rettig,  R. M. Richard,  
 F. Rob,  E. Rossomme,  T. Scheele,  M. Scheurer,  M. Schneider,  
 N. Sergueev,  S. M. Sharada,  W. Skomorowski,  D. W. Small,  C. J. Stein,  
 Yu-Chuan Su,  E. J. Sundstrom,  Zhen Tao,  J. Thirman,  T. Tsuchimochi,  
 N. M. Tubman,  S. P. Veccham,  O. Vydrov,  J. Wenzel,  J. Witte,  A. Yamada,  
 Kun Yao,  S. Yeganeh,  S. R. Yost,  A. Zech,  Igor Ying Zhang,  Xing Zhang,  
 Yu Zhang,  D. Zuev,  A. Aspuru-Guzik,  A. T. Bell,  N. A. Besley,  
 K. B. Bravaya,  B. R. Brooks,  D. Casanova,  Jeng-Da Chai,  S. Coriani,  
 C. J. Cramer,  A. E. DePrince, III,  R. A. DiStasio Jr.,  A. Dreuw,  
 B. D. Dunietz,  T. R. Furlani,  W. A. Goddard III,  S. Grimme,  
 S. Hammes-Schiffer,  T. Head-Gordon,  W. J. Hehre,  Chao-Ping Hsu,  
 T.-C. Jagau,  Yousung Jung,  A. Klamt,  Jing Kong,  D. S. Lambrecht,  
 WanZhen Liang,  N. J. Mayhall,  C. W. McCurdy,  J. B. Neaton,  
 C. Ochsenfeld,  J. A. Parkhill,  R. Peverati,  V. A. Rassolov,  Yihan Shao,  
 L. V. Slipchenko,  T. Stauch,  R. P. Steele,  J. E. Subotnik,  
 A. J. W. Thom,  A. Tkatchenko,  D. G. Truhlar,  T. Van Voorhis,  
 T. A. Wesolowski,  K. B. Whaley,  H. L. Woodcock III,  P. M. Zimmerman,  
 S. Faraji,  P. M. W. Gill,  M. Head-Gordon,  J. M. Herbert,  A. I. Krylov

 Additional authors for Version 5.4.1: 
 S. Kotaru,  Shaozhi Li,  Xiangyuan Li,  F. Matz,  A. Molle,  Haisheng Ren,  
 Yingli Su,  Hung-Yi Tsai,  C. Utku,  Fang Wang

 Contributors to earlier versions of Q-Chem not listed above: 
 R. D. Adamson,  B. Austin,  R. Baer,  J. Baker,  G. J. O. Beran,  
 K. Brandhorst,  S. T. Brown,  E. F. C. Byrd,  A. K. Chakraborty,  
 G. K. L. Chan,  Chun-Min Chang,  Yunqing Chen,  C.-L. Cheng,  
 Siu Hung Chien,  D. M. Chipman,  D. L. Crittenden,  H. Dachsel,  
 R. J. Doerksen,  A. D. Dutoi,  R. G. Edgar,  J. Fosso-Tande,  
 L. Fusti-Molnar,  D. Ghosh,  A. Ghysels,  A. Golubeva-Zadorozhnaya,  
 J. Gonthier,  M. S. Gordon,  S. R. Gwaltney,  G. Hawkins,  J. E. Herr,  
 A. Heyden,  S. Hirata,  E. G. Hohenstein,  G. Kedziora,  F. J. Keil,  
 C. Kelley,  Jihan Kim,  R. A. King,  R. Z. Khaliullin,  P. P. Korambath,  
 W. Kurlancheek,  A. Laurent,  A. M. Lee,  M. S. Lee,  S. V. Levchenko,  
 Ching Yeh Lin,  D. Liotard,  E. Livshits,  R. C. Lochan,  I. Lotan,  
 L. A. Martinez-Martinez,  P. E. Maslen,  N. Nair,  D. P. O'Neill,  
 D. Neuhauser,  E. Neuscamman,  C. M. Oana,  R. Olivares-Amaya,  R. Olson,  
 T. M. Perrine,  B. Peters,  P. A. Pieniazek,  A. Prociuk,  Y. M. Rhee,  
 J. Ritchie,  M. A. Rohrdanz,  E. Rosta,  N. J. Russ,  H. F. Schaefer III,  
 M. W. Schmidt,  N. E. Schultz,  S. Sharma,  N. Shenvi,  C. D. Sherrill,  
 A. C. Simmonett,  A. Sodt,  T. Stein,  D. Stuck,  K. S. Thanthiriwatte,  
 V. Vanovschi,  L. Vogt,  Tao Wang,  A. Warshel,  M. A. Watson,  
 C. F. Williams,  Q. Wu,  X. Xu,  Jun Yang,  W. Zhang,  Yan Zhao

 Please cite Q-Chem as follows:
 Y. Shao et al., Mol. Phys. 113, 184-215 (2015)
 DOI: 10.1080/00268976.2014.952696

 Q-Chem 5.4.1 for Intel X86 EM64T Linux

 Parts of Q-Chem use Armadillo 9.900.5 (Nocturnal Misbehaviour).
 http://arma.sourceforge.net/

 Q-Chem begins on Fri Jul  1 20:00:03 2022  

 Host: p09r14n09.grace.hpc.yale.internal
0

     Scratch files written to /home/tl686/scratch60/qchem_dev/scratch/qchem9138//
 Processing $rem in /home/tl686/qchem_dev/qchem/config/preferences:
 Processing $rem in /home/tl686/.qchemrc:
Applying user defined connections for MM calculations

 Checking the input file for inconsistencies... 	...done.

--------------------------------------------------------------
User input:
--------------------------------------------------------------
$molecule
0   1
 Fe 928.97859139 -53.63299491 68.56426964    -1  0   0   0   0
C 928.08209037 -53.39994260 71.78862641    -2  0   0   0   0 
C 929.39377120 -53.98305348 65.12543955    -2  0   0   0   0
C 932.44700017 -53.51535398 69.28630706    -2  0   0   0   0
C 928.30523465 -57.03764788 68.36477879    -2  0   0   0   0
C 926.77640915 -51.18144516 68.42325141    -2  0   0   0   0
O 927.49819102 -53.12446304 73.89747174    -3  0   0   0   0
O 929.72435204 -54.01843361 62.95848124    -3  0   0   0   0 
O 934.48936974 -53.95047939 69.98533392    -3  0   0   0   0
O 927.94281018 -59.18727598 68.50041606    -3  0   0   0   0 
O 925.35015722 -49.58507495 68.08909852    -3  0   0   0   0
H 943.96543524 -69.01160882 91.54226715      6     13    0    0    0 
C 942.22540835 -69.54721990 90.58081427     1     12    14    15    16
H 941.42133197 -70.93399182 91.95514169     6     13    0    0    0
H 941.12445479 -67.70849424 90.38701425     6     13    0    0    0
C 942.48030749 -70.92321770 88.06110614     2     13    17    18    19
H 943.71079218 -69.64691965 87.02269240     6     16    0    0    0
H 943.44520403 -72.73280467 88.32163253     6     16    0    0    0
C 939.91946924 -71.26969697 86.67099655     2     16    20   21   22
H 938.66941084 -72.23460969 88.00561822     6     19    0    0    0
H 938.78476101 -69.40013948 86.38698144     6     19    0    0    0
C 940.24989196 -72.58075215 84.09627332     2     19   23   24   25
H 941.40918229 -71.41512164 82.91735904     6    22    0    0    0
H 941.29991759 -74.37114272 84.44354956     6    22    0    0    0
C 937.62051228 -73.03648543 82.76882061     2    22   26   27   28
H 936.52107035 -73.71131650 84.16782216     6    25    0    0    0
H 936.91191022 -71.21606416 81.89234078     6    25    0    0    0
C 937.55757372 -74.94137136 80.56879651     2    25   29   30   31
H 938.68645654 -74.36815516 79.00287626     6    28    0    0    0
H 938.63020769 -76.48699658 81.13950802     6    28    0    0    0
C 934.84042668 -75.45057044 79.83333785     2    28   32   33   34
H 933.70839417 -75.79351141 81.44284193     6    31    0    0    0
H 933.98686591 -73.79879581 78.84183731     6    31    0    0    0
C 934.46593801 -77.40312578 77.84706316     2    31   35   36   37
H 935.63440800 -76.66611603 76.40290189     6    34    0    0    0
H 935.18260339 -79.28576624 78.45118681     6    34    0    0    0
C 931.89425647 -77.30856805 76.60746732     2    34   38   39   40
H 930.28301369 -77.44233518 77.89946411     6    37    0    0    0
H 931.61681538 -75.46688105 75.63384211     6    37    0    0    0
C 931.98229677 -79.43273192 74.51079725     2    37   41   42   43
H 933.88072012 -79.52466429 73.66796499     6    40    0    0    0
H 931.60923168 -81.34164319 75.30978312     6    40    0    0    0
C 930.06600284 -79.00085078 72.42188996     2    40   44   45   46
H 928.22518322 -78.93597063 73.31503075     6    43    0    0    0
H 930.47649661 -77.16908534 71.59009618     6    43    0    0    0
C 930.17800552 -80.90624293 70.36471769     1    43   47   48   49
H 931.96922751 -80.96040509 69.26241238     6    46    0    0    0
H 928.67833179 -80.51555727 69.01802074     6    46    0    0    0
H 929.72178409 -82.72758520 71.26387350     6    46    0    0    0
H 927.49963967 -68.93715117 70.67904956     6     51    0    0    0 
C 929.44414673 -68.47532859 70.79376090     1     50    52    53    54
H 929.78710470 -67.13014105 69.23149211     6     51    0    0    0
H 929.77379058 -67.71539218 72.66274568     6     51    0    0    0
C 931.11593466 -70.79375752 70.27532099     2     51    55    56    57
H 932.98591016 -70.10917865 70.09006702     6     54    0    0    0
H 931.04564423 -71.87155533 72.02956818     6     54    0    0    0
C 930.17010850 -72.29437278 68.00435747     2     54    58   59   60
H 930.24637266 -71.29102041 66.22810727     6     57    0    0    0
H 931.25954236 -73.91914747 67.76788263     6     57    0    0    0
C 927.38745726 -73.31065648 68.21275682     2     57   61   62   63
H 927.05701005 -74.22209260 70.03479059     6    60    0    0    0
H 926.20950137 -71.65527247 67.96544670     6    60    0    0    0
C 927.02924150 -75.44417741 66.25605881     2    60   64   65   66
H 927.31106422 -74.51740300 64.51125099     6    63    0    0    0
H 928.49506072 -76.83267115 66.59810600     6    63    0    0    0
C 924.43862167 -76.84056121 66.61914298     2    63   67   68   69
H 924.24606395 -78.67634857 65.50924454     6    66    0    0    0
H 924.09417226 -77.26608624 68.55680027     6    66    0    0    0
C 922.16734451 -75.12719512 65.87413821     2    66   70   71   72
H 922.29321748 -73.15630830 66.54985491     6    69    0    0    0
H 922.21646348 -74.93839868 63.80419964     6    69    0    0    0
C 919.69972143 -76.26320854 66.67147077     2    69   73   74   75
H 919.42024631 -78.15359803 65.92969764     6    72    0    0    0
H 919.75220961 -76.81196443 68.65531520     6    72    0    0    0
C 917.31237643 -74.67233225 65.78722510     2    72   76   77   78
H 917.63550333 -72.66044299 66.06197545     6    75    0    0    0
H 917.05171996 -74.91068258 63.68472604     6    75    0    0    0
C 914.85161271 -75.38924194 67.15201990     2    75   79   80   81
H 914.51880035 -77.42103624 67.13462681     6    78    0    0    0
H 915.05828483 -74.85341238 69.13875153     6    78    0    0    0
C 912.33844165 -74.16624601 66.31231142     2    78   82   83   84
H 912.14839823 -72.30219249 66.88242101     6    81    0    0    0
H 912.36193555 -74.07226873 64.28497089     6    81    0    0    0
C 910.05400381 -75.69324913 67.31086343     1    81   85   86   87
H 908.20196972 -74.91232021 66.88454031     6    84    0    0    0
H 910.13779556 -76.18452811 69.27948760     6    84    0    0    0
H 909.85995475 -77.48894385 66.16653874     6    84    0    0    0
H 960.34086961 -84.32576716 80.69687611     6     89    0    0    0 
C 958.38119002 -84.79912645 80.98092932     1     88    90    91    92
H 958.28939206 -86.75775395 81.92289607     6     89    0    0    0
H 957.97317026 -83.39440010 82.28418760     6     89    0    0    0
C 956.56027965 -84.37245865 78.86897121     2     89    93    94    95
H 956.77956134 -82.51900365 78.10917512     6     92    0    0    0
H 956.80190674 -85.71795358 77.19670362     6     92    0    0    0
C 953.71190550 -84.67290474 79.53750520     2     92    96   97   98
H 953.44674532 -83.66822359 81.25157542     6     95    0    0    0
H 952.61227315 -83.64831160 78.09613907     6     95    0    0    0
C 952.53864424 -87.33597549 80.04492527     2     95   99   100   101
H 952.90942348 -88.22345614 78.34737967     6    98    0    0    0
H 953.27557976 -88.60065298 81.46668248     6    98    0    0    0
C 949.65398649 -87.15974120 80.45681421     2    98   102   103   104
H 949.04168863 -85.88867332 82.00469468     6    101    0    0    0
H 948.72601595 -86.55907620 78.62461478     6    101    0    0    0
C 948.57941009 -89.79142124 81.37248668     2    101   105   106   107
H 949.66222443 -91.20671068 80.36768305     6    104    0    0    0
H 949.11597034 -90.13879290 83.46745561     6    104    0    0    0
C 945.73696119 -89.76462445 80.99897195     2    104   108   109   110
H 944.54676658 -88.14718043 81.77976488     6    107    0    0    0
H 945.25614499 -89.89404651 78.98873988     6    107    0    0    0
C 944.49951453 -91.91117362 82.40034061     2    107   111   112   113
H 945.76692919 -93.61243649 82.26247155     6    110    0    0    0
H 944.35821593 -91.25916190 84.33428888     6    110    0    0    0
C 941.82965132 -92.28266325 81.24247899     2    110   114   115   116
H 940.97917926 -90.45247845 80.99039076     6    113    0    0    0
H 941.95407824 -93.08524292 79.38268919     6    113    0    0    0
C 940.21323253 -93.97694391 82.72017761     2    113   117   118   119
H 941.17594025 -95.98857290 82.89994820     6    116    0    0    0
H 939.83150817 -93.08473667 84.48047712     6    116    0    0    0
C 937.71942623 -94.18314236 81.22715764     2    116   120   121   122
H 936.29242354 -95.07911508 82.35170378     6    119    0    0    0
H 937.00489562 -92.34471049 80.54645966     6    119    0    0    0
C 938.06015667 -95.91248451 78.80362511     1    119   123   124   125
H 936.20770216 -97.01157925 78.39227477     6    122    0    0    0
H 939.54076211 -97.35923701 78.95205507     6    122    0    0    0
H 938.47449289 -94.77236802 77.10843616     6    122    0    0    0
H 949.32122751 -69.44200821 71.68477924     6     127    0    0    0 
C 950.66001568 -68.11179768 71.11582069     1     126    128    129    130
H 951.97183751 -67.58503005 72.63576224     6     127    0    0    0
H 951.79743576 -68.56215572 69.56243167     6     127    0    0    0
C 949.27257789 -65.80435998 70.17341827     2     127    131    132    133
H 947.99347029 -66.46173953 68.63280427     6     130    0    0    0
H 948.09596956 -65.33440948 71.83684604     6     130    0    0    0
C 950.94838460 -63.58258640 69.16517800     2     130    134   135   136
H 952.60365447 -63.35030752 70.32306777     6     133    0    0    0
H 951.58212078 -64.27187461 67.41775174     6     133    0    0    0
C 949.19287389 -61.23923763 68.75377756     2     133   137   138   139
H 947.91527890 -61.59553657 67.18072558     6    136    0    0    0
H 947.93060992 -61.01735279 70.25720026     6    136    0    0    0
C 950.88017636 -58.95262579 68.37783252     2    136   140   141   142
H 952.39531305 -59.01257932 69.79949891     6    139    0    0    0
H 951.77055231 -59.02604158 66.48844506     6    139    0    0    0
C 949.20412425 -56.74450723 68.96575472     2    139   143   144   145
H 947.65501055 -56.69604018 67.55568260     6    142    0    0    0
H 948.53139649 -56.98576018 70.80250344     6    142    0    0    0
C 950.66747654 -54.29661430 68.81134449     2    142   146   147   148
H 952.39233443 -54.15099365 69.92035270     6    145    0    0    0
H 951.60422149 -54.23401946 66.90200689     6    145    0    0    0
C 949.16885698 -51.86292722 69.46209588     2    145   149   150   151
H 947.60685979 -51.68262323 68.17778109     6    148    0    0    0
H 948.26424347 -52.12360980 71.23604922     6    148    0    0    0
C 950.68506918 -49.38664082 69.20808449     2    148   152   153   154
H 952.24410675 -49.19262690 70.60065453     6    151    0    0    0
H 951.71013013 -49.39730670 67.46513656     6    151    0    0    0
C 949.09152378 -46.92935377 69.40980317     2    151   155   156   157
H 950.17883872 -45.32947188 68.86447157     6    154    0    0    0
H 947.64271822 -47.21304110 68.03677923     6    154    0    0    0
C 947.63144453 -46.65903858 71.98651105     2    154   158   159   160
H 946.12021110 -45.29696303 71.74187903     6    157    0    0    0
H 946.63697605 -48.43917873 72.15527417     6    157    0    0    0
C 949.38432108 -46.35728654 74.40497331     1    157   161   162   163
H 948.36711069 -45.69891268 76.13180942     6    160    0    0    0
H 950.90813888 -45.16017502 74.21752352     6    160    0    0    0
H 950.20460876 -48.36326247 74.63036289     6    160    0    0    0
H 955.58790485 -79.71640571 57.87294520     6     165    0    0    0 
C 955.30151715 -77.94579475 58.68290446     1     164    166    167    168
H 953.41203070 -77.71410487 59.30619149     6     165    0    0    0
H 956.49168145 -77.66026042 60.33637083     6     165    0    0    0
C 955.64891738 -76.03707433 56.52524517     2     165    169    170    171
H 957.41770511 -76.47732514 55.42887847     6     168    0    0    0
H 954.11531714 -76.05573118 55.16771184     6     168    0    0    0
C 956.18601690 -73.42859435 57.29275188     2     168    172   173   174
H 954.61474510 -72.64022938 58.32858564     6     171    0    0    0
H 957.75616048 -73.33614321 58.52981414     6     171    0    0    0
C 956.56127987 -71.65959321 55.01096387     2     171   175   176   177
H 957.50275789 -72.71332861 53.42053803     6    174    0    0    0
H 954.69229086 -71.08807763 54.28551516     6    174    0    0    0
C 958.25516273 -69.35118033 55.56232495     2    174   178   179   180
H 957.95326611 -68.58925035 57.49486790     6    177    0    0    0
H 960.18158505 -70.03853462 55.60475598     6    177    0    0    0
C 958.00951582 -67.14786725 53.70651542     2    177   181   182   183
H 957.89701315 -67.81940999 51.67413241     6    180    0    0    0
H 956.11295777 -66.31521234 53.89907873     6    180    0    0    0
C 960.25378035 -65.17201812 53.84972439     2    180   184   185   186
H 961.17366752 -65.17053215 55.73523308     6    183    0    0    0
H 961.82867366 -65.76423211 52.57088321     6    183    0    0    0
C 959.26816658 -62.55677238 53.10375025     2    183   187   188   189
H 958.20329977 -62.74283597 51.24397688     6    186    0    0    0
H 958.11180455 -62.01362717 54.61617900     6    186    0    0    0
C 961.39768000 -60.58506469 52.65083468     2    186   190   191   192
H 962.34158255 -60.45226033 54.46174307     6    189    0    0    0
H 962.59858665 -61.57716864 51.44263892     6    189    0    0    0
C 959.91681517 -58.25776852 51.47549698     2    189   193   194   195
H 958.82266299 -58.93144216 49.90787209     6    192    0    0    0
H 958.63402417 -57.61281545 52.94146058     6    192    0    0    0
C 961.71111177 -56.19789633 50.47278736     2    192   196   197   198
H 962.94111627 -55.37122505 51.92712626     6    195    0    0    0
H 963.18928322 -56.93952805 49.11718590     6    195    0    0    0
C 960.32389634 -54.32047247 48.83232836     1    195   199   200   201
H 958.75312583 -53.69486996 49.75594113     6    198    0    0    0
H 959.62246292 -55.13613622 47.05966364     6    198    0    0    0
H 961.42312359 -52.63984733 48.42479100     6    198    0    0    0
H 939.61352556 -75.32932635 56.67533419     6     203    0    0    0 
C 939.14706639 -73.99164166 55.20700158     1     202    204    205    206
H 937.12802409 -74.62213947 54.69175869     6     203    0    0    0
H 939.24049117 -72.14226248 56.27651196     6     203    0    0    0
C 941.15073467 -74.08879403 52.95546249     2     203    207    208    209
H 941.43144491 -72.22431612 52.12528337     6     206    0    0    0
H 943.12975237 -74.19763843 53.58440360     6     206    0    0    0
C 940.40052320 -75.99932604 51.01557815     2     206    210   211   212
H 942.03589384 -76.41002107 49.79200481     6     209    0    0    0
H 939.92929319 -77.90756893 51.70586295     6     209    0    0    0
C 938.05750308 -75.22309348 49.43004887     2     209   213   214   215
H 936.47658221 -76.10983734 50.41809038     6    212    0    0    0
H 937.61634383 -73.18542893 49.71649546     6    212    0    0    0
C 938.46378327 -75.60438569 46.48255362     2    212   216   217   218
H 940.14431899 -74.39173600 45.89160180     6    215    0    0    0
H 939.10832638 -77.57250861 46.00571314     6    215    0    0    0
C 936.09888633 -74.82259128 45.02315867     2    215   219   220   221
H 934.52229353 -75.97247749 45.53883419     6    218    0    0    0
H 935.88914930 -72.91276820 45.94687762     6    218    0    0    0
C 936.62695078 -74.32887221 42.29272404     2    218   222   223   224
H 937.65556575 -72.58052197 42.13017394     6    221    0    0    0
H 937.44959301 -75.79300228 41.25919383     6    221    0    0    0
C 934.11114089 -73.55470863 40.99581760     2    221   225   226   227
H 932.71096904 -74.96089100 41.34329992     6    224    0    0    0
H 933.44572248 -71.79848249 42.01219053     6    224    0    0    0
C 934.24940036 -72.70968989 38.22998287     2    224   228   229   230
H 935.70142087 -71.21679660 38.20809639     6    227    0    0    0
H 935.19969443 -74.19972800 37.11917788     6    227    0    0    0
C 931.78806549 -71.54870563 36.90514154     2    227   231   232   233
H 930.46695520 -73.16876574 36.65626211     6    230    0    0    0
H 930.99815570 -70.00041510 38.08378629     6    230    0    0    0
C 932.53767275 -70.46689954 34.23773790     2    230   234   235   236
H 934.26539871 -69.22813603 34.31138573     6    233    0    0    0
H 933.10108113 -72.10920181 33.22274819     6    233    0    0    0
C 930.26202843 -69.11055459 33.07715882     1    233   237   238   239
H 928.80012652 -70.42219214 32.78699433     6    236    0    0    0
H 930.68319798 -68.52418993 31.11235230     6    236    0    0    0
H 929.48573338 -67.57765512 34.25575715     6    236    0    0    0
H 918.75780469 -82.57598166 72.86751447     6     241    0    0    0 
C 918.88886222 -82.97554374 70.78869542     1     240    242    243    244
H 917.07767397 -83.27748687 69.94974268     6     241    0    0    0
H 919.72722713 -81.28370123 69.96457949     6     241    0    0    0
C 920.36493440 -85.40969452 70.32152345     2     241    245    246    247
H 919.41818793 -87.08708952 71.09375599     6     244    0    0    0
H 920.31355405 -85.44422333 68.31602413     6     244    0    0    0
C 923.16987194 -85.25910462 71.26872637     2     244    248   249   250
H 923.92965406 -86.98830926 70.65607544     6     247    0    0    0
H 924.28936382 -83.84777612 70.21051278     6     247    0    0    0
C 923.47052517 -84.94656372 74.21647694     2     247   251   252   253
H 925.25951358 -84.16376699 74.64836683     6    250    0    0    0
H 922.27994371 -83.56279290 75.14650339     6    250    0    0    0
C 923.36553865 -87.55997418 75.53155178     2    250   254   255   256
H 921.82916387 -88.62925117 74.53958224     6    253    0    0    0
H 925.06887337 -88.54052764 74.96919359     6    253    0    0    0
C 923.14009763 -87.67361912 78.41166385     2    253   257   258   259
H 924.40377788 -86.19702306 79.28337557     6    256    0    0    0
H 921.22570309 -86.84173593 78.81084053     6    256    0    0    0
C 923.72431536 -90.23155222 79.59744619     2    256   260   261   262
H 922.42213331 -91.66071546 78.74801159     6    259    0    0    0
H 925.70642629 -90.79303820 78.99277084     6    259    0    0    0
C 923.71078116 -89.76745926 82.43831624     2    259   263   264   265
H 925.34793411 -88.77659747 83.14124960     6    262    0    0    0
H 922.10042123 -88.47956484 82.87593343     6    262    0    0    0
C 923.49695413 -92.32664091 83.86832890     2    262   266   267   268
H 922.95706089 -91.53737540 85.82059805     6    265    0    0    0
H 921.94541013 -93.67482752 83.29410847     6    265    0    0    0
C 925.90969748 -93.79532717 84.00228779     2    265   269   270   271
H 926.50208363 -94.54321439 82.12923627     6    268    0    0    0
H 927.54317076 -92.64167602 84.59226171     6    268    0    0    0
C 925.67086549 -96.02462761 85.77581194     2    268   272   273   274
H 925.52643607 -95.38431495 87.77831494     6    271    0    0    0
H 923.89824067 -96.94960096 85.48940852     6    271    0    0    0
C 927.81649884 -97.97795180 85.68440814     1    271   275   276   277
H 928.17263968 -99.08592965 83.80216949     6    274    0    0    0
H 927.70100801 -99.44906513 87.09628764     6    274    0    0    0
H 929.66011642 -97.14734719 85.87316529     6    274    0    0    0
H 943.81529759 -80.87869778 58.44308218     6     279    0    0    0 
C 942.23780534 -82.13862021 58.74970603     1     278    280    281    282
H 943.18817838 -83.85275344 59.19636609     6     279    0    0    0
H 941.05006405 -81.36415595 60.27525804     6     279    0    0    0
C 940.39462595 -82.45662873 56.36656653     2     279    283    284    285
H 939.80437908 -80.52910559 55.99045675     6     282    0    0    0
H 941.70433798 -82.87359676 54.71873602     6     282    0    0    0
C 938.24663121 -84.37138677 56.77480127     2     282    286   287   288
H 938.58813697 -86.39826837 56.54362751     6     285    0    0    0
H 937.32286426 -83.89718545 58.47276090     6     285    0    0    0
C 936.07799381 -83.77741849 55.03789126     2     285   289   290   291
H 935.65655686 -81.80016397 55.28445846     6    288    0    0    0
H 936.65705420 -83.90689463 53.08934020     6    288    0    0    0
C 933.73652387 -85.43918088 55.47986676     2    288   292   293   294
H 933.87502394 -87.23676925 54.53361541     6    291    0    0    0
H 933.27712026 -85.93561517 57.53740255     6    291    0    0    0
C 931.30868515 -84.19176651 54.47317699     2    291   295   296   297
H 931.02010283 -82.30101603 54.84785629     6    294    0    0    0
H 931.46509370 -84.46344740 52.49155721     6    294    0    0    0
C 929.00036004 -85.63291924 55.19047312     2    294   298   299   300
H 929.30746141 -87.62121755 54.64705522     6    297    0    0    0
H 929.07665740 -85.82048413 57.23329427     6    297    0    0    0
C 926.57367734 -84.57768541 54.25979236     2    297   301   302   303
H 926.50099334 -82.70962167 54.89105293     6    300    0    0    0
H 926.59947651 -84.46242817 52.25454046     6    300    0    0    0
C 924.20859294 -85.90736556 55.42849362     2    300   304   305   306
H 924.42671015 -87.90776938 54.93563705     6    303    0    0    0
H 924.41833613 -85.96621780 57.42371465     6    303    0    0    0
C 921.84183344 -85.14079052 54.17638503     2    303   307   308   309
H 921.64802252 -83.02053140 54.32217766     6    306    0    0    0
H 921.83271724 -85.81371802 52.17377163     6    306    0    0    0
C 919.57566493 -86.60545275 55.33525897     2    306   310   311   312
H 919.69531161 -88.61469064 55.03758480     6    309    0    0    0
H 919.60607417 -86.30947390 57.46988516     6    309    0    0    0
C 917.10749611 -85.30212976 54.47292011     1    309   313   314   315
H 916.82912465 -85.74348155 52.46336200     6    312    0    0    0
H 916.95891506 -83.12785987 54.67524173     6    312    0    0    0
H 915.54702390 -86.23962330 55.43330209     6    312    0    0    0
H 956.29300809 -68.48343796 76.64852708     6     317    0    0    0 
C 957.52505763 -66.98792676 76.17113310     1     316    318    319    320
H 958.35261141 -66.46911891 77.93153711     6     317    0    0    0
H 958.90413650 -67.77007244 74.80647524     6     317    0    0    0
C 956.03414402 -64.76230113 75.10475540     2     317    321    322    323
H 957.37457291 -63.23829210 74.74877599     6     320    0    0    0
H 955.49232154 -65.14335309 73.19110811     6     320    0    0    0
C 953.75645235 -64.06451492 76.84418354     2     320    324   325   326
H 952.38052711 -65.50035029 76.91446782     6     323    0    0    0
H 954.59668720 -63.71324157 78.72735333     6     323    0    0    0
C 952.31454182 -61.74809308 75.84336233     2     323   327   328   329
H 953.75098300 -60.30733764 75.60746779     6    326    0    0    0
H 951.32461084 -62.10705238 73.90460716     6    326    0    0    0
C 950.39734816 -60.66009442 77.84785784     2    326   330   331   332
H 949.41538772 -62.00259009 78.90186098     6    329    0    0    0
H 951.49712976 -59.64593459 79.09510028     6    329    0    0    0
C 948.31910790 -58.85203183 76.75285268     2    329   333   334   335
H 949.07347695 -57.09830436 76.08016098     6    332    0    0    0
H 947.50021306 -59.66425649 75.17717610     6    332    0    0    0
C 946.10022102 -58.36083389 78.63879278     2    332   336   337   338
H 945.06626457 -60.02479768 78.75685420     6    335    0    0    0
H 946.78358957 -57.98492250 80.61663605     6    335    0    0    0
C 944.27899323 -56.06324060 77.91024169     2    335   339   340   341
H 942.91913802 -55.73543286 79.31842934     6    338    0    0    0
H 945.46887160 -54.41195812 77.86691344     6    338    0    0    0
C 942.87967298 -56.46267291 75.30349220     2    338   342   343   344
H 944.23727408 -56.68960360 73.79489734     6    341    0    0    0
H 942.09545789 -58.24832918 75.36732382     6    341    0    0    0
C 940.76193420 -54.63340971 74.68753427     2    341   345   346   347
H 939.65773790 -55.49377100 73.09993182     6    344    0    0    0
H 939.41368948 -54.27399453 76.35381256     6    344    0    0    0
C 942.02538597 -52.14806369 73.73330439     2    344   348   349   350
H 943.36970927 -51.26954802 75.00339176     6    347    0    0    0
H 943.34522191 -52.40758842 72.20989753     6    347    0    0    0
C 940.02948551 -50.09690691 73.04291249     1    347   351   352   353
H 938.95059895 -49.30108966 74.75562733     6    350    0    0    0
H 939.11856188 -50.31832849 71.33590811     6    350    0    0    0
H 941.17921088 -48.56648702 72.41116006     6    350    0    0    0
H 928.53111099 -88.25231230 66.40191487     6     355    0    0    0 
C 929.98309836 -87.14205783 67.32139508     1     354    356    357    358
H 929.20182831 -85.18528297 67.37650416     6     355    0    0    0
H 930.33261833 -87.73100127 69.23171477     6     355    0    0    0
C 932.51445345 -87.16193031 65.86112476     2     355    359    360    361
H 933.09062042 -89.11775355 66.15343258     6     358    0    0    0
H 932.35268669 -86.79204116 63.78750642     6     358    0    0    0
C 934.37768265 -85.47540445 67.10008528     2     358    362   363   364
H 933.87934565 -83.51991398 66.94575237     6     361    0    0    0
H 934.50244468 -85.90074774 69.09492694     6     361    0    0    0
C 937.08192592 -86.01822534 65.88027116     2     361   365   366   367
H 937.54112744 -87.95133115 65.97579837     6    364    0    0    0
H 936.83282873 -85.65740760 63.87492577     6    364    0    0    0
C 939.19289168 -84.48571677 66.99249574     2    364   368   369   370
H 938.89785835 -82.47107425 67.02507544     6    367    0    0    0
H 939.48289336 -84.91983752 68.89428251     6    367    0    0    0
C 941.78558439 -84.88602791 65.84808015     2    367   371   372   373
H 942.15216134 -86.96496603 66.12507843     6    370    0    0    0
H 941.65844723 -84.26943426 63.94705527     6    370    0    0    0
C 944.01570019 -83.20357055 66.77232543     2    370   374   375   376
H 943.52326785 -81.25124515 67.06851678     6    373    0    0    0
H 944.33548121 -83.76055827 68.80292944     6    373    0    0    0
C 946.32704884 -83.10166723 65.22997757     2    373   377   378   379
H 946.93442087 -85.00214642 64.74812381     6    376    0    0    0
H 945.68290005 -82.23259182 63.37600962     6    376    0    0    0
C 948.58178173 -81.66485667 66.50330564     2    376   380   381   382
H 948.02037451 -79.71679753 66.84706971     6    379    0    0    0
H 949.27850314 -82.71651386 68.22868773     6    379    0    0    0
C 950.87554712 -81.44908042 64.85970723     2    379   383   384   385
H 951.44883141 -83.28291575 64.50541357     6    382    0    0    0
H 950.62244234 -80.43250933 63.15517987     6    382    0    0    0
C 952.97304047 -79.87189560 66.30949886     2    382   386   387   388
H 954.48566515 -79.57563639 64.98613136     6    385    0    0    0
H 952.26400343 -77.94434735 66.74197775     6    385    0    0    0
C 954.22874535 -80.98221627 68.56695279     1    385   389   390   391
H 955.57970024 -82.49733529 68.00446925     6    388    0    0    0
H 952.90371270 -81.66903149 69.93178299     6    388    0    0    0
H 955.20055191 -79.53481374 69.61372218     6    388    0    0    0
H 924.90091186 -37.44893950 78.05791665     6     393    0    0    0 
C 923.05057625 -38.30510306 77.77434401     1     392    394    395    396
H 921.80830239 -36.66989602 78.46638439     6     393    0    0    0
H 922.59955023 -38.33310169 75.77525175     6     393    0    0    0
C 922.59316074 -40.75682658 79.31854013     2     393    397    398    399
H 923.68435473 -42.28917358 78.44578256     6     396    0    0    0
H 922.84473210 -40.59196786 81.31234082     6     396    0    0    0
C 919.91159201 -41.66828923 79.10022149     2     396    400   401   402
H 918.50014842 -40.32818048 79.84243916     6     399    0    0    0
H 919.62729463 -41.91394233 77.10653153     6     399    0    0    0
C 919.44333110 -44.20605108 80.57898196     2     399   403   404   405
H 920.93771192 -45.64867612 79.91087508     6    402    0    0    0
H 919.94915692 -43.98153334 82.59926615     6    402    0    0    0
C 916.68442241 -45.02813809 80.19164045     2    402   406   407   408
H 915.32913143 -43.69371600 81.09749124     6    405    0    0    0
H 916.26626266 -45.12176701 78.14951732     6    405    0    0    0
C 916.13092522 -47.62213599 81.16204746     2    405   409   410   411
H 917.25787417 -49.09041566 80.20564156     6    408    0    0    0
H 916.72654393 -47.70650807 83.06238882     6    408    0    0    0
C 913.36069882 -48.66574663 80.93548521     2    408   412   413   414
H 911.95645472 -47.38782586 81.69735303     6    411    0    0    0
H 913.22591465 -48.46908066 78.97875645     6    411    0    0    0
C 913.05020215 -51.21044161 82.06776730     2    411   415   416   417
H 914.61548033 -52.41092264 81.44673020     6    414    0    0    0
H 913.35747146 -51.00480041 84.11857769     6    414    0    0    0
C 910.68679014 -52.55029851 81.21383050     2    414   418   419   420
H 909.17210116 -51.78523067 82.33280310     6    417    0    0    0
H 910.49445228 -52.02865411 79.25930746     6    417    0    0    0
C 910.94951632 -55.54563835 81.13465817     2    417   421   422   423
H 912.65853085 -55.92583071 79.99262257     6    420    0    0    0
H 911.47426615 -56.37759533 83.05719118     6    420    0    0    0
C 908.71236896 -56.89995645 79.88799376     2    420   424   425   426
H 908.99354492 -59.00204355 80.20603414     6    423    0    0    0
H 906.91272921 -56.52258467 80.80149815     6    423    0    0    0
C 908.50650580 -56.33099241 76.98565842     1    423   427   428   429
H 907.10537240 -57.68816283 76.21500662     6    426    0    0    0
H 910.33635177 -56.81344364 76.21378848     6    426    0    0    0
H 907.96658800 -54.41504812 76.41788520     6    426    0    0    0
H 921.49021698 -70.60342739 85.97103390     6     431    0    0    0 
C 922.08921919 -69.78195508 87.75208905     1     430    432    433    434
H 920.58401079 -69.57235031 89.10380533     6     431    0    0    0
H 923.58177258 -71.17894866 88.14126692     6     431    0    0    0
C 923.16696042 -67.17499071 87.15361979     2     431    435    436    437
H 924.31509853 -67.46378663 85.49918489     6     434    0    0    0
H 921.68084890 -65.95007061 86.33223150     6     434    0    0    0
C 924.55229670 -65.84293394 89.23791843     2     434    438   439   440
H 923.39321267 -66.03083666 90.90750613     6     437    0    0    0
H 926.21990133 -66.99634984 89.42233219     6     437    0    0    0
C 925.11914431 -62.89645485 88.78797787     2     437   441   442   443
H 926.55055330 -62.27608461 90.07821171     6    440    0    0    0
H 925.95010371 -62.70244681 87.02127285     6    440    0    0    0
C 922.67235923 -61.31265060 88.94904253     2    440   444   445   446
H 921.28932494 -61.83734432 87.47313086     6    443    0    0    0
H 921.78133688 -61.89006117 90.68999995     6    443    0    0    0
C 923.51438816 -58.54259364 89.02839273     2    443   447   448   449
H 925.02559960 -58.25644601 90.43683230     6    446    0    0    0
H 924.49508095 -58.13558530 87.14990978     6    446    0    0    0
C 921.03016714 -56.94776724 89.31593743     2    446   450   451   452
H 919.77658139 -57.30645344 87.79630791     6    449    0    0    0
H 920.13035347 -57.40123867 91.01876163     6    449    0    0    0
C 922.00321646 -54.25054358 89.51676691     2    449   453   454   455
H 923.01310492 -53.85687243 91.12365237     6    452    0    0    0
H 923.42432337 -53.90350044 87.88204891     6    452    0    0    0
C 919.58305223 -52.57572218 89.65566601     2    452   456   457   458
H 918.39375744 -52.86699043 88.09851269     6    455    0    0    0
H 918.68207660 -53.02481717 91.40678341     6    455    0    0    0
C 920.44527634 -49.83367316 90.00714735     2    455   459   460   461
H 919.10891451 -48.30888060 90.51413982     6    458    0    0    0
H 921.91923271 -49.46033586 91.32139132     6    458    0    0    0
C 921.43715758 -48.60201719 87.46307461     2    458   462   463   464
H 922.80101930 -49.88180683 86.56343987     6    461    0    0    0
H 919.81861264 -48.47811860 86.26741750     6    461    0    0    0
C 922.71408309 -46.02679671 87.78057364     1    461   465   466   467
H 923.93808491 -46.10654988 89.51869246     6    464    0    0    0
H 921.24186444 -44.56295745 87.96325782     6    464    0    0    0
H 923.84894015 -45.65385657 86.06317178     6    464    0    0    0
H 956.35089048 -87.45676811 68.23528301     6     469    0    0    0 
C 955.60625480 -87.29156498 70.21025674     1     468    470    471    472
H 956.15356628 -88.90954815 71.19271271     6     469    0    0    0
H 956.52757665 -85.76398561 71.23126962     6     469    0    0    0
C 952.68907359 -86.84705427 70.25485347     2     469    473    474    475
H 952.18250404 -85.68915166 71.94850067     6     472    0    0    0
H 952.21562075 -85.74706733 68.49473716     6     472    0    0    0
C 951.08983682 -89.19684621 70.25023889     2     472    476   477   478
H 950.23701163 -89.65772158 68.36421297     6     475    0    0    0
H 952.08127552 -90.85106165 71.05353305     6     475    0    0    0
C 948.72113906 -88.71937373 71.72949550     2     475   479   480   481
H 949.10785298 -88.95851750 73.68291678     6    478    0    0    0
H 948.23158835 -86.80052978 71.52173633     6    478    0    0    0
C 946.42740866 -90.33564292 71.00690799     2    478   482   483   484
H 946.18843287 -90.64790765 69.05262795     6    481    0    0    0
H 946.84289106 -92.21610645 71.84503938     6    481    0    0    0
C 943.72625306 -89.78107540 72.16724860     2    481   485   486   487
H 943.64978418 -89.99480676 74.25874980     6    484    0    0    0
H 942.83382091 -88.00740449 71.78565713     6    484    0    0    0
C 941.88898083 -91.81639208 71.52326448     2    484   488   489   490
H 942.11493627 -92.20558272 69.55960749     6    487    0    0    0
H 942.60083895 -93.62882782 72.22285317     6    487    0    0    0
C 939.08502167 -91.47463459 72.07356526     2    487   491   492   493
H 938.85292319 -91.11837295 74.08607164     6    490    0    0    0
H 938.42618186 -89.65281382 71.39453546     6    490    0    0    0
C 937.34729519 -93.73742111 71.08869397     2    490   494   495   496
H 937.43475277 -94.06619568 69.12011319     6    493    0    0    0
H 938.23223862 -95.46858576 71.85710780     6    493    0    0    0
C 934.61285011 -93.43942211 72.15904960     2    493   497   498   499
H 934.42820012 -93.56219362 74.21720290     6    496    0    0    0
H 933.68309259 -91.77912752 71.50183909     6    496    0    0    0
C 933.18647602 -95.74796000 71.16716115     2    496   500   501   502
H 933.44496309 -95.62781881 69.17300677     6    499    0    0    0
H 933.90758810 -97.59885467 71.80347368     6    499    0    0    0
C 930.39312734 -95.69241888 71.63182011     1    499   503   504   505
H 929.40580437 -97.00298934 70.54768082     6    502    0    0    0
H 929.62069093 -93.92341562 70.96329653     6    502    0    0    0
H 929.80048264 -96.18076826 73.63600950     6    502    0    0    0
H 918.11880419 -86.81548837 82.85737825     6     507    0    0    0 
C 917.13422495 -85.06508269 82.53728008     1     506    508    509    510
H 917.42078397 -84.69813312 80.59007839     6     507    0    0    0
H 915.15492755 -85.33926408 83.03655278     6     507    0    0    0
C 918.26992590 -82.85488416 84.20463640     2     507    511    512    513
H 917.71124876 -83.16980420 86.13168005     6     510    0    0    0
H 920.30335722 -82.90352676 84.01167930     6     510    0    0    0
C 917.60319883 -79.96933209 83.39889715     2     510    514   515   516
H 918.07220570 -79.62902025 81.34702518     6     513    0    0    0
H 915.56716900 -79.58523848 83.31716662     6     513    0    0    0
C 918.58522073 -77.93181850 85.17328700     2     513   517   518   519
H 918.37747382 -78.62742873 87.06189668     6    516    0    0    0
H 920.66877698 -77.90160330 85.02234011     6    516    0    0    0
C 917.33963905 -75.34325134 84.97125010     2    516   520   521   522
H 915.23682031 -75.58573755 85.37748475     6    519    0    0    0
H 917.95002595 -74.07925771 86.34053239     6    519    0    0    0
C 918.07935848 -73.76903961 82.60450244     2    519   523   524   525
H 920.21393380 -73.54482796 82.61805587     6    522    0    0    0
H 917.68102368 -74.89312961 80.83317954     6    522    0    0    0
C 916.39204733 -71.41523098 82.36014490     2    522   526   527   528
H 914.56195442 -71.98807718 81.40758600     6    525    0    0    0
H 915.82919495 -70.62516308 84.19481514     6    525    0    0    0
C 917.29275860 -69.46691028 80.57318588     2    525   529   530   531
H 919.09672144 -68.69499020 81.05856516     6    528    0    0    0
H 917.44123049 -70.50364319 78.76408352     6    528    0    0    0
C 915.43292974 -67.21166678 80.26660188     2    528   532   533   534
H 913.72483320 -68.19295999 79.50989486     6    531    0    0    0
H 915.14484126 -66.45193736 82.13552289     6    531    0    0    0
C 916.34219455 -65.19480252 78.43906500     2    531   535   536   537
H 918.22318566 -64.58345809 78.90193758     6    534    0    0    0
H 916.63228620 -66.14638801 76.56840088     6    534    0    0    0
C 914.74326555 -62.82732173 78.31500782     2    534   538   539   540
H 912.98908308 -63.32270124 77.29677544     6    537    0    0    0
H 914.06770785 -62.27168802 80.20315209     6    537    0    0    0
C 916.15199919 -60.53033533 77.31107515     1    537   541   542   543
H 914.90050189 -58.89991180 77.26366522     6    540    0    0    0
H 917.28793227 -60.73670421 75.54645637     6    540    0    0    0
H 917.77915720 -60.00887348 78.58831957     6    540    0    0    0
H 933.70242989 -50.13356070 74.49169147     6     545    0    0    0 
C 932.44155464 -48.42441965 74.75361683     1     544    546    547    548
H 930.49124012 -48.70526996 73.70871254     6     545    0    0    0
H 932.29179658 -48.03726534 76.70514423     6     545    0    0    0
C 933.92056090 -46.15478801 73.54049282     2     545    549    550    551
H 932.68988096 -44.38687605 73.78872303     6     548    0    0    0
H 935.79801361 -45.78869168 74.48346138     6     548    0    0    0
C 934.35585749 -46.61150588 70.75447236     2     548    552   553   554
H 935.66665005 -48.13825601 70.43497972     6     551    0    0    0
H 932.70234785 -47.48756373 69.88957721     6     551    0    0    0
C 935.32436264 -44.39706038 69.21825711     2     551   555   556   557
H 933.83991982 -43.73619069 67.98963741     6    554    0    0    0
H 935.81334004 -43.00386296 70.52791573     6    554    0    0    0
C 937.50705142 -45.15187633 67.57876891     2    554   558   559   560
H 938.75748938 -46.58941741 68.47388573     6    557    0    0    0
H 936.57182785 -46.43867599 66.16250603     6    557    0    0    0
C 938.81582168 -43.09479167 66.05729062     2    557   561   562   563
H 937.41274511 -41.49632926 65.66771893     6    560    0    0    0
H 940.26045109 -42.25301701 67.26822192     6    560    0    0    0
C 939.96279479 -44.15435299 63.70826283     2    560   564   565   566
H 941.32383435 -45.65309157 63.95683181     6    563    0    0    0
H 938.47396292 -45.00539754 62.68055719     6    563    0    0    0
C 941.23406898 -42.05900268 62.09135609     2    563   567   568   569
H 939.70184019 -40.75175527 61.54581232     6    566    0    0    0
H 942.47713029 -40.91007626 63.33378306     6    566    0    0    0
C 942.63923842 -42.90908046 59.68787362     2    566   570   571   572
H 944.40411721 -43.74662239 60.36457603     6    569    0    0    0
H 941.66235218 -44.50638664 58.78395905     6    569    0    0    0
C 943.15345870 -40.63441173 57.89649408     2    569   573   574   575
H 941.50363544 -39.52059111 57.55238653     6    572    0    0    0
H 944.50850301 -39.34824070 58.72211183     6    572    0    0    0
C 944.37860051 -41.42471890 55.24953938     2    572   576   577   578
H 943.00911245 -42.17824453 53.99754067     6    575    0    0    0
H 945.21326429 -39.76284538 54.45627713     6    575    0    0    0
C 946.43706580 -43.34480727 55.21163516     1    575   579   580   581
H 948.17315191 -42.35588086 55.99870276     6    578    0    0    0
H 946.89658312 -44.22062143 53.40764418     6    578    0    0    0
H 946.06704259 -44.94115857 56.52759632     6    578    0    0    0
H 947.18641800 -72.94524902 58.04692967     6     583    0    0    0 
C 948.07883075 -73.84915691 59.42816581     1     582    584    585    586
H 947.05363948 -75.39570404 60.31646478     6     583    0    0    0
H 949.51956294 -74.88452670 58.33797622     6     583    0    0    0
C 949.06536759 -71.99819472 61.29898901     2     583    587    588    589
H 947.77785200 -71.55210485 62.66050244     6     586    0    0    0
H 950.62107337 -73.04698604 62.27273764     6     586    0    0    0
C 950.16871930 -69.60731469 60.09261020     2     586    590   591   592
H 951.34315322 -69.99074825 58.42721706     6     589    0    0    0
H 948.67001131 -68.56988321 59.17322029     6     589    0    0    0
C 951.81481960 -67.74187006 61.71922301     2     589   593   594   595
H 950.72485780 -66.97584460 63.27056821     6    592    0    0    0
H 953.43637832 -68.77691127 62.55073411     6    592    0    0    0
C 952.82341042 -65.62819517 60.02839988     2    592   596   597   598
H 954.42053081 -66.48840875 58.90871035     6    595    0    0    0
H 951.44377963 -64.91723493 58.68024340     6    595    0    0    0
C 953.64034000 -63.28799243 61.59852290     2    595   599   600   601
H 951.96375480 -62.68966238 62.50013150     6    598    0    0    0
H 955.22649641 -63.62546836 62.87176730     6    598    0    0    0
C 954.10727272 -60.96524767 59.87126458     2    598   602   603   604
H 955.18404744 -61.47551849 58.22113638     6    601    0    0    0
H 952.20307297 -60.57849157 58.96016138     6    601    0    0    0
C 955.62903491 -58.98475074 61.27723290     2    601   605   606   607
H 954.27307653 -58.61115887 62.83528726     6    604    0    0    0
H 957.38986013 -59.33743553 62.22203308     6    604    0    0    0
C 955.62948975 -56.44825624 59.81496499     2    604   608   609   610
H 957.46484008 -56.50318895 58.94185653     6    607    0    0    0
H 954.05938565 -56.21141385 58.50932740     6    607    0    0    0
C 955.75516918 -54.26839090 61.75700708     2    607   611   612   613
H 954.06315694 -54.41370528 62.88702302     6    610    0    0    0
H 957.29571716 -54.72630485 63.18961427     6    610    0    0    0
C 955.99763437 -51.63419500 60.57479564     2    610   614   615   616
H 958.02631916 -51.55717347 59.98635546     6    613    0    0    0
H 954.99034812 -51.54970728 58.83759248     6    613    0    0    0
C 955.49440527 -49.39030190 62.38582170     1    613   617   618   619
H 953.48457101 -49.71896985 62.85007849     6    616    0    0    0
H 955.76012723 -47.50854103 61.37807360     6    616    0    0    0
H 956.78240578 -49.43854731 64.10884507     6    616    0    0    0
H 913.56344620 -57.85425038 61.65998735     6     621    0    0    0 
C 915.29460869 -56.85801009 61.10251031     1     620    622    623    624
H 914.62915872 -54.88932670 60.90376744     6     621    0    0    0
H 916.54153251 -56.86040100 62.78179553     6     621    0    0    0
C 916.77187484 -58.26446112 58.99410121     2     621    625    626    627
H 918.56641476 -57.57317723 58.81271523     6     624    0    0    0
H 917.04627196 -60.21668579 59.82217626     6     624    0    0    0
C 915.23985885 -58.35113276 56.43479061     2     624    628   629   630
H 913.28912020 -59.06342552 56.86548679     6     627    0    0    0
H 915.42170961 -56.44669236 55.73324727     6     627    0    0    0
C 916.35237457 -60.20436983 54.52467350     2     627   631   632   633
H 918.42847806 -60.04011494 54.30958919     6    630    0    0    0
H 916.05912263 -62.18237673 55.05580673     6    630    0    0    0
C 915.18866189 -59.81183858 51.95025372     2    630   634   635   636
H 913.10517633 -59.81014826 52.06649473     6    633    0    0    0
H 915.59973589 -57.93694810 51.37895763     6    633    0    0    0
C 915.97572586 -61.62793312 49.74966581     2    633   637   638   639
H 918.00877755 -61.24389102 49.58864347     6    636    0    0    0
H 915.64696736 -63.61037888 50.18902134     6    636    0    0    0
C 914.77696847 -60.67430849 47.23839823     2    636   640   641   642
H 912.82088214 -61.43520088 47.11100025     6    639    0    0    0
H 914.48216564 -58.66754737 46.93637581     6    639    0    0    0
C 915.80165635 -61.86829106 44.74616535     2    639   643   644   645
H 917.78824730 -61.93057324 44.99146283     6    642    0    0    0
H 915.09700308 -63.86575167 44.76914225     6    642    0    0    0
C 914.96628554 -60.42133960 42.37871240     2    642   646   647   648
H 913.00509977 -59.99827975 42.60286436     6    645    0    0    0
H 915.93057718 -58.54639471 42.24267720     6    645    0    0    0
C 915.08755188 -62.05628385 39.97562914     2    645   649   650   651
H 917.01567708 -62.22099544 39.32658889     6    648    0    0    0
H 914.33976844 -63.83091573 40.34947015     6    648    0    0    0
C 913.28826456 -61.14280703 37.74483125     2    648   652   653   654
H 911.37742555 -61.07437258 38.52717811     6    651    0    0    0
H 913.95669905 -59.31208563 37.17429941     6    651    0    0    0
C 913.31169009 -63.03187598 35.55254430     1    651   655   656   657
H 915.22231169 -63.14100567 34.85587216     6    654    0    0    0
H 912.18140471 -62.26887280 34.04450476     6    654    0    0    0
H 912.56244061 -64.84112343 35.99844405     6    654    0    0    0
H 944.50035135 -69.31366166 53.68402018     6     659    0    0    0 
C 944.56784536 -68.45637858 55.47570849     1     658    660    661    662
H 943.71375118 -69.88092915 56.79326994     6     659    0    0    0
H 946.64180501 -67.93264015 55.74651291     6     659    0    0    0
C 942.87867468 -66.17561062 55.19256079     2     659    663    664    665
H 943.52749086 -64.80159048 53.64097883     6     662    0    0    0
H 941.10240101 -66.86617898 54.44089056     6     662    0    0    0
C 942.26927051 -65.03642823 57.66869474     2     662    666   667   668
H 940.65284095 -63.77128164 57.23797002     6     665    0    0    0
H 941.85518682 -66.31755033 59.12913924     6     665    0    0    0
C 944.47930186 -63.38001582 58.50465508     2     665   669   670   671
H 945.98507504 -64.54378520 59.04117448     6    668    0    0    0
H 945.17064326 -62.16795702 57.04967787     6    668    0    0    0
C 943.89247179 -61.65308219 60.79372742     2    668   672   673   674
H 942.71493060 -60.23061771 60.31155788     6    671    0    0    0
H 942.95780057 -62.99706414 62.11799288     6    671    0    0    0
C 946.17768636 -60.30388705 61.94349559     2    671   675   676   677
H 945.78266332 -59.69308776 63.83660514     6    674    0    0    0
H 947.77436731 -61.51828933 62.04035128     6    674    0    0    0
C 947.05312496 -58.00288018 60.47221733     2    674   678   679   680
H 949.05917789 -57.44688445 60.87221952     6    677    0    0    0
H 947.68126329 -58.55512443 58.58679550     6    677    0    0    0
C 945.13093531 -55.81643312 60.49991088     2    677   681   682   683
H 943.39347230 -56.30839135 59.43459338     6    680    0    0    0
H 944.50811264 -55.60662504 62.39546433     6    680    0    0    0
C 946.18921633 -53.35936039 59.41523424     2    680   684   685   686
H 947.77442844 -53.95002216 58.32362366     6    683    0    0    0
H 944.62490615 -52.71805537 58.29227761     6    683    0    0    0
C 947.07794240 -51.46293822 61.41748591     2    683   687   688   689
H 945.56117460 -50.68035658 62.67693903     6    686    0    0    0
H 948.35534439 -52.35209122 62.68579330     6    686    0    0    0
C 948.68051597 -49.48099622 60.01922038     2    686   690   691   692
H 950.33709347 -50.42886259 59.22037878     6    689    0    0    0
H 947.77811414 -48.72752865 58.32993139     6    689    0    0    0
C 949.14887774 -47.34085305 61.85615729     1    689   693   694   695
H 950.13386949 -45.84334459 61.03115369     6    692    0    0    0
H 950.18702451 -47.74167365 63.59668427     6    692    0    0    0
H 947.33967945 -46.72977848 62.55983387     6    692    0    0    0
H 933.98789982 -31.83200582 65.06910921     6     697    0    0    0 
C 933.84582869 -32.10942933 67.22361490     1     696    698    699    700
H 935.68799217 -32.00517392 68.04206078     6     697    0    0    0
H 932.85521772 -30.37266847 67.79800226     6     697    0    0    0
C 932.51837155 -34.47082108 68.10430047     2     697    701    702    703
H 930.61377307 -34.50632642 67.57314867     6     700    0    0    0
H 933.42808050 -36.05040593 67.13201797     6     700    0    0    0
C 932.87860276 -34.85621578 70.96993449     2     700    704   705   706
H 934.76514690 -35.68177383 71.14365567     6     703    0    0    0
H 932.89901435 -33.06278919 72.05757884     6     703    0    0    0
C 930.86637313 -36.77805061 71.95964907     2     703   707   708   709
H 929.04571998 -36.19502186 71.37602444     6    706    0    0    0
H 931.12317743 -38.72325179 71.22277894     6    706    0    0    0
C 930.94629730 -37.11511887 74.85562105     2    706   710   711   712
H 932.01566670 -35.49457039 75.80861106     6    709    0    0    0
H 929.07985973 -36.55217787 75.53415273     6    709    0    0    0
C 931.52433022 -39.78271090 75.82828147     2    709   713   714   715
H 930.16928502 -41.20972274 75.08730740     6    712    0    0    0
H 933.39911571 -40.24338460 75.32611721     6    712    0    0    0
C 931.08439389 -39.77019232 78.74131248     2    712   716   717   718
H 932.09213024 -38.21241057 79.57201873     6    715    0    0    0
H 929.04578321 -39.40058134 79.17248956     6    715    0    0    0
C 931.95133247 -42.29968547 79.81508553     2    715   719   720   721
H 931.28274174 -43.79658509 78.54179440     6    718    0    0    0
H 933.99166867 -42.30108189 80.00059049     6    718    0    0    0
C 930.63963873 -42.74803597 82.38223568     2    718   722   723   724
H 931.08261569 -41.11470021 83.61312114     6    721    0    0    0
H 928.53977146 -42.55273656 82.19699937     6    721    0    0    0
C 931.66413578 -45.15425418 83.74841475     2    721   725   726   727
H 931.83746095 -46.64672367 82.31867744     6    724    0    0    0
H 933.72120494 -44.88335791 83.95878024     6    724    0    0    0
C 930.06183151 -46.19173018 86.00976208     2    724   728   729   730
H 928.03974496 -46.34532637 85.54085235     6    727    0    0    0
H 931.10399386 -47.97190872 86.54306990     6    727    0    0    0
C 930.49605708 -44.68263232 88.41270719     1    727   731   732   733
H 929.58447706 -45.46861626 90.16925604     6    730    0    0    0
H 929.86678316 -42.60586405 88.05877231     6    730    0    0    0
H 932.55667649 -44.68138649 88.88111305     6    730    0    0    0
H 950.76875607 -75.02153718 74.19414115     6     735    0    0    0 
C 949.27788617 -76.25573810 74.72791017     1     734    736    737    738
H 948.66156400 -76.19356818 76.65143398     6     735    0    0    0
H 947.70484626 -75.87893754 73.49879236     6     735    0    0    0
C 950.18635640 -79.00212319 73.94518270     2     735    739    740    741
H 951.46441106 -78.81323882 72.36489479     6     738    0    0    0
H 951.11793185 -80.05818782 75.49409444     6     738    0    0    0
C 947.84369496 -80.52937799 73.26660679     2     738    742   743   744
H 946.77365418 -79.40353653 71.88336377     6     741    0    0    0
H 948.39858001 -82.07588202 72.06493003     6     741    0    0    0
C 946.66790760 -81.71352477 75.68813114     2     741   745   746   747
H 947.69398265 -83.37182888 76.42709505     6    744    0    0    0
H 947.04513436 -80.43158482 77.29362338     6    744    0    0    0
C 943.85839620 -81.95236313 75.71192275     2    744   748   749   750
H 943.19779051 -80.00935319 75.55960442     6    747    0    0    0
H 943.27802753 -83.16464191 74.09396201     6    747    0    0    0
C 942.74580161 -83.11524721 78.07966082     2    747   751   752   753
H 943.49676585 -85.06723887 78.50992451     6    750    0    0    0
H 943.29148362 -81.97238497 79.57869725     6    750    0    0    0
C 939.82133012 -83.00388308 77.95724913     2    750   754   755   756
H 939.16150439 -83.09162065 79.83698128     6    753    0    0    0
H 939.12684793 -81.15780883 77.16951171     6    753    0    0    0
C 938.83792316 -85.17544726 76.34837828     2    753   757   758   759
H 939.28867103 -84.66957450 74.42754831     6    756    0    0    0
H 939.80405090 -86.92995905 76.80878950     6    756    0    0    0
C 935.82682426 -85.49315862 76.53432483     2    756   760   761   762
H 935.10137281 -83.52464237 76.52473904     6    759    0    0    0
H 935.19042677 -86.49910535 74.74266593     6    759    0    0    0
C 934.87819498 -86.81096457 78.90481281     2    759   763   764   765
H 935.97633278 -88.48857811 78.92015749     6    762    0    0    0
H 935.50618242 -85.86265913 80.62378332     6    762    0    0    0
C 932.02259161 -87.13445946 78.83028166     2    762   766   767   768
H 931.22200068 -85.26953578 78.27765047     6    765    0    0    0
H 931.28531358 -88.35982180 77.29071021     6    765    0    0    0
C 931.06767286 -88.26874128 81.22698118     1    765   769   770   771
H 932.26691940 -89.81181929 81.83456915     6    768    0    0    0
H 929.03488642 -88.64599238 81.23436001     6    768    0    0    0
H 931.24320380 -86.80406001 82.77346994     6    768    0    0    0
H 908.58031169 -55.91842311 49.42266585     6     773    0    0    0 
C 906.62523370 -56.45693454 49.76338986     1     772    774    775    776
H 905.51869455 -54.73806296 49.29259393     6     773    0    0    0
H 906.20109748 -57.99378870 48.51275044     6     773    0    0    0
C 906.30221443 -57.20631779 52.51667027     2     773    777    778    779
H 904.35240367 -57.42539917 52.64190763     6     776    0    0    0
H 907.03864219 -58.98583189 52.86063915     6     776    0    0    0
C 906.92752600 -55.25829566 54.48869639     2     776    780   781   782
H 908.74152887 -54.45211205 53.92808829     6     779    0    0    0
H 905.59417994 -53.79496510 54.19500800     6     779    0    0    0
C 907.12300439 -56.22741739 57.24338331     2     779   783   784   785
H 905.90627378 -57.70723317 57.70373648     6    782    0    0    0
H 909.04697714 -56.93606566 57.35737741     6    782    0    0    0
C 907.16282763 -53.94300833 58.96405540     2    782   786   787   788
H 908.54664083 -52.55968957 58.20980840     6    785    0    0    0
H 905.20933316 -53.19732990 58.98868097     6    785    0    0    0
C 907.67756078 -54.52447006 61.75681130     2    785   789   790   791
H 906.39282993 -55.92131278 62.62958246     6    788    0    0    0
H 909.41150766 -55.68718573 61.90758103     6    788    0    0    0
C 907.76493318 -52.19548511 63.52901595     2    788   792   793   794
H 909.39352811 -51.01857066 63.00123803     6    791    0    0    0
H 906.09494402 -51.09782011 62.87642422     6    791    0    0    0
C 908.15943621 -52.71909849 66.41885840     2    791   795   796   797
H 906.72599521 -54.13312693 66.87323898     6    794    0    0    0
H 909.96185603 -53.76273993 66.77486218     6    794    0    0    0
C 907.97156238 -50.22735787 67.93548204     2    794   798   799   800
H 909.23622243 -48.87120964 66.97576556     6    797    0    0    0
H 906.06392458 -49.36268330 67.69753492     6    797    0    0    0
C 908.48641704 -50.55306462 70.73834322     2    797   801   802   803
H 906.84447852 -51.17412614 71.42832563     6    800    0    0    0
H 909.80623681 -52.05885859 71.24643962     6    800    0    0    0
C 909.00144240 -48.25528188 72.32196272     2    800   804   805   806
H 910.55275643 -47.25118507 71.55472232     6    803    0    0    0
H 907.18321279 -47.13546940 72.24273988     6    803    0    0    0
C 909.61550899 -48.75220239 75.05551582     1    803   807   808   809
H 911.23246189 -50.11649961 75.07667504     6    806    0    0    0
H 907.91319392 -49.44715294 75.92768227     6    806    0    0    0
H 910.26887503 -47.04004031 76.06026121     6    806    0    0    0
H 944.64432234 -74.40711626 63.68899920     6     811    0    0    0 
C 943.03357319 -75.64817061 64.39340900     1     810    812    813    814
H 943.90597165 -77.31381451 65.20784467     6     811    0    0    0
H 942.32163882 -74.47952911 66.02618195     6     811    0    0    0
C 940.77101690 -76.01579244 62.53171956     2     811    815    816    817
H 940.02833036 -74.11615223 61.84817829     6     814    0    0    0
H 941.50468187 -76.94646021 60.85852144     6     814    0    0    0
C 938.62861675 -77.62839002 63.73080530     2     814    818   819   820
H 939.55283232 -79.34162008 64.43575612     6     817    0    0    0
H 937.91055505 -76.59315042 65.32460338     6     817    0    0    0
C 936.48950732 -78.16261580 61.73023725     2     817   821   822   823
H 935.70990453 -76.38842613 61.22696418     6    820    0    0    0
H 937.22637044 -79.11952969 60.02074533     6    820    0    0    0
C 934.36005762 -80.14029036 62.51288372     2    820   824   825   826
H 935.20501018 -81.95005711 62.74525540     6    823    0    0    0
H 933.95299426 -79.52841804 64.39511323     6    823    0    0    0
C 931.99219224 -80.24771706 60.76801787     2    823   827   828   829
H 931.35999579 -78.26565433 60.54882571     6    826    0    0    0
H 932.47328415 -80.94169166 58.83394855     6    826    0    0    0
C 929.79931676 -81.81419830 61.79650706     2    826   830   831   832
H 929.92954487 -83.87923532 61.14896209     6    829    0    0    0
H 929.86705131 -81.86025359 63.81837843     6    829    0    0    0
C 927.20963338 -81.09773974 60.65150056     2    829   833   834   835
H 926.77783046 -79.20255071 61.01242127     6    832    0    0    0
H 927.31844668 -81.13761321 58.54101207     6    832    0    0    0
C 925.23074632 -82.94270997 61.75128962     2    832   836   837   838
H 925.38905165 -85.06246731 61.37523772     6    835    0    0    0
H 925.53392295 -82.67866385 63.75484618     6    835    0    0    0
C 922.30094674 -82.19356058 61.28374892     2    835   839   840   841
H 921.87218741 -80.22318407 61.84586309     6    838    0    0    0
H 922.20961217 -82.30422610 59.34488325     6    838    0    0    0
C 920.34639337 -84.08066148 62.35629518     2    838   842   843   844
H 920.74566346 -86.04832667 61.62080424     6    841    0    0    0
H 920.52898060 -83.80392315 64.38238476     6    841    0    0    0
C 917.65529686 -83.05214398 61.82253370     1    841   845   846   847
H 916.90727026 -84.56300931 60.60869259     6    844    0    0    0
H 917.53489653 -81.31952337 60.69219935     6    844    0    0    0
H 916.45038771 -83.04276750 63.53883465     6    844    0    0    0
H 949.75633281 -40.83965401 51.76310636     6     849    0    0    0 
C 951.76166843 -40.31005085 52.12141199     1     848    850    851    852
H 952.14947745 -38.51254941 51.25323561     6     849    0    0    0
H 952.02362865 -40.10528731 54.16850844     6     849    0    0    0
C 953.50240446 -42.39997220 51.26096265     2     849    853    854    855
H 953.08826936 -43.06687465 49.20571498     6     852    0    0    0
H 955.54368714 -42.21007691 51.41960211     6     852    0    0    0
C 953.24314606 -44.85965689 52.97047739     2     852    856   857   858
H 954.95149648 -45.08014803 54.05606002     6     855    0    0    0
H 951.53261726 -44.80175456 54.29544094     6     855    0    0    0
C 953.05431024 -47.28310997 51.46089967     2     855   859   860   861
H 951.87807232 -47.04613785 49.67174528     6    858    0    0    0
H 954.93651361 -47.54630085 50.53888835     6    858    0    0    0
C 952.21714107 -49.55193443 52.95823708     2    858   862   863   864
H 953.43948160 -49.63018629 54.71256805     6    861    0    0    0
H 950.28400496 -49.07707715 53.27500334     6    861    0    0    0
C 952.65207667 -51.87741318 51.15482170     2    861   865   866   867
H 951.92525909 -51.48159310 49.28236203     6    864    0    0    0
H 954.63199764 -52.03500898 51.36066838     6    864    0    0    0
C 951.28252076 -54.21528502 52.38216115     2    864   868   869   870
H 952.26877180 -54.67811524 54.04614710     6    867    0    0    0
H 949.49829335 -53.76488218 53.03389097     6    867    0    0    0
C 950.95726778 -56.51194741 50.56822969     2    867   871   872   873
H 949.89380140 -55.97439611 48.96817667     6    870    0    0    0
H 952.97295830 -56.86378600 49.95087540     6    870    0    0    0
C 949.92144353 -58.75042114 52.00679021     2    870   874   875   876
H 951.36800650 -58.98926235 53.57576366     6    873    0    0    0
H 948.12897848 -58.24981433 52.89593499     6    873    0    0    0
C 949.38702754 -61.15293332 50.29052335     2    873   877   878   879
H 947.82879196 -60.98985676 49.01522840     6    876    0    0    0
H 950.86931989 -61.60248629 49.02304373     6    876    0    0    0
C 949.32351981 -63.45175461 51.97818559     2    876   880   881   882
H 951.07824040 -63.60675175 53.20332045     6    879    0    0    0
H 947.69005815 -63.24895068 53.14116204     6    879    0    0    0
C 949.47727724 -65.95014793 50.52843638     1    879   883   884   885
H 951.40946877 -66.68564024 50.20217064     6    882    0    0    0
H 948.52285714 -65.66831025 48.75183684     6    882    0    0    0
H 948.32884660 -67.27467381 51.58740569     6    882    0    0    0
H 922.83142581 -72.73466426 56.99188243     6     887    0    0    0 
C 924.11820102 -74.25835543 56.25565308     1     886    888    889    890
H 923.97879246 -76.06200387 57.15086911     6     887    0    0    0
H 923.62505205 -74.62700868 54.30370839     6     887    0    0    0
C 926.89943710 -73.38414836 56.35886829     2     887    891    892    893
H 928.00285275 -74.87851684 55.40290324     6     890    0    0    0
H 927.09584588 -71.69962333 55.20505658     6     890    0    0    0
C 928.04982216 -72.93910759 59.00988367     2     890    894   895   896
H 926.63133088 -71.92147758 60.30077283     6     893    0    0    0
H 928.40706836 -74.74162143 59.87797031     6     893    0    0    0
C 930.54177543 -71.46947152 58.91543597     2     893   897   898   899
H 932.14139018 -72.30437337 57.80917181     6    896    0    0    0
H 930.22383240 -69.81814574 57.69189995     6    896    0    0    0
C 931.61778820 -70.99803823 61.55103191     2    896   900   901   902
H 930.07188372 -70.02833759 62.53741943     6    899    0    0    0
H 932.34743833 -72.78307857 62.35545565     6    899    0    0    0
C 934.01365210 -69.36686515 61.42201970     2    899   903   904   905
H 935.50277126 -70.22293347 60.37568198     6    902    0    0    0
H 933.64203504 -67.47901135 60.61689079     6    902    0    0    0
C 934.94482618 -69.08668080 64.29292727     2    902   906   907   908
H 933.66602111 -68.58776434 65.64640631     6    905    0    0    0
H 935.74112636 -70.83565781 64.77073042     6    905    0    0    0
C 937.12204598 -67.18359955 64.33957834     2    905   909   910   911
H 938.79092193 -67.60738727 63.17501733     6    908    0    0    0
H 936.37671271 -65.39291037 63.49211149     6    908    0    0    0
C 938.26393981 -66.97865410 66.99050854     2    908   912   913   914
H 936.86818365 -67.17916706 68.57194810     6    911    0    0    0
H 939.35895247 -68.77957214 67.15895341     6    911    0    0    0
C 940.12460275 -64.82401845 67.19265387     2    911   915   916   917
H 941.71980841 -65.04581748 65.95902112     6    914    0    0    0
H 939.13809715 -63.16075507 66.54106235     6    914    0    0    0
C 940.98033925 -64.42682248 69.85851077     2    914   918   919   920
H 939.36885209 -64.48056830 71.22216421     6    917    0    0    0
H 942.28799498 -66.13823014 70.35040082     6    917    0    0    0
C 942.81519262 -62.06619710 70.26245343     1    917   921   922   923
H 941.87174247 -60.25428164 69.95255820     6    920    0    0    0
H 944.28113228 -62.28729144 68.92403153     6    920    0    0    0
H 943.83508259 -62.01846820 72.04632523     6    920    0    0    0
H 932.90422494 -55.92557676 45.76449438     6     925    0    0    0 
C 933.07919244 -58.06707539 45.91010069     1     924    926    927    928
H 934.73495441 -58.29492335 47.06094694     6     925    0    0    0
H 931.49295088 -58.66712782 46.95831812     6     925    0    0    0
C 933.21946946 -59.44895247 43.44764268     2     925    929    930    931
H 931.47544120 -59.07212898 42.27399317     6     928    0    0    0
H 934.84014314 -58.95276780 42.44394348     6     928    0    0    0
C 933.43428226 -62.31380896 43.88169282     2     928    932   933   934
H 931.80317826 -62.96625021 44.84583731     6     931    0    0    0
H 933.31474114 -63.15919078 42.02844413     6     931    0    0    0
C 936.04684858 -63.12658671 45.03269584     2     931   935   936   937
H 937.63983385 -62.64840983 43.76498734     6    934    0    0    0
H 936.44035504 -61.84321727 46.61297073     6    934    0    0    0
C 936.37548431 -65.83579572 45.85284283     2    934   938   939   940
H 934.78804117 -66.08528527 47.07746423     6    937    0    0    0
H 935.95393190 -67.02843876 44.33245212     6    937    0    0    0
C 938.73488617 -66.43385394 47.41518514     2    937   941   942   943
H 938.71922081 -65.25925804 49.13111033     6    940    0    0    0
H 938.30217827 -68.19636115 48.28699846     6    940    0    0    0
C 941.32724580 -66.37512226 46.04921181     2    940   944   945   946
H 941.08668270 -65.88507931 44.06289259     6    943    0    0    0
H 942.38947834 -64.86395491 46.92364903     6    943    0    0    0
C 942.90249596 -68.80604521 46.25327030     2    943   947   948   949
H 944.00776438 -68.54127391 47.99869123     6    946    0    0    0
H 941.88714489 -70.45470760 45.93518376     6    946    0    0    0
C 945.14861098 -68.71432328 44.47444206     2    946   950   951   952
H 944.41049891 -69.46051159 42.61013182     6    949    0    0    0
H 945.85158579 -66.75444384 44.03745609     6    949    0    0    0
C 947.46793728 -70.42429127 45.02761696     2    949   953   954   955
H 948.03558953 -70.47671962 46.95875970     6    952    0    0    0
H 946.76913860 -72.37427134 44.65862512     6    952    0    0    0
C 949.48208273 -69.61676621 42.99727558     2    952   956   957   958
H 950.98058631 -70.93869881 42.95824328     6    955    0    0    0
H 948.71940378 -69.82701425 41.01706101     6    955    0    0    0
C 950.77962669 -67.10096719 43.51627041     1    955   959   960   961
H 952.61971782 -67.45501344 44.62724003     6    958    0    0    0
H 949.61441599 -65.88184528 44.64452956     6    958    0    0    0
H 951.43742132 -66.11807530 41.81997941     6    958    0    0    0
H 929.89696877 -71.67160276 80.05900164     6     963    0    0    0 
C 928.07489969 -71.70481718 79.16302978     1     962    964    965    966
H 928.24447458 -71.34853698 77.19485171     6     963    0    0    0
H 927.43698589 -73.56139441 79.53450591     6     963    0    0    0
C 926.09861424 -69.91574006 80.12188909     2     963    967    968    969
H 924.41031278 -70.05915298 79.00381328     6     966    0    0    0
H 925.84258614 -70.57132975 82.06549312     6     966    0    0    0
C 926.80445740 -67.19562944 80.50640583     2     966    970   971   972
H 927.32479427 -66.90903490 82.46790337     6     969    0    0    0
H 928.44595806 -66.82565741 79.40490564     6     969    0    0    0
C 924.57084555 -65.30631426 80.17989539     2     969   973   974   975
H 923.47469525 -65.55762178 78.46137783     6    972    0    0    0
H 923.25492377 -65.79904409 81.57038566     6    972    0    0    0
C 925.38271794 -62.51635042 80.78587422     2    972   976   977   978
H 926.31612602 -62.55687439 82.59312254     6    975    0    0    0
H 927.10165073 -62.23659490 79.48261739     6    975    0    0    0
C 923.32652624 -60.52514076 80.79138118     2    975   979   980   981
H 922.23586982 -60.58518284 79.00049022     6    978    0    0    0
H 922.03378860 -60.66417185 82.42616095     6    978    0    0    0
C 924.64742064 -57.85238646 80.89382299     2    978   982   983   984
H 925.98752689 -57.84112718 82.49465930     6    981    0    0    0
H 925.72922404 -57.65779759 79.23288541     6    981    0    0    0
C 922.70023931 -55.75249478 81.09024295     2    981   985   986   987
H 921.60673089 -55.70983030 79.27571468     6    984    0    0    0
H 921.42443055 -56.05488821 82.75236046     6    984    0    0    0
C 923.94295127 -53.11970624 81.81752608     2    984   988   989   990
H 922.44313202 -52.08433527 82.69029420     6    987    0    0    0
H 925.33100940 -53.60800319 83.33246951     6    987    0    0    0
C 925.10243657 -51.76169644 79.48699371     2    987   991   992   993
H 926.31744305 -53.20105468 78.64527130     6    990    0    0    0
H 923.55740093 -51.28970622 78.19157582     6    990    0    0    0
C 926.45761499 -49.31574009 80.25402714     2    990   994   995   996
H 925.52053501 -48.57774326 81.98504764     6    993    0    0    0
H 928.34163105 -49.88125785 80.63424630     6    993    0    0    0
C 926.60951777 -47.46152054 78.02021137     1    993   997   998   999
H 927.12900382 -48.52614613 76.22465637     6    996    0    0    0
H 927.82086692 -45.90187909 78.39474798     6    996    0    0    0
H 924.78871692 -46.54291343 77.33659299     6    996    0    0    0
H 927.15355666 -82.75904431 80.68638502     6     1001    0    0    0 
C 927.27606603 -81.92227516 82.55903246     1     1000    1002    1003    1004
H 926.05233113 -82.79869719 83.96862514     6     1001    0    0    0
H 929.03378514 -82.70062829 83.24413959     6     1001    0    0    0
C 927.43206331 -78.85575862 82.60662525     2     1001    1005    1006    1007
H 929.11505568 -78.34851548 81.46251680     6     1004    0    0    0
H 925.86947126 -77.89418679 81.85526124     6     1004    0    0    0
C 928.07484290 -77.95987683 85.36092920     2     1004    1008   1009   1010
H 926.52962456 -78.15834437 86.71409471     6     1007    0    0    0
H 929.41670780 -79.24399092 85.99901661     6     1007    0    0    0
C 928.92364226 -75.27403870 85.50890710     2     1007   1011   1012   1013
H 930.22363216 -74.74271184 84.14843124     6    1010    0    0    0
H 927.23586415 -74.13973768 85.10547844     6    1010    0    0    0
C 929.98383085 -74.56811423 88.16379240     2    1010   1014   1015   1016
H 928.92653565 -75.25659099 89.75200289     6    1013    0    0    0
H 931.60088759 -75.66144043 88.29963855     6    1013    0    0    0
C 930.76100590 -71.80708312 88.44482455     2    1013   1017   1018   1019
H 931.47242748 -71.22516055 86.51717844     6    1016    0    0    0
H 928.97700460 -70.90109679 88.72344312     6    1016    0    0    0
C 932.75375235 -71.49536126 90.51528941     2    1016   1020   1021   1022
H 931.98919834 -72.71456842 92.11903869     6    1019    0    0    0
H 934.55375932 -72.29570124 90.15092517     6    1019    0    0    0
C 932.76873048 -69.01368352 91.92094270     2    1019   1023   1024   1025
H 930.81583106 -68.77952342 92.72558608     6    1022    0    0    0
H 934.26172826 -68.81443981 93.39249470     6    1022    0    0    0
C 933.39159437 -66.78511879 90.27483763     2    1022   1026   1027   1028
H 935.18655590 -67.26024433 89.35229346     6    1025    0    0    0
H 932.10623028 -66.58512737 88.65685950     6    1025    0    0    0
C 933.64863188 -64.32268366 91.86238677     2    1025   1029   1030   1031
H 931.63988631 -63.76707634 92.37602823     6    1028    0    0    0
H 934.70802881 -64.72952195 93.62722196     6    1028    0    0    0
C 934.77273873 -62.21826324 90.19493039     2    1028   1032   1033   1034
H 936.60014759 -62.95976803 89.44960464     6    1031    0    0    0
H 933.57733874 -61.87687189 88.48162396     6    1031    0    0    0
C 935.42470289 -59.63103942 91.58849056     1    1031   1035   1036   1037
H 935.64775934 -57.96623914 90.32806760     6    1034    0    0    0
H 936.97269999 -59.76442929 92.88251141     6    1034    0    0    0
H 933.89828411 -59.14125977 92.69217354     6    1034    0    0    0
H 909.34689157 -61.20115964 62.97182049     6     1039    0    0    0 
C 910.20113464 -61.78871677 61.26385893     1     1038    1040    1041    1042
H 910.37380506 -60.14200314 60.16302193     6     1039    0    0    0
H 912.02398860 -62.45492058 61.39536365     6     1039    0    0    0
C 908.48233711 -63.42897935 59.64025353     2     1039    1043    1044    1045
H 908.70539654 -65.49422110 59.99368777     6     1042    0    0    0
H 906.55035080 -62.66979926 59.97205395     6     1042    0    0    0
C 909.19860045 -63.39315714 56.81253952     2     1042    1046   1047   1048
H 908.17772103 -61.79210863 56.05644797     6     1045    0    0    0
H 911.28850033 -63.34947715 56.46127455     6     1045    0    0    0
C 908.08887806 -65.64083718 55.36262746     2     1045   1049   1050   1051
H 908.82551284 -67.44072538 56.00718083     6    1048    0    0    0
H 906.08885199 -65.86985738 55.94242418     6    1048    0    0    0
C 908.42765409 -65.38430936 52.47491203     2    1048   1052   1053   1054
H 906.54673962 -64.94962683 51.77176902     6    1051    0    0    0
H 909.72848420 -63.70798889 52.23276775     6    1051    0    0    0
C 909.47773128 -67.65507734 51.02095799     2    1051   1055   1056   1057
H 911.59779375 -67.60543349 51.29714012     6    1054    0    0    0
H 908.61280567 -69.43181294 51.83526205     6    1054    0    0    0
C 908.64861999 -67.60622876 48.19010376     2    1054   1058   1059   1060
H 906.62218033 -67.75211775 47.95110412     6    1057    0    0    0
H 909.04866411 -65.68468106 47.57808869     6    1057    0    0    0
C 910.07118078 -69.62719082 46.55537723     2    1057   1061   1062   1063
H 912.12618347 -69.33961640 47.04770969     6    1060    0    0    0
H 909.56443212 -71.57600416 47.10240160     6    1060    0    0    0
C 909.73138648 -69.20544517 43.64611873     2    1060   1064   1065   1066
H 907.81848598 -69.20769702 43.20554508     6    1063    0    0    0
H 910.68942476 -67.48360837 43.14712975     6    1063    0    0    0
C 910.81509214 -71.46957691 42.21651322     2    1063   1067   1068   1069
H 912.55627913 -71.92580724 43.21283892     6    1066    0    0    0
H 909.67283180 -73.24830475 42.32280973     6    1066    0    0    0
C 911.61717838 -70.99289369 39.48500352     2    1066   1070   1071   1072
H 910.15243893 -70.00169924 38.50355968     6    1069    0    0    0
[...]
 1803      H     919.4364756300   -52.5290874600    44.0770055600
 1804      H     918.9200529200   -51.1865104200    46.8690821500
 1805      C     918.8512249200   -55.2355807100    47.1537047300
 1806      H     917.7879232200   -55.3725585600    48.8330323900
 1807      H     918.3667248600   -56.9168204700    46.0592993300
 1808      C     921.6399487100   -55.5424146300    47.8407614200
 1809      H     922.9740221900   -55.4011091100    46.2263140200
 1810      H     922.1741095600   -54.1397324400    49.1283168300
 1811      C     922.3047459600   -58.0897797000    49.2184842200
 1812      H     920.8319503100   -57.9680426700    50.7351509600
 1813      H     921.6472857300   -59.7034244600    47.9227996300
 1814      C     924.9919759800   -58.3307343000    50.1422985100
 1815      H     926.0021227900   -58.0059292100    48.3536083900
 1816      H     925.5656210000   -56.9172375100    51.5625321600
 1817      C     925.5281663400   -60.9082044200    51.3489748500
 1818      H     924.8227881800   -60.9039005400    53.2711393200
 1819      H     924.5287331600   -62.5232296600    50.3364904300
 1820      C     928.4015970600   -61.4335881700    51.2927224600
 1821      H     929.0115825400   -61.8922330400    49.3537415000
 1822      H     929.4872834300   -59.8312860000    51.8765455900
 1823      C     929.1554794600   -63.5446610400    53.1054209400
 1824      H     928.8782269500   -63.0194686200    55.0428836500
 1825      H     927.9421927000   -65.1495845400    52.5696965900
 1826      C     931.8594203600   -64.5539304500    52.3631878600
 1827      H     932.0735690100   -65.3749603200    50.4179063200
 1828      H     933.2341170100   -63.0285388000    52.2798680400
 1829      C     932.7720548000   -66.6785596200    54.0311914200
 1830      H     932.3035636700   -66.4007707700    55.9699527700
 1831      H     931.6636987200   -68.3825831600    53.6769666900
 1832      C     935.5272564200   -67.3965525900    53.7953525100
 1833      H     936.5618610100   -65.7597192300    54.3791995000
 1834      H     935.8437500600   -67.6599823200    51.8306698700
 1835      H     936.1721646900   -69.0643671100    54.9321893900
 1836      H     930.6969627400   -62.2249485300    62.3877840600
 1837      C     931.5724604400   -60.4478935500    62.8686698700
 1838      H     930.1302515100   -58.9919682700    62.5411400400
 1839      H     932.0072720700   -60.3538120200    64.9087867600
 1840      C     934.0010889100   -59.9782231800    61.3777683500
 1841      H     935.1439155300   -58.4354644000    62.0821703100
 1842      H     935.2757601800   -61.4944989200    61.2903977900
 1843      C     933.1579283200   -59.0824512200    58.7267242900
 1844      H     931.4986817400   -60.1600825800    58.2420380800
 1845      H     932.4964859700   -57.1278474000    58.6629976100
 1846      C     935.1246505600   -59.7689565300    56.7795040800
 1847      H     936.9332528900   -59.7647970000    57.7340504900
 1848      H     934.9248928000   -61.6384877400    55.9932219600
 1849      C     935.3719160100   -57.7844676000    54.5870851200
 1850      H     933.8005467800   -58.0589038600    53.2127316100
 1851      H     935.2660193000   -55.9793708700    55.3412002700
 1852      C     937.8463210300   -58.0695703900    53.0730794100
 1853      H     939.3770372200   -58.4354280600    54.4780236300
 1854      H     937.8230962900   -59.3253577900    51.4153971500
 1855      C     938.7999941200   -55.5561990500    52.1157491300
 1856      H     937.4391980300   -54.7817759100    50.7102939400
 1857      H     938.9396905400   -54.0337886400    53.5917313900
 1858      C     941.3976726900   -55.5556986800    50.5410184400
 1859      H     942.2634448200   -53.6813893200    50.3555105900
 1860      H     942.7647647000   -56.4160881900    51.7574889000
 1861      C     941.1244321400   -56.5855639800    47.7167452200
 1862      H     939.2921571600   -57.5997354900    47.4187157200
 1863      H     941.1614148500   -54.8864850500    46.3561558700
 1864      C     943.2494537700   -58.4759052100    46.9580665300
 1865      H     944.9864425700   -58.1875029000    48.1447648500
 1866      H     942.7826933100   -60.3983171300    47.2991977200
 1867      C     943.8855866600   -58.4563132900    44.1585082700
 1868      H     942.1010735100   -59.1927743300    43.2139601400
 1869      H     944.2371836100   -56.5631250800    43.3323992500
 1870      C     946.1112255500   -60.3219631600    43.7097359400
 1871      H     946.2127355700   -60.5960323500    41.6864398700
 1872      H     945.9240402200   -62.0895747700    44.6782547500
 1873      H     947.8594697800   -59.5518729100    44.4317143700
 1874      H     927.0334387300   -37.2511799300    67.4231061300
 1875      C     925.9501548800   -38.8766080400    66.8214727200
 1876      H     925.6572415800   -38.9120439500    64.7195792600
 1877      H     927.3311537800   -40.1878466100    67.6182614300
 1878      C     923.6297986000   -38.9010040700    68.5501383400
 1879      H     924.1636021000   -38.1438233600    70.3650746700
 1880      H     922.0439628600   -37.7498536000    67.9670000500
 1881      C     922.4995215800   -41.5798778100    69.1367389300
 1882      H     921.2097661300   -42.0343718200    67.5127018100
 1883      H     924.0585816800   -42.9021581300    69.0999426500
 1884      C     920.9575753400   -41.8763520000    71.6109192100
 1885      H     922.1714317500   -41.4428100800    73.1500253600
 1886      H     919.6102599900   -40.2919530100    71.9633009600
 1887      C     919.6249372700   -44.4254792500    72.1685842800
 1888      H     918.6548560500   -44.3299940800    74.0063075000
 1889      H     918.1024738700   -44.6492320700    70.8223629900
 1890      C     921.5365508500   -46.7371049300    72.2534568400
 1891      H     922.3538250200   -46.7246847800    70.4200572000
 1892      H     923.0217359400   -46.5999654100    73.6773852000
 1893      C     919.9762825000   -49.0554840100    72.7334824200
 1894      H     918.8721332600   -48.6922161300    74.4453775000
 1895      H     918.6892841600   -49.2501461000    71.2238140500
 1896      C     921.3599261100   -51.6463614100    72.8833427000
 1897      H     922.1968539400   -52.2191573400    71.0698010700
 1898      H     922.9600372300   -51.5288715000    74.1650087500
 1899      C     919.5435551400   -53.7741164200    73.5189968200
 1900      H     918.4561994000   -53.2671100800    75.1274571100
 1901      H     918.1391114700   -53.9876235200    72.0345526900
 1902      C     920.7949784700   -56.2574076300    74.1139023100
 1903      H     922.4801455600   -55.8071675300    75.2444089400
 1904      H     919.6587683400   -57.3694555600    75.4300379200
 1905      C     921.6848618800   -57.7542197900    71.8507395400
 1906      H     920.0453036800   -58.3723436300    70.7204481100
 1907      H     922.8742847900   -56.6337994700    70.4860391400
 1908      C     923.2410825300   -59.9769161800    72.7443901100
 1909      H     921.8538402400   -61.1114808400    73.9264437500
 1910      H     924.8418341300   -59.3528222800    73.8474785900
 1911      H     923.9892648200   -61.2047468800    71.2963997000
 ----------------------------------------------------------------
 Nuclear Repulsion Energy =           0.00000000 hartrees
 There are     2498 alpha and     2498 beta electrons

 Total QAlloc Memory Limit   2000 MB
 Mega-Array Size       204 MB
 MEM_STATIC part       192 MB
   **** Step 1: MM calculation on the entire system **** 
 OPLSAA force field loaded.
Reading user-defined FF parameters...
 Reading user defined atom types.
 Found 3 user defined AtomTypes
finished.
Determining angles, torsions, etc. from user defined input
Determining VDW/Coulomb pairs... (useList = 0)

 Time req'd to get MM system information: 0.2 s (CPU) 0.3 s (wall)

 ------ MM Energies ------
   Ebond:           578.923306002709
   Eangle:          860.611622825732
   EUreyBrad:         0.000000000000
   Eimptors:          0.000000000000
   Etorsion:        252.715351865979
   Evdw:        1186638.839266049908
   Ecoulomb:        182.648776774700
   Etot:        1188513.738323519006 Kcal/mol (   1894.017211293245 hartree)
 -------------------------
 Time req'd to calc MM energy: 0.1 s (CPU) 0.1 s (wall)
 OPLSAA force field loaded.
Reading user-defined FF parameters...
 Reading user defined atom types.
 Found 3 user defined AtomTypes
finished.
 Time req'd to get MM system information: 0.0 s (CPU) 0.0 s (wall)
 Time req'd to calc MM gradient: 0.2 s (CPU) 0.2 s (wall)
   **** Step 2: MM calculation on the model system **** 
 Reading user defined atom types.
 Found 3 user defined AtomTypes
 ----------------------------------------------------------------
             Standard Nuclear Orientation (Bohr)
    I     Atom           X                Y                Z
 ----------------------------------------------------------------
    1      Fe    928.9785913900   -53.6329949100    68.5642696400
    2      C     928.0820903700   -53.3999426000    71.7886264100
    3      C     929.3937712000   -53.9830534800    65.1254395500
    4      C     932.4470001700   -53.5153539800    69.2863070600
    5      C     928.3052346500   -57.0376478800    68.3647787900
    6      C     926.7764091500   -51.1814451600    68.4232514100
    7      O     927.4981910200   -53.1244630400    73.8974717400
    8      O     929.7243520400   -54.0184336100    62.9584812400
    9      O     934.4893697400   -53.9504793900    69.9853339200
   10      O     927.9428101800   -59.1872759800    68.5004160600
   11      O     925.3501572200   -49.5850749500    68.0890985200
 ----------------------------------------------------------------
 Nuclear Repulsion Energy =         800.67136973 hartrees
 There are       48 alpha and       48 beta electrons
 OPLSAA force field loaded.
Reading user-defined FF parameters...
 Reading user defined atom types.
 Found 3 user defined AtomTypes
finished.
Determining VDW/Coulomb pairs... (useList = 0)

 No MM bonds in system. Return all possible pairs.
 Time req'd to get MM system information: 0.0 s (CPU) 0.0 s (wall)

 ------ MM Energies ------
   Ebond:             0.000000000000
   Eangle:            0.000000000000
   EUreyBrad:         0.000000000000
   Eimptors:          0.000000000000
   Etorsion:          0.000000000000
   Evdw:        1187091.498915494885
   Ecoulomb:         -6.542174131400
   Etot:        1187084.956741363509 Kcal/mol (   1891.740302898733 hartree)
 -------------------------
 Eold: 1894.0172113 mm_energy: 1891.7403029 Enew:    2.2769084
 Time req'd to calc MM energy: 0.0 s (CPU) 0.0 s (wall)
 OPLSAA force field loaded.
Reading user-defined FF parameters...
 Reading user defined atom types.
 Found 3 user defined AtomTypes
finished.
Determining VDW/Coulomb pairs... (useList = 0)

 No MM bonds in system. Return all possible pairs.
 Time req'd to get MM system information: 0.0 s (CPU) 0.0 s (wall)
 Number of fixed atoms: 0
 Time req'd to calc MM gradient: 0.0 s (CPU) 0.0 s (wall)
   **** Step 3: QM calculation on the model system **** 
 Requested basis set is def2-mSVP
 There are 80 shells and 174 basis functions

                       Distance Matrix (Bohrs)
             Fe(  1)   C (  2)   C (  3)   C (  4)   C (  5)   C (  6)
   C (  2)  3.354773
   C (  3)  3.481446  6.816053
   C (  4)  3.544720  5.032629  5.182062
   C (  5)  3.476330  5.000543  4.583533  5.514525
   C (  6)  3.298422  4.237013  5.057189  6.192544  6.052754
   O (  7)  5.558168  2.205461  9.015484  6.775422  6.824590  5.853493
   O (  8)  5.668297  9.002834  2.192315  6.907046  6.352763  6.826609
   O (  9)  5.699903  6.678936  7.041645  2.202100  7.099319  8.342506
   O ( 10)  5.650395  6.657699  6.370219  7.285331  2.184182  8.090721
   O ( 11)  5.456829  5.975214  6.669056  8.200340  8.021803  2.166622
             O (  7)   O (  8)   O (  9)   O ( 10)
   O (  8) 11.198950
   O (  9)  8.053801  8.490387
   O ( 10)  8.129182  7.784848  8.513898
   O ( 11)  7.132918  8.069169 10.304255  9.954562

 A cutoff of  1.0D-11 yielded   2490 shell pairs
 There are     12774 function pairs (     14600 Cartesian)
 Smallest overlap matrix eigenvalue = 2.72E-03
 Guess MOs from SCF MO coefficient file
 Reading MOs from coefficient file
 Reading MOs from coefficient file
 A restricted Kohn-Sham SCF calculation will be
 performed using Pulay DIIS extrapolation
 Exchange:  B88      Correlation:  P86
 Using SG-1 standard quadrature grid
 SCF converges when DIIS error is below 1.0E-08
 Using Q-Chem read-in guess as SCF_GUESS READ specified.

 using 2 threads for integral computing
 -------------------------------------------------------
 OpenMP Integral computing Module                
 Release: version 1.0, May 2013, Q-Chem Inc. Pittsburgh 
 -------------------------------------------------------
 ---------------------------------------
  Cycle       Energy         DIIS Error
 ---------------------------------------
    1   -1830.5136968420      8.84E-09
    2   -1830.5136968423      1.05E-07
    3   -1830.5136968420      6.14E-09 Convergence criterion met
 ---------------------------------------
 SCF time:  CPU 4.31 s  wall 2.33 s
 E(QM + QM/MM):    -1830.5136968420 E(MM):    2.2769084 E(Tot): -1828.236788447477 
 SCF   energy in the final basis set = -1828.23678845
 Total energy in the final basis set = -1828.23678845

 --------------------------------------------------------------

                    Orbital Energies (a.u.)
 --------------------------------------------------------------

 Alpha MOs
 -- Occupied --
******** -29.6307 -25.5905 -25.5790 -25.5729 -18.8891 -18.8825 -18.8816
-18.8782 -18.8685 -10.0552 -10.0532 -10.0480 -10.0421 -10.0338  -3.3161
 -2.1524  -2.1309  -2.1153  -1.0630  -1.0591  -1.0548  -1.0523  -1.0488
 -0.5773  -0.5334  -0.5174  -0.5159  -0.5093  -0.4585  -0.4471  -0.4434
 -0.4340  -0.4315  -0.4296  -0.4288  -0.4195  -0.4177  -0.4112  -0.4103
 -0.4037  -0.4010  -0.3935  -0.3723  -0.2764  -0.2641  -0.2303  -0.2198
 -- Virtual --
 -0.0953  -0.0930  -0.0876  -0.0820  -0.0764  -0.0643  -0.0608  -0.0545
 -0.0389  -0.0359  -0.0110   0.0133   0.1869   0.2134   0.2226   0.2477
  0.2933   0.3139   0.3789   0.3885   0.3980   0.4155   0.4293   0.4355
  0.4596   0.4742   0.4978   0.5086   0.5298   0.5563   0.5778   0.5992
  0.6062   0.6245   0.6427   0.6596   0.7434   0.7521   0.7596   0.7680
  0.7741   0.8341   0.8385   0.8763   0.8857   0.9001   0.9519   0.9568
  0.9618   0.9711   0.9811   0.9985   1.0256   1.0280   1.0347   1.0870
  1.1949   1.2161   1.2805   1.2972   1.3980   1.4012   1.4086   1.4155
  1.4173   1.4270   1.4323   1.4362   1.4460   1.4601   1.4633   1.4727
  1.4872   1.5180   1.5470   1.6041   1.6292   1.6590   1.6635   1.6768
  1.6959   1.8299   1.8376   1.8423   1.8460   1.8479   1.8520   1.8587
  1.8623   1.8627   1.8655   1.8774   1.8855   1.9106   1.9468   1.9603
  2.3744   2.4098   2.4348   2.4519   2.4616   2.4689   2.4806   2.4954
  2.5325   2.5478   2.6142   2.6319   2.6736   2.6755   2.6844   2.8143
  2.8212   2.8716   2.9216   2.9902  13.2426  13.3089  13.3175  13.3645
 13.4387  24.9175  24.9390  24.9492  24.9685  25.0330
 --------------------------------------------------------------

          Ground-State Mulliken Net Atomic Charges

     Atom                 Charge (a.u.)
  ----------------------------------------
      1 Fe                   -0.451293
      2 C                     0.172544
      3 C                     0.203004
      4 C                     0.236449
      5 C                     0.226336
      6 C                     0.154076
      7 O                    -0.118104
      8 O                    -0.101392
      9 O                    -0.111535
     10 O                    -0.101078
     11 O                    -0.109006
  ----------------------------------------
  Sum of atomic charges =     0.000000

 -----------------------------------------------------------------
                    Cartesian Multipole Moments
 -----------------------------------------------------------------
    Charge (ESU x 10^10)
                 0.0000
    Dipole Moment (Debye)
         X       0.0464058786      Y      -0.3307611587      Z      -0.2429880657
       Tot       0.4130371046
    Quadrupole Moments (Debye-Ang)
        XX     -23.9560     XY    -162.7167     YY     -50.8368
        XZ    -118.0557     YZ      -4.5897     ZZ     -86.8389
    Octopole Moments (Debye-Ang^2)
       XXX  -68982.5079    XXY  -78068.5349    XYY  -25016.1131
       YYY    5154.0282    XXZ  -59879.1295    XYZ   -2252.4779
       YYZ   -2071.1505    XZZ  -42649.3645    YZZ    2072.6124
       ZZZ   -8499.6462
    Hexadecapole Moments (Debye-Ang^3)
      XXXX ************   XXXY ************   XXYY ************
      XYYY 2535108.8648   YYYY -309841.2040   XXXZ ************
      XXYZ ************   XYYZ ************   YYYZ  193926.7025
      XXZZ ************   XYZZ 1019337.6708   YYZZ -139689.3136
      XZZZ ************   YZZZ  228098.3434   ZZZZ -594930.4104
 -----------------------------------------------------------------
 Calculating MO derivatives via CPSCF
 Full subspace dimension requested for CIS/TDDFT
 MAX_CIS_SUBSPACE fits in available memory
    1     0    36    0.0409875  
    2     0    36    0.0062911  
    3     0    36    0.0005913  
    4     0    36    0.0000402  
    5    33     3    0.0000011  
    6    36     0    0.0000000  Converged
 Time for AOints: 6.5 s (CPU) 3.3 s (wall)
 ------------------------------------------------------------------------------
                     AOints        : Timing summary (seconds)
 ------------------------------------------------------------------------------
     job step          cpu (% of tot)      sys (% of tot)     wall (% of tot)
 ------------------------------------------------------------------------------
  AOints            0.6525E+01 ( 3.6)   0.1100E-04 ( 6.7)   0.3328E+01 ( 3.6)
 ------------------------------------------------------------------------------
   Grand Totals     0.1817E+03          0.1640E-03          0.9162E+02
 ------------------------------------------------------------------------------
 Polarizability Matrix (a.u.)
            1           2           3
    1 -87.4251872  10.6176217   2.2999881
    2  10.6176218 -87.0135617  -3.5217087
    3   2.2999881  -3.5217087 -99.7425239
 Derivative of Dipole Moment Matrix (a.u.)
            1           2           3
    1  -1.8186704   0.0904837  -0.0603473
    2   0.0579919  -1.7854050   0.1091702
    3   0.0407734   0.0356926  -1.9215993
    4   0.5610678  -0.0186229  -0.5060566
    5   0.0030530   0.4328667   0.2004486
    6  -0.4548529   0.1819630   2.0991718
    7   0.4640212   0.0155277  -0.2045916
    8   0.0217807   0.3835816   0.1073878
    9  -0.2007648  -0.0382680   2.2712087
   10   2.1722180   0.0663955   0.4049729
   11  -0.3136466   0.3893061  -0.0843697
   12   0.6025401   0.0409339   0.5198926
   13   0.4371302   0.3420579   0.0065429
   14   0.3792161   2.2271585   0.0083601
   15  -0.0554464  -0.1135296   0.3404750
   16   1.3542671  -1.0769191   0.2034591
   17  -0.9833771   1.5586002  -0.2113071
   18   0.1641828  -0.1614876   0.4064525
   19  -0.2758757   0.0357240   0.4033346
   20   0.0395323  -0.1753502  -0.1884792
   21   0.3837299  -0.1563187  -1.4895091
   22  -0.1797422   0.0041831   0.2045967
   23   0.0003013  -0.1439640  -0.0764772
   24   0.1719614  -0.0572364  -1.6544693
   25  -1.6002469  -0.0267925  -0.3338652
   26   0.3402913  -0.1598879   0.0815451
   27  -0.5246671  -0.0148214  -0.2749678
   28  -0.2140418  -0.2640329  -0.0146563
   29  -0.3183346  -1.6538077  -0.0515509
   30   0.0300205   0.1141809  -0.1294797
   31  -0.9001274   0.8319955  -0.1033891
   32   0.7731918  -1.0730983   0.1052722
   33  -0.1574768   0.1688913  -0.1671753
 -----------------------------------------
 Net:   0.00000  -0.00000   0.00000
 -----------------------------------------

 Calculating analytic Hessian of the SCF energy
