                  Welcome to Q-Chem
     A Quantum Leap Into The Future Of Chemistry


 Q-Chem 5.4 (devel), Q-Chem, Inc., Pleasanton, CA (2021)

 E. Epifanovsky,  A. T. B. Gilbert,  Xintian Feng,  Joonho Lee,  Yuezhi Mao,  
 N. Mardirossian,  P. Pokhilko,  A. White,  M. Wormit,  M. P. Coons,  
 A. L. Dempwolff,  Zhengting Gan,  D. Hait,  P. R. Horn,  L. D. Jacobson,  
 I. Kaliman,  J. Kussmann,  A. W. Lange,  Ka Un Lao,  D. S. Levine,  Jie Liu,  
 S. C. McKenzie,  A. F. Morrison,  K. Nanda,  F. Plasser,  D. R. Rehn,  
 M. L. Vidal,  Zhi-Qiang You,  Ying Zhu,  B. Alam,  B. Albrecht,  
 A. Aldossary,  E. Alguire,  J. H. Andersen,  D. Barton,  K. Begam,  A. Behn,  
 Y. A. Bernard,  E. J. Berquist,  H. Burton,  A. Carreras,  K. Carter-Fenk,  
 R. Chakraborty,  A. D. Chien,  K. D. Closser,  V. Cofer-Shabica,  
 S. Dasgupta,  Jia Deng,  M. de Wergifosse,  M. Diedenhofen,  Hainam Do,  
 S. Ehlert,  Po-Tung Fang,  S. Fatehi,  Qingguo Feng,  T. Friedhoff,  
 J. Gayvert,  Qinghui Ge,  G. Gidofalvi,  M. Goldey,  J. Gomes,  
 C. Gonzalez-Espinoza,  S. Gulania,  A. Gunina,  M. W. D. Hanson-Heine,  
 P. H. P. Harbach,  A. W. Hauser,  M. F. Herbst,  M. Hernandez Vera,  
 M. Hodecker,  Z. C. Holden,  S. Houck,  Xunkun Huang,  Kerwin Hui,  
 B. C. Huynh,  M. Ivanov,  Hyunjun Ji,  Hanjie Jiang,  B. Kaduk,  S. Kaehler,  
 K. Khistyaev,  Jaehoon Kim,  P. Klunzinger,  Z. Koczor-Benda,  
 Joong Hoon Koh,  D. Kosenkov,  L. Koulias,  T. Kowalczyk,  C. M. Krauter,  
 K. Kue,  A. Kunitsa,  T. Kus,  A. Landau,  K. V. Lawler,  D. Lefrancois,  
 S. Lehtola,  Rain Li,  Yi-Pei Li,  Jiashu Liang,  M. Liebenthal,  
 Hung-Hsuan Lin,  You-Sheng Lin,  Fenglai Liu,  Kuan-Yu Liu,  
 M. Loipersberger,  A. Luenser,  A. Manjanath,  P. Manohar,  E. Mansoor,  
 S. F. Manzer,  Shan-Ping Mao,  A. V. Marenich,  T. Markovich,  S. Mason,  
 S. A. Maurer,  P. F. McLaughlin,  M. F. S. J. Menger,  J.-M. Mewes,  
 S. A. Mewes,  P. Morgante,  J. W. Mullinax,  K. J. Oosterbaan,  G. Paran,  
 Alexander C. Paul,  Suranjan K. Paul,  F. Pavosevic,  Zheng Pei,  S. Prager,  
 E. I. Proynov,  E. Ramos,  B. Rana,  A. E. Rask,  A. Rettig,  R. M. Richard,  
 F. Rob,  E. Rossomme,  T. Scheele,  M. Scheurer,  M. Schneider,  
 N. Sergueev,  S. M. Sharada,  W. Skomorowski,  D. W. Small,  C. J. Stein,  
 Yu-Chuan Su,  E. J. Sundstrom,  Zhen Tao,  J. Thirman,  T. Tsuchimochi,  
 N. M. Tubman,  S. P. Veccham,  O. Vydrov,  J. Wenzel,  J. Witte,  A. Yamada,  
 Kun Yao,  S. Yeganeh,  S. R. Yost,  A. Zech,  Igor Ying Zhang,  Xing Zhang,  
 Yu Zhang,  D. Zuev,  A. Aspuru-Guzik,  A. T. Bell,  N. A. Besley,  
 K. B. Bravaya,  B. R. Brooks,  D. Casanova,  Jeng-Da Chai,  S. Coriani,  
 C. J. Cramer,  A. E. DePrince, III,  R. A. DiStasio Jr.,  A. Dreuw,  
 B. D. Dunietz,  T. R. Furlani,  W. A. Goddard III,  S. Grimme,  
 S. Hammes-Schiffer,  T. Head-Gordon,  W. J. Hehre,  Chao-Ping Hsu,  
 T.-C. Jagau,  Yousung Jung,  A. Klamt,  Jing Kong,  D. S. Lambrecht,  
 WanZhen Liang,  N. J. Mayhall,  C. W. McCurdy,  J. B. Neaton,  
 C. Ochsenfeld,  J. A. Parkhill,  R. Peverati,  V. A. Rassolov,  Yihan Shao,  
 L. V. Slipchenko,  T. Stauch,  R. P. Steele,  J. E. Subotnik,  
 A. J. W. Thom,  A. Tkatchenko,  D. G. Truhlar,  T. Van Voorhis,  
 T. A. Wesolowski,  K. B. Whaley,  H. L. Woodcock III,  P. M. Zimmerman,  
 S. Faraji,  P. M. W. Gill,  M. Head-Gordon,  J. M. Herbert,  A. I. Krylov

 Additional authors for Version 5.4.1: 
 S. Kotaru,  Shaozhi Li,  Xiangyuan Li,  F. Matz,  A. Molle,  Haisheng Ren,  
 Yingli Su,  Hung-Yi Tsai,  C. Utku,  Fang Wang

 Contributors to earlier versions of Q-Chem not listed above: 
 R. D. Adamson,  B. Austin,  R. Baer,  J. Baker,  G. J. O. Beran,  
 K. Brandhorst,  S. T. Brown,  E. F. C. Byrd,  A. K. Chakraborty,  
 G. K. L. Chan,  Chun-Min Chang,  Yunqing Chen,  C.-L. Cheng,  
 Siu Hung Chien,  D. M. Chipman,  D. L. Crittenden,  H. Dachsel,  
 R. J. Doerksen,  A. D. Dutoi,  R. G. Edgar,  J. Fosso-Tande,  
 L. Fusti-Molnar,  D. Ghosh,  A. Ghysels,  A. Golubeva-Zadorozhnaya,  
 J. Gonthier,  M. S. Gordon,  S. R. Gwaltney,  G. Hawkins,  J. E. Herr,  
 A. Heyden,  S. Hirata,  E. G. Hohenstein,  G. Kedziora,  F. J. Keil,  
 C. Kelley,  Jihan Kim,  R. A. King,  R. Z. Khaliullin,  P. P. Korambath,  
 W. Kurlancheek,  A. Laurent,  A. M. Lee,  M. S. Lee,  S. V. Levchenko,  
 Ching Yeh Lin,  D. Liotard,  E. Livshits,  R. C. Lochan,  I. Lotan,  
 L. A. Martinez-Martinez,  P. E. Maslen,  N. Nair,  D. P. O'Neill,  
 D. Neuhauser,  E. Neuscamman,  C. M. Oana,  R. Olivares-Amaya,  R. Olson,  
 T. M. Perrine,  B. Peters,  P. A. Pieniazek,  A. Prociuk,  Y. M. Rhee,  
 J. Ritchie,  M. A. Rohrdanz,  E. Rosta,  N. J. Russ,  H. F. Schaefer III,  
 M. W. Schmidt,  N. E. Schultz,  S. Sharma,  N. Shenvi,  C. D. Sherrill,  
 A. C. Simmonett,  A. Sodt,  T. Stein,  D. Stuck,  K. S. Thanthiriwatte,  
 V. Vanovschi,  L. Vogt,  Tao Wang,  A. Warshel,  M. A. Watson,  
 C. F. Williams,  Q. Wu,  X. Xu,  Jun Yang,  W. Zhang,  Yan Zhao

 Please cite Q-Chem as follows:
 Y. Shao et al., Mol. Phys. 113, 184-215 (2015)
 DOI: 10.1080/00268976.2014.952696

 Q-Chem 5.4.1 for Intel X86 EM64T Linux

 Parts of Q-Chem use Armadillo 9.900.5 (Nocturnal Misbehaviour).
 http://arma.sourceforge.net/

 Q-Chem begins on Fri Jul  1 20:00:03 2022  

 Host: p09r14n09.grace.hpc.yale.internal
0

     Scratch files written to /home/tl686/scratch60/qchem_dev/scratch/qchem9100//
 Processing $rem in /home/tl686/qchem_dev/qchem/config/preferences:
 Processing $rem in /home/tl686/.qchemrc:
Applying user defined connections for MM calculations

 Checking the input file for inconsistencies... 	...done.

--------------------------------------------------------------
User input:
--------------------------------------------------------------
$molecule
0   1
 Fe 362.07428018 11.69578549 -40.23059233    -1  0   0   0   0
C 359.97477418 13.13005160 -42.44661633    -2  0   0   0   0 
C 365.20149499 10.96127984 -41.52391952    -2  0   0   0   0
C 363.39885139 14.82663313 -39.42761212    -2  0   0   0   0
C 361.37556621 11.00571756 -36.99987122    -2  0   0   0   0
C 360.55461783 8.95905237 -41.14983394    -2  0   0   0   0
O 358.54486375 14.05559717 -43.80130782    -3  0   0   0   0
O 367.15481100 10.43832766 -42.49342827    -3  0   0   0   0 
O 364.27007861 16.81368508 -39.00533156    -3  0   0   0   0
O 360.98495822 10.26811755 -34.95628323    -3  0   0   0   0 
O 359.39838338 7.35509686 -42.07601402    -3  0   0   0   0
H 353.18204355 34.74134583 -44.31424331      6     13    0    0    0 
C 351.91304991 36.17460036 -43.22832052     1     12    14    15    16
H 353.21378317 37.74744321 -42.92732389     6     13    0    0    0
H 350.59439666 36.94726984 -44.60490988     6     13    0    0    0
C 350.57762976 35.00268229 -40.85847573     2     13    17    18    19
H 352.21560323 34.73874292 -39.55520768     6     16    0    0    0
H 349.26720789 36.31834683 -39.99774255     6     16    0    0    0
C 349.31371483 32.34157782 -41.29999488     2     16    20   21   22
H 347.82696822 32.77610662 -42.72034317     6     19    0    0    0
H 350.66501359 30.99284743 -42.26559475     6     19    0    0    0
C 348.47962460 31.14886462 -38.76282105     2     19   23   24   25
H 350.20856179 31.13787080 -37.57795204     6    22    0    0    0
H 346.99930796 32.32060233 -37.86707201     6    22    0    0    0
C 347.38710454 28.42247626 -38.93595896     2    22   26   27   28
H 345.72984837 28.43059378 -40.08162042     6    25    0    0    0
H 348.89016264 27.47603207 -39.98718329     6    25    0    0    0
C 347.01690976 27.06042987 -36.42666863     2    25   29   30   31
H 348.58588641 27.29321181 -35.17959847     6    28    0    0    0
H 345.45602410 27.92880524 -35.47054980     6    28    0    0    0
C 346.32666764 24.19772384 -36.55382834     2    28   32   33   34
H 344.66893449 24.16315601 -37.76333543     6    31    0    0    0
H 347.79848585 23.25935863 -37.60263476     6    31    0    0    0
C 345.61016720 23.23800467 -34.03702781     2    31   35   36   37
H 345.90533462 24.59083028 -32.64971024     6    34    0    0    0
H 343.53264688 23.23195919 -34.09346757     6    34    0    0    0
C 346.46288567 20.74528470 -33.03877875     2    34   38   39   40
H 346.39459275 19.23654835 -34.35547439     6    37    0    0    0
H 348.43395107 20.95995805 -32.41935738     6    37    0    0    0
C 344.65384107 19.72354040 -30.89882381     2    37   41   42   43
H 344.25345927 21.28783499 -29.67690978     6    40    0    0    0
H 342.99838147 18.78800532 -31.70942581     6    40    0    0    0
C 346.05076583 17.60173089 -29.59851478     2    40   44   45   46
H 346.52602221 16.24362090 -31.18926719     6    43    0    0    0
H 347.95165421 18.21810509 -29.12145404     6    43    0    0    0
C 344.56515118 16.70915141 -27.32224646     1    43   47   48   49
H 344.59116218 18.16569202 -26.04729271     6    46    0    0    0
H 345.46631927 15.14986901 -26.32963677     6    46    0    0    0
H 342.64444174 16.02661328 -27.80619913     6    46    0    0    0
H 351.79809604 7.53884984 -39.29727285     6     51    0    0    0 
C 353.68968352 8.20926009 -39.69088882     1     50    52    53    54
H 355.06446867 7.05649885 -38.73603230     6     51    0    0    0
H 354.05685527 7.88975347 -41.67306512     6     51    0    0    0
C 354.32754619 11.00439000 -38.95172477     2     51    55    56    57
H 356.09433529 11.74989826 -39.57225150     6     54    0    0    0
H 352.97049628 12.14020052 -39.91705301     6     54    0    0    0
C 354.09630038 11.42821536 -36.03912719     2     54    58   59   60
H 354.66215644 9.72883695 -35.02906708     6     57    0    0    0
H 355.48679735 12.81800059 -35.45181086     6     57    0    0    0
C 351.41672948 12.17280548 -35.10890696     2     57   61   62   63
H 350.95854127 14.01508208 -35.87106922     6    60    0    0    0
H 350.30397180 10.75691507 -35.94717984     6    60    0    0    0
C 350.89169036 12.08227687 -32.14722750     2    60   64   65   66
H 351.95594885 10.58785931 -31.19952363     6    63    0    0    0
H 350.81948359 13.73109196 -31.15015274     6    63    0    0    0
C 348.12196857 11.17504327 -31.68492480     2    63   67   68   69
H 347.60576112 11.65298493 -29.72890060     6    66    0    0    0
H 346.87540458 12.22865889 -32.83420989     6    66    0    0    0
C 347.58618826 8.31022657 -31.88905253     2    66   70   71   72
H 348.14100322 7.53258466 -33.60822709     6    69    0    0    0
H 348.81027738 7.53084615 -30.40842012     6    69    0    0    0
C 344.77858774 7.61635781 -31.43570682     2    69   73   74   75
H 343.92164682 8.29492031 -29.80138082     6    72    0    0    0
H 343.63814718 8.59890399 -32.84934249     6    72    0    0    0
C 344.04640225 4.91132908 -31.97163720     2    72   76   77   78
H 345.10900518 3.91172744 -33.44633302     6    75    0    0    0
H 344.40668573 3.89954387 -30.25452631     6    75    0    0    0
C 341.25692369 4.27274426 -32.62097129     2    75   79   80   81
H 339.92512206 5.03354283 -31.12878548     6    78    0    0    0
H 340.65541560 5.35322566 -34.21347492     6    78    0    0    0
C 340.94511724 1.31427645 -32.91579313     2    78   82   83   84
H 342.66727472 0.37485355 -33.51438925     6    81    0    0    0
H 340.76361306 0.49009560 -31.00856319     6    81    0    0    0
C 338.74114997 0.51811887 -34.72156290     1    81   85   86   87
H 338.60149681 -1.37977179 -34.66637822     6    84    0    0    0
H 339.24586888 0.85448227 -36.64418444     6    84    0    0    0
H 337.00910855 1.44620094 -34.11830176     6    84    0    0    0
H 345.63778413 41.67491720 -23.75716359     6     89    0    0    0 
C 343.98804271 40.78887197 -22.81387599     1     88    90    91    92
H 344.76138622 40.32941392 -20.92987079     6     89    0    0    0
H 342.67857555 42.33929579 -22.47833030     6     89    0    0    0
C 342.79710460 38.54690755 -23.93438793     2     89    93    94    95
H 342.35275464 38.94694760 -25.92689099     6     92    0    0    0
H 344.27843133 37.02241148 -24.14120901     6     92    0    0    0
C 340.43811937 37.61645551 -22.56204530     2     92    96   97   98
H 341.00140967 37.41180754 -20.51220788     6     95    0    0    0
H 338.97230079 39.10022809 -22.55437178     6     95    0    0    0
C 339.50531027 35.20100715 -24.02413103     2     95   99   100   101
H 339.00800188 35.87443538 -25.92100249     6    98    0    0    0
H 340.94561262 33.70239424 -24.18356281     6    98    0    0    0
C 337.21412351 34.19318787 -22.86989815     2    98   102   103   104
H 337.42021894 33.90238117 -20.75803467     6    101    0    0    0
H 335.61029199 35.39635695 -22.95100946     6    101    0    0    0
C 336.03787449 31.77818101 -24.05875347     2    101   105   106   107
H 335.99628104 32.02939165 -26.04676628     6    104    0    0    0
H 337.48494091 30.29476149 -24.11336348     6    104    0    0    0
C 333.50330466 30.85593685 -22.99527617     2    104   108   109   110
H 333.66309596 30.04000301 -21.12299271     6    107    0    0    0
H 332.13026878 32.32069642 -22.56498119     6    107    0    0    0
C 332.39166695 28.73533047 -24.67816340     2    107   111   112   113
H 331.18065725 29.78672270 -26.08296000     6    110    0    0    0
H 333.77926834 27.54811189 -25.47843803     6    110    0    0    0
C 330.50250917 27.24491755 -23.13054012     2    110   114   115   116
H 331.33110173 26.40154715 -21.45246279     6    113    0    0    0
H 329.16920204 28.55868584 -22.23092066     6    113    0    0    0
C 328.70406429 25.60881178 -24.82620817     2    113   117   118   119
H 327.57353864 26.99659195 -25.79223553     6    116    0    0    0
H 329.66841379 24.44860226 -26.28455774     6    116    0    0    0
C 327.03678501 23.85418902 -23.31836974     2    116   120   121   122
H 325.96792537 22.52147313 -24.49305571     6    119    0    0    0
H 328.34540857 22.69627130 -22.17747426     6    119    0    0    0
C 325.15261924 24.96133478 -21.49130596     1    119   123   124   125
H 324.90281796 23.44606848 -20.15528040     6    122    0    0    0
H 323.29490218 25.35531140 -22.23946740     6    122    0    0    0
H 325.65365029 26.56467697 -20.46653609     6    122    0    0    0
H 359.82391465 32.56659321 -16.92474558     6     127    0    0    0 
C 361.03488664 30.89954868 -17.43932634     1     126    128    129    130
H 362.41529274 30.85481698 -15.95817806     6     127    0    0    0
H 359.92405214 29.17519574 -17.53565764     6     127    0    0    0
C 362.26254018 31.44909870 -19.97535538     2     127    131    132    133
H 360.74709894 32.06897276 -21.34937930     6     130    0    0    0
H 363.23417145 33.25571697 -19.71535423     6     130    0    0    0
C 363.98378196 29.20152775 -20.82068655     2     130    134   135   136
H 365.59665742 28.88408626 -19.51086936     6     133    0    0    0
H 362.92288195 27.42006182 -20.80165783     6     133    0    0    0
C 365.39025553 29.88413737 -23.48849466     2     133   137   138   139
H 364.29797869 30.43293852 -25.09713900     6    136    0    0    0
H 366.42579266 31.60960550 -22.96804022     6    136    0    0    0
C 367.33172007 27.89789245 -24.15612117     2    136   140   141   142
H 368.49652317 27.31392620 -22.57763752     6    139    0    0    0
H 366.37183554 26.05035045 -24.80468770     6    139    0    0    0
C 369.26790480 28.90335268 -25.90961040     2    139   143   144   145
H 368.34107118 29.49165532 -27.77229056     6    142    0    0    0
H 370.27657047 30.43824925 -25.03534408     6    142    0    0    0
C 371.09687664 26.83015156 -26.51186228     2    142   146   147   148
H 372.18160967 26.19463124 -24.87161405     6    145    0    0    0
H 369.81878404 25.21805905 -27.15247878     6    145    0    0    0
C 372.62135982 27.50712289 -28.74223974     2    145   149   150   151
H 371.40975101 28.18404330 -30.21777047     6    148    0    0    0
H 373.71765526 29.22483603 -28.17106594     6    148    0    0    0
C 374.40758777 25.33776622 -29.77668394     2    148   152   153   154
H 374.86299115 24.15888309 -28.19897971     6    151    0    0    0
H 373.21552673 24.14463004 -30.99382650     6    151    0    0    0
C 376.63703316 26.47774399 -31.12587198     2    151   155   156   157
H 375.92477456 27.37135635 -32.82284890     6    154    0    0    0
H 377.40822677 28.11597126 -30.15267911     6    154    0    0    0
C 378.92453277 24.69135571 -31.39725309     2    154   158   159   160
H 380.02571133 24.78173838 -29.70541756     6    157    0    0    0
H 378.19846810 22.77862317 -31.41827062     6    157    0    0    0
C 380.64596887 25.26061838 -33.71246853     1    157   161   162   163
H 382.57348244 24.52159236 -33.18453223     6    160    0    0    0
H 380.53495919 27.26890228 -34.18654655     6    160    0    0    0
H 379.73433880 24.38872406 -35.50878746     6    160    0    0    0
H 349.29685627 18.29588324 -7.05442382     6     165    0    0    0 
C 350.36422282 20.10506346 -6.78774577     1     164    166    167    168
H 349.15990512 21.64998160 -7.13645704     6     165    0    0    0
H 350.89232758 20.24694353 -4.78744157     6     165    0    0    0
C 352.84382201 19.98258481 -8.20419759     2     165    169    170    171
H 353.88360028 18.28882088 -7.90315764     6     168    0    0    0
H 352.43262654 20.04912756 -10.33690520     6     168    0    0    0
C 354.85768182 21.99367976 -7.27403570     2     168    172   173   174
H 353.79450145 23.68860037 -6.92905881     6     171    0    0    0
H 355.81426168 21.49309987 -5.47785896     6     171    0    0    0
C 356.84523625 22.33700065 -9.45474769     2     171   175   176   177
H 357.66603442 20.41381080 -9.89484886     6    174    0    0    0
H 355.62662042 22.86591338 -11.10990151     6    174    0    0    0
C 358.58061230 24.52612285 -8.81534242     2    174   178   179   180
H 357.34890481 26.25808783 -8.85713572     6    177    0    0    0
H 359.08106686 24.67890370 -6.77738613     6    177    0    0    0
C 361.18804636 24.75253316 -10.10889302     2    177   181   182   183
H 362.16380679 22.95501702 -9.77881750     6    180    0    0    0
H 360.63856193 24.78059880 -11.99617372     6    180    0    0    0
C 362.64658861 27.19982268 -9.54539737     2    180   184   185   186
H 361.35289156 28.67258598 -9.97164623     6    183    0    0    0
H 363.13542996 27.30069256 -7.61909358     6    183    0    0    0
C 364.87358623 27.43544699 -11.35616550     2    183   187   188   189
H 366.21086869 25.93859406 -10.88275789     6    186    0    0    0
H 364.18304773 26.95447811 -13.32059152     6    186    0    0    0
C 366.31461057 29.99694627 -11.31956103     2    186   190   191   192
H 365.15738681 31.62378175 -11.71933813     6    189    0    0    0
H 367.09209773 30.25871066 -9.37119834     6    189    0    0    0
C 368.78902166 29.88679858 -13.10314225     2    189   193   194   195
H 369.91701860 28.11410060 -12.89390146     6    192    0    0    0
H 368.00029916 29.79726615 -14.97598147     6    192    0    0    0
C 370.51266466 32.18931266 -12.61593250     2    192   196   197   198
H 369.56075609 34.07894932 -12.36998317     6    195    0    0    0
H 371.52442526 31.65889907 -10.86313360     6    195    0    0    0
C 372.37237928 32.73275006 -14.66322240     1    195   199   200   201
H 371.38422092 33.93055604 -15.97659988     6    198    0    0    0
H 372.84412517 30.90297786 -15.59433110     6    198    0    0    0
H 374.17526250 33.44833258 -14.19451500     6    198    0    0    0
H 351.09959434 11.93472529 -3.88990738     6     203    0    0    0 
C 352.50235770 10.46066090 -3.91795973     1     202    204    205    206
H 354.01741740 11.03042971 -2.72428753     6     203    0    0    0
H 351.78518069 8.79281286 -2.95517628     6     203    0    0    0
C 353.26563815 9.78929564 -6.74476393     2     203    207    208    209
H 351.62591599 9.63199044 -8.12166243     6     206    0    0    0
H 354.19332402 11.48122698 -7.55485439     6     206    0    0    0
C 354.96320151 7.63100605 -6.70460472     2     206    210   211   212
H 356.01120917 7.21117908 -8.31687203     6     209    0    0    0
H 356.56693357 7.63932425 -5.22992542     6     209    0    0    0
C 353.45879261 5.14754003 -6.24412036     2     209   213   214   215
H 352.79879223 5.09469227 -4.23274567     6    212    0    0    0
H 351.80610384 5.18317369 -7.46528686     6    212    0    0    0
C 355.13070092 2.83491493 -6.72801421     2    212   216   217   218
H 355.96018307 2.66984985 -8.60786637     6    215    0    0    0
H 356.72068745 2.82876275 -5.52563636     6    215    0    0    0
C 353.44109469 0.32311970 -6.47227690     2    215   219   220   221
H 352.05313961 0.48786620 -4.86062507     6    218    0    0    0
H 352.36962960 0.02929762 -8.10268177     6    218    0    0    0
C 355.07060384 -2.14270964 -6.38495560     2    218   222   223   224
H 356.16520180 -2.20224972 -8.25485956     6    221    0    0    0
H 356.23517541 -2.21807089 -4.66139265     6    221    0    0    0
C 353.40112309 -4.51886385 -6.29889462     2    221   225   226   227
H 352.31804131 -4.56499037 -4.43427275     6    224    0    0    0
H 352.08198821 -4.34456685 -7.90289409     6    224    0    0    0
C 354.89295944 -7.02176614 -6.38680236     2    224   228   229   230
H 355.96321229 -6.85741193 -8.17631666     6    227    0    0    0
H 356.12938356 -6.82537821 -4.86399008     6    227    0    0    0
C 353.07231971 -9.26025231 -6.34513487     2    227   231   232   233
H 353.21585637 -9.95765669 -4.28153339     6    230    0    0    0
H 351.19324510 -8.54406900 -6.80242891     6    230    0    0    0
C 354.09894574 -11.44855136 -7.99677168     2    230   234   235   236
H 354.59747199 -10.64245754 -9.81049386     6    233    0    0    0
H 355.95632376 -12.17714344 -7.46854198     6    233    0    0    0
C 352.25793894 -13.58646792 -8.05996903     1    233   237   238   239
H 352.95581609 -15.04968846 -9.38928678     6    236    0    0    0
H 350.40233636 -12.92842968 -8.36037035     6    236    0    0    0
H 352.17504526 -14.61090348 -6.32054115     6    236    0    0    0
H 338.37787698 9.97097704 -31.81831959     6     241    0    0    0 
C 338.79586475 11.37117550 -30.32870877     1     240    242    243    244
H 340.79535851 12.00066116 -30.54657764     6     241    0    0    0
H 337.61200538 12.93545694 -30.50182867     6     241    0    0    0
C 338.52619901 10.04283260 -27.87515189     2     241    245    246    247
H 339.12298581 8.07828836 -27.91301838     6     244    0    0    0
H 340.05814708 10.89737937 -26.76079751     6     244    0    0    0
C 335.92960360 10.10270730 -26.51439426     2     244    248   249   250
H 336.15319316 9.80283799 -24.49926008     6     247    0    0    0
H 335.35357840 12.12648819 -26.40250724     6     247    0    0    0
C 333.78806573 8.43261067 -27.71938853     2     247   251   252   253
H 332.05403853 8.65200793 -26.54185453     6    250    0    0    0
H 333.39024694 9.19699800 -29.55721556     6    250    0    0    0
C 334.14125167 5.59048332 -27.72657215     2    250   254   255   256
H 335.85028558 4.85757071 -28.56682422     6    253    0    0    0
H 334.13120390 5.04163593 -25.71710292     6    253    0    0    0
C 331.83538097 4.21997410 -28.92478800     2    253   257   258   259
H 330.49150553 3.68038705 -27.33733684     6    256    0    0    0
H 330.71199325 5.47986891 -30.11354388     6    256    0    0    0
C 332.44600629 2.05124215 -30.55736445     2    256   260   261   262
H 332.99897661 2.86828726 -32.35624187     6    259    0    0    0
H 333.85288332 0.89317596 -29.69425070     6    259    0    0    0
C 330.13931385 0.28122304 -31.07517655     2    259   263   264   265
H 329.47031982 -0.82015929 -29.28732857     6    262    0    0    0
H 328.41308632 1.32878683 -31.68665336     6    262    0    0    0
C 330.83838474 -1.71607830 -33.02270309     2    262   266   267   268
H 329.24001917 -3.01878424 -33.28402778     6    265    0    0    0
H 331.25450990 -0.80272171 -34.89147939     6    265    0    0    0
C 333.09442347 -3.37375554 -32.52514138     2    265   269   270   271
H 334.73930894 -2.85120521 -33.72178122     6    268    0    0    0
H 333.84072725 -3.16087966 -30.68318709     6    268    0    0    0
C 332.64789459 -6.21501412 -33.15151874     2    268   272   273   274
H 331.29439178 -7.29855516 -32.01994200     6    271    0    0    0
H 331.83391788 -6.25856433 -35.06631581     6    271    0    0    0
C 335.14179700 -7.69258964 -33.16451318     1    271   275   276   277
H 336.44547711 -7.04690682 -34.67120272     6    274    0    0    0
H 334.79719164 -9.60225633 -33.47164695     6    274    0    0    0
H 336.04926019 -7.82592695 -31.32591329     6    274    0    0    0
H 342.78122067 29.63879603 -9.96058532     6     279    0    0    0 
C 342.44428617 27.62788666 -9.60582268     1     278    280    281    282
H 342.51744101 27.33665740 -7.41694414     6     279    0    0    0
H 340.58709510 27.17600827 -10.25862757     6     279    0    0    0
C 344.52067218 25.93565850 -10.84780778     2     279    283    284    285
H 344.89880022 26.65174819 -12.79852459     6     282    0    0    0
H 346.39955963 26.10791666 -9.72808451     6     282    0    0    0
C 343.77660956 23.18598962 -11.03762700     2     282    286   287   288
H 343.34836995 22.35595334 -9.12889430     6     285    0    0    0
H 342.21377876 22.86978066 -12.31768245     6     285    0    0    0
C 345.80360426 21.59319152 -12.17385960     2     285   289   290   291
H 345.99719546 22.09027440 -14.18692015     6    288    0    0    0
H 347.73491034 21.95661734 -11.43209278     6    288    0    0    0
C 345.24957528 18.77147395 -12.11008314     2    288   292   293   294
H 344.59002681 18.26270264 -10.17607998     6    291    0    0    0
H 343.74517268 18.22557623 -13.36202620     6    291    0    0    0
C 347.62300506 17.14798694 -12.70269062     2    291   295   296   297
H 348.21400780 17.87563764 -14.52341567     6    294    0    0    0
H 349.15814723 17.49972776 -11.40391089     6    294    0    0    0
C 346.97075701 14.32443902 -12.98065642     2    294   298   299   300
H 346.27263373 13.69345796 -11.15301449     6    297    0    0    0
H 345.60624976 13.90747568 -14.47545188     6    297    0    0    0
C 349.36470388 12.86781978 -13.44931684     2    297   301   302   303
H 350.48345160 13.23417851 -15.17732195     6    300    0    0    0
H 350.53965273 13.30619866 -11.77836228     6    300    0    0    0
C 348.76959539 10.06267056 -13.76381674     2    300   304   305   306
H 348.47777254 9.22819177 -11.95463827     6    303    0    0    0
H 346.91601626 9.69631047 -14.54269326     6    303    0    0    0
C 350.95584678 8.77391982 -15.13849868     2    303   307   308   309
H 351.28118218 9.46141631 -17.18054715     6    306    0    0    0
H 352.84266865 9.21266608 -14.21748657     6    306    0    0    0
C 350.41775516 5.89801435 -15.21905666     2    306   310   311   312
H 349.99983271 5.29942006 -13.22318520     6    309    0    0    0
H 348.78951968 5.29179678 -16.22574651     6    309    0    0    0
C 352.43917951 4.20954420 -16.29327093     1    309   313   314   315
H 353.94730373 4.09795695 -14.89275826     6    312    0    0    0
H 353.15054320 4.82938208 -18.11155231     6    312    0    0    0
H 351.73924747 2.33847678 -16.53947036     6    312    0    0    0
H 357.18994128 33.33986035 -23.31166655     6     317    0    0    0 
C 355.95769775 33.73494026 -24.77459634     1     316    318    319    320
H 354.04529933 32.97161139 -24.19546043     6     317    0    0    0
H 356.00609164 35.84195040 -24.80577266     6     317    0    0    0
C 356.84305142 32.32903347 -27.19788897     2     317    321    322    323
H 355.26228800 32.06101994 -28.48654860     6     320    0    0    0
H 358.46708181 33.34933042 -27.95955934     6     320    0    0    0
C 357.65634326 29.66502979 -26.76668575     2     320    324   325   326
H 358.99003278 29.69331334 -25.15248898     6     323    0    0    0
H 356.13012466 28.48110667 -26.42631094     6     323    0    0    0
C 359.21093387 28.54706215 -28.99881539     2     323   327   328   329
H 357.93169890 28.72060046 -30.63833620     6    326    0    0    0
H 360.63085430 30.00838428 -29.29607882     6    326    0    0    0
C 360.40042220 25.84876784 -28.53455932     2    326   330   331   332
H 361.09222476 25.76464319 -26.49556920     6    329    0    0    0
H 358.98541057 24.26771936 -28.48929201     6    329    0    0    0
C 362.48193795 25.14137799 -30.52684626     2    329   333   334   335
H 364.27655070 26.10851569 -30.06499912     6    332    0    0    0
H 362.77836076 23.12354695 -30.20206790     6    332    0    0    0
C 361.60735375 25.06493978 -33.29553417     2    332   336   337   338
H 360.81378057 23.19401433 -33.70558009     6    335    0    0    0
H 360.13927532 26.46351577 -33.63594041     6    335    0    0    0
C 363.62451410 25.19492263 -35.24094422     2    335   339   340   341
H 362.76020017 25.69563281 -37.09211392     6    338    0    0    0
H 364.99536948 26.73784212 -34.84838932     6    338    0    0    0
C 365.23140374 22.75979787 -35.41316902     2    338   342   343   344
H 365.77669407 22.03154940 -33.60348507     6    341    0    0    0
H 363.90060084 21.45966712 -36.36631959     6    341    0    0    0
C 367.52619625 23.05824872 -37.04622358     2    341   345   346   347
H 368.12457920 21.26823988 -38.02295967     6    344    0    0    0
H 367.18633744 24.42079945 -38.47902033     6    344    0    0    0
C 369.73967787 23.85106449 -35.43431449     2    344   348   349   350
H 369.10723638 25.67475994 -34.65030589     6    347    0    0    0
H 370.01966296 22.76742544 -33.65580389     6    347    0    0    0
C 372.16925595 23.70942003 -36.66791728     1    347   351   352   353
H 372.53533822 21.67711792 -37.18234875     6    350    0    0    0
H 373.71323096 24.41981422 -35.41251651     6    350    0    0    0
H 372.20067996 24.78113826 -38.40872520     6    350    0    0    0
H 334.92306073 6.87230907 -18.47266649     6     355    0    0    0 
C 336.72288222 7.70575268 -19.25353479     1     354    356    357    358
H 338.15612924 6.25944432 -18.89698694     6     355    0    0    0
H 336.57110666 8.08117140 -21.27509468     6     355    0    0    0
C 337.29233484 10.16180257 -17.89156811     2     355    359    360    361
H 335.61899972 11.37664882 -17.50905528     6     358    0    0    0
H 337.88903229 9.65643155 -15.95003351     6     358    0    0    0
C 339.22814562 11.58071631 -19.54176694     2     358    362   363   364
H 340.58697313 10.18847336 -20.43081648     6     361    0    0    0
H 338.30163487 12.38174581 -21.15988450     6     361    0    0    0
C 340.40539733 13.85834017 -18.13828380     2     361   365   366   367
H 339.04410796 15.06205471 -17.32368862     6    364    0    0    0
H 341.33230174 13.17116487 -16.39785934     6    364    0    0    0
C 341.99271013 15.36293190 -20.02914104     2    364   368   369   370
H 343.46504315 14.16481018 -20.87489601     6    367    0    0    0
H 340.88498262 15.99933725 -21.64551236     6    367    0    0    0
C 343.29345989 17.72981263 -18.86993628     2    367   371   372   373
H 341.87483493 18.83046778 -17.83901080     6    370    0    0    0
H 344.48506091 16.96590320 -17.49680339     6    370    0    0    0
C 344.61270599 19.27621927 -20.76156458     2    370   374   375   376
H 346.21512234 18.51298243 -21.75285631     6    373    0    0    0
H 343.14913568 19.96058096 -22.02596253     6    373    0    0    0
C 345.78356665 21.66155322 -19.71322763     2    373   377   378   379
H 344.52387022 22.67173331 -18.37143095     6    376    0    0    0
H 347.28382248 21.16075885 -18.49584915     6    376    0    0    0
C 346.65443792 23.44025404 -21.89539363     2    376   380   381   382
H 348.04251576 22.32257080 -22.91784854     6    379    0    0    0
H 345.01092896 24.17987199 -22.96038797     6    379    0    0    0
C 347.80814425 25.84318158 -20.86818261     2    379   383   384   385
H 346.33179257 26.77418576 -19.62818167     6    382    0    0    0
H 349.34006673 25.28938138 -19.52223391     6    382    0    0    0
C 348.79668510 27.57945327 -22.94083900     2    382   386   387   388
H 350.31110690 26.66887230 -23.99360293     6    385    0    0    0
H 347.40781968 28.24415893 -24.33231656     6    385    0    0    0
C 349.91206407 29.99276856 -22.01526418     1    385   389   390   391
H 351.44242670 29.88143666 -20.61528341     6    388    0    0    0
H 348.50621146 30.90046228 -20.71223177     6    388    0    0    0
H 350.35448717 31.12011819 -23.68999500     6    388    0    0    0
H 374.50756509 16.35342932 -56.86518253     6     393    0    0    0 
C 372.88503429 15.31883114 -57.74648652     1     392    394    395    396
H 372.73218385 15.70245367 -59.69831652     6     393    0    0    0
H 373.02536575 13.18495773 -57.50896616     6     393    0    0    0
C 370.40767237 16.25231480 -56.64566806     2     393    397    398    399
H 370.51222959 16.37237100 -54.60588924     6     396    0    0    0
H 370.02356262 18.29186818 -57.34984962     6     396    0    0    0
C 368.27501203 14.42981134 -57.29844140     2     396    400   401   402
H 368.35770212 13.99603910 -59.31384762     6     399    0    0    0
H 368.71006650 12.61276524 -56.33055472     6     399    0    0    0
C 365.56763569 15.21457686 -56.51585727     2     399   403   404   405
H 365.26919605 15.82309726 -54.54324554     6    402    0    0    0
H 364.89305267 16.88183528 -57.66724135     6    402    0    0    0
C 363.83431412 13.00505208 -56.92262657     2    402   406   407   408
H 363.82112383 12.56340043 -58.91704699     6    405    0    0    0
H 364.43763758 11.54619701 -55.59712796     6    405    0    0    0
C 360.99685381 13.69412278 -56.31618552     2    405   409   410   411
H 360.94402567 14.04268618 -54.33337985     6    408    0    0    0
H 360.32017687 15.31157049 -57.50288515     6    408    0    0    0
C 359.18827326 11.61429241 -57.00127181     2    408   412   413   414
H 357.32551890 12.19622074 -56.25016790     6    411    0    0    0
H 358.91807173 11.31635176 -59.06349622     6    411    0    0    0
C 359.80550864 9.00349254 -55.84846036     2    411   415   416   417
H 361.70283869 8.53204732 -56.52232119     6    414    0    0    0
H 360.19353209 9.07099661 -53.84086038     6    414    0    0    0
C 357.86672732 6.87112389 -56.54540736     2    414   418   419   420
H 355.83107030 7.27479289 -55.86837742     6    417    0    0    0
H 357.93331916 6.71865233 -58.52989179     6    417    0    0    0
C 358.53074062 4.43043980 -55.16187390     2    417   421   422   423
H 360.56799738 4.29299353 -54.69993183     6    420    0    0    0
H 357.54315166 4.39691966 -53.30897812     6    420    0    0    0
C 357.56602607 2.06017546 -56.58727645     2    420   424   425   426
H 358.11032166 0.37232389 -55.62308534     6    423    0    0    0
H 355.55075150 1.97890972 -56.61260988     6    423    0    0    0
C 358.81430621 1.54419036 -59.20858466     1    423   427   428   429
H 358.99386979 -0.49294652 -59.78900845     6    426    0    0    0
H 360.64273740 2.40442567 -59.18384831     6    426    0    0    0
H 357.78358586 2.57921739 -60.61826708     6    426    0    0    0
H 347.36476133 17.27786307 -51.76712359     6     431    0    0    0 
C 347.20475461 18.44467397 -53.36725540     1     430    432    433    434
H 345.83731408 17.72234845 -54.70894107     6     431    0    0    0
H 346.50375280 20.26267661 -52.81656492     6     431    0    0    0
C 349.70979613 18.83639422 -54.73737767     2     431    435    436    437
H 351.26315582 19.42243248 -53.41258184     6     434    0    0    0
H 350.30951601 16.87628595 -55.36628238     6     434    0    0    0
C 349.59138674 20.56681518 -56.99549458     2     434    438   439   440
H 348.38451707 19.82986052 -58.39629696     6     437    0    0    0
H 348.52557523 22.27934591 -56.30183785     6     437    0    0    0
C 352.24165088 21.00231602 -58.12589772     2     437   441   442   443
H 352.03696377 22.38145517 -59.62494281     6    440    0    0    0
H 353.52979874 21.87494492 -56.70566999     6    440    0    0    0
C 353.33216737 18.55788696 -59.39613978     2    440   444   445   446
H 353.55560544 17.10598301 -57.94914276     6    443    0    0    0
H 352.08640359 17.87286494 -60.95953031     6    443    0    0    0
C 355.87532677 19.00417521 -60.63703793     2    443   447   448   449
H 355.62373467 20.55700587 -61.81231820     6    446    0    0    0
H 357.10677731 19.82973523 -59.28302662     6    446    0    0    0
C 356.89969895 16.75920706 -62.07896739     2    446   450   451   452
H 356.67155882 15.04242696 -61.00821008     6    449    0    0    0
H 355.54341395 16.67923509 -63.60099477     6    449    0    0    0
C 359.42160239 17.45938481 -63.52644081     2    449   453   454   455
H 358.82474285 19.00864316 -64.76536558     6    452    0    0    0
H 360.72029423 18.41751308 -62.38851938     6    452    0    0    0
C 360.74047775 15.07970004 -64.59908832     2    452   456   457   458
H 360.83111228 13.72515891 -63.09173512     6    455    0    0    0
H 359.77325945 14.49738794 -66.32521171     6    455    0    0    0
C 363.35362970 15.46596774 -65.63551056     2    455   459   460   461
H 363.91268858 14.20788005 -67.11507440     6    458    0    0    0
H 363.44423850 17.45128676 -66.36557235     6    458    0    0    0
C 365.34140121 15.20871667 -63.49763420     2    458   462   463   464
H 364.84516291 16.49390785 -62.01838185     6    461    0    0    0
H 364.99185002 13.35113705 -62.79162549     6    461    0    0    0
C 368.15244284 15.15110303 -64.25252616     1    461   465   466   467
H 368.69376913 16.67672395 -65.37301866     6    464    0    0    0
H 368.72714012 13.30899836 -65.11489823     6    464    0    0    0
H 369.34031606 15.67474729 -62.58769686     6    464    0    0    0
H 342.84611146 28.47262143 -17.67497512     6     469    0    0    0 
C 341.04668559 29.06277324 -16.85244329     1     468    470    471    472
H 340.68009954 28.27386898 -14.88579790     6     469    0    0    0
H 341.00364800 31.05842097 -16.59804627     6     469    0    0    0
C 338.90572944 28.03230638 -18.60785974     2     469    473    474    475
H 337.06544435 28.73909468 -18.02182592     6     472    0    0    0
H 339.21989912 28.79814458 -20.46243466     6     472    0    0    0
C 338.95840262 25.04097083 -18.57055835     2     472    476   477   478
H 340.30150509 24.09234902 -20.01348075     6     475    0    0    0
H 339.80103245 24.35755472 -16.74444291     6     475    0    0    0
C 336.25148123 23.95002027 -18.78969655     2     475   479   480   481
H 335.20952172 24.60018727 -17.06883868     6    478    0    0    0
H 335.32002303 24.73660975 -20.46090341     6    478    0    0    0
C 336.39560938 21.01369064 -18.98798993     2    478   482   483   484
H 337.53924019 20.36993754 -20.59031071     6    481    0    0    0
H 337.31086870 20.27831504 -17.33033988     6    481    0    0    0
C 333.86469040 19.60371354 -19.02917261     2    481   485   486   487
H 332.82406816 20.32190871 -17.45615616     6    484    0    0    0
H 332.86842608 20.12611500 -20.78794235     6    484    0    0    0
C 333.81584703 16.72130011 -19.02071799     2    484   488   489   490
H 334.96280050 16.00787347 -20.68715542     6    487    0    0    0
H 334.71191316 15.94086901 -17.25436713     6    487    0    0    0
C 331.26004120 15.67105237 -19.05931996     2    487   491   492   493
H 330.40280839 15.84435446 -17.23125881     6    490    0    0    0
H 330.28814137 16.85840902 -20.54249352     6    490    0    0    0
C 331.21635960 12.95580866 -20.07161613     2    490   494   495   496
H 332.70935370 12.78656112 -21.38233138     6    493    0    0    0
H 331.80929071 11.66081277 -18.50675158     6    493    0    0    0
C 328.71634098 12.13511041 -21.16094040     2    493   497   498   499
H 327.04553908 12.80621880 -20.19288095     6    496    0    0    0
H 328.51753961 12.96265225 -23.10090586     6    496    0    0    0
C 328.69850833 9.25362561 -21.54028246     2    496   500   501   502
H 330.17122625 8.78504459 -22.96464171     6    499    0    0    0
H 329.41580221 8.18310793 -19.83020593     6    499    0    0    0
C 326.21008102 8.22289332 -22.60098047     1    499   503   504   505
H 325.96123323 6.24397740 -22.71777193     6    502    0    0    0
H 326.03421487 8.98868787 -24.41864905     6    502    0    0    0
H 324.62495271 8.88586474 -21.56436427     6    502    0    0    0
H 323.42541926 6.60937414 -43.99375531     6     507    0    0    0 
C 325.22110025 5.54252787 -43.61241081     1     506    508    509    510
H 326.19299756 6.15920743 -41.88843914     6     507    0    0    0
H 324.42206263 3.64599849 -43.38181842     6     507    0    0    0
C 327.13748007 5.66555589 -45.77640211     2     507    511    512    513
H 326.32216173 4.65069648 -47.37556163     6     510    0    0    0
H 327.26256584 7.50776657 -46.39784566     6     510    0    0    0
C 329.84574324 4.68892459 -44.85350117     2     510    514   515   516
H 330.44485822 5.09685857 -42.98987154     6     513    0    0    0
H 329.50673968 2.74707437 -44.74768047     6     513    0    0    0
C 331.90999908 5.29128132 -46.96788316     2     513   517   518   519
H 331.19599014 4.43941184 -48.69136609     6    516    0    0    0
H 331.86768641 7.34635591 -47.34355698     6    516    0    0    0
C 334.81619332 4.55850011 -46.41459513     2    516   520   521   522
H 335.13530067 5.80373761 -44.83078100     6    519    0    0    0
H 335.08305804 2.57811483 -45.78706503     6    519    0    0    0
C 336.55553436 5.26251796 -48.62052556     2    519   523   524   525
H 337.15632655 3.60512900 -49.52253793     6    522    0    0    0
H 335.35350403 6.14296162 -50.02502612     6    522    0    0    0
C 338.79481046 6.98129821 -48.10041696     2    522   526   527   528
H 338.44723404 8.85245090 -47.33328659     6    525    0    0    0
H 339.91646081 6.20482793 -46.50470327     6    525    0    0    0
C 340.76069039 7.39525131 -50.27341918     2    525   529   530   531
H 341.21969635 5.71077271 -51.18958006     6    528    0    0    0
H 339.85140858 8.48034519 -51.73752720     6    528    0    0    0
C 343.28473634 8.62793337 -49.62310435     2    528   532   533   534
H 343.10999905 10.11970894 -48.27064468     6    531    0    0    0
H 344.24776112 7.23239287 -48.57371428     6    531    0    0    0
C 344.81389003 9.16991908 -52.04700373     2    531   535   536   537
H 344.86280022 7.59272705 -53.30791756     6    534    0    0    0
H 343.68514024 10.28340924 -53.32031216     6    534    0    0    0
C 347.37946035 10.04322906 -51.38870051     2    534   538   539   540
H 347.53394660 11.92211584 -50.66506945     6    537    0    0    0
H 347.72269450 8.83119420 -49.80914325     6    537    0    0    0
C 349.42552100 10.00915182 -53.43906667     1    537   541   542   543
H 351.26715772 10.68597381 -52.89931803     6    540    0    0    0
H 349.01154516 11.19225107 -55.09995246     6    540    0    0    0
H 349.70869073 8.05857656 -54.14988405     6    540    0    0    0
H 363.84800144 16.27698179 -46.71478469     6     545    0    0    0 
C 363.88030070 18.41880404 -46.51387315     1     544    546    547    548
H 363.78967381 19.24104211 -48.42831253     6     545    0    0    0
H 361.96711708 18.92206716 -46.03024444     6     545    0    0    0
C 365.95348151 19.51796103 -44.96154098     2     545    549    550    551
H 366.20793161 21.43175168 -45.83499476     6     548    0    0    0
H 365.37064994 20.05363412 -43.04593668     6     548    0    0    0
C 368.31805867 17.92092561 -44.95851020     2     548    552   553   554
H 367.66191338 16.19459825 -44.03806453     6     551    0    0    0
H 368.67872911 17.59154942 -46.97406256     6     551    0    0    0
C 370.43639145 19.38364308 -43.74918067     2     551   555   556   557
H 370.64921721 21.13973042 -44.65521052     6    554    0    0    0
H 369.90841491 19.74118886 -41.77728705     6    554    0    0    0
C 372.86326439 17.77063541 -44.03830074     2    554   558   559   560
H 372.46968516 15.81916615 -43.61899947     6    557    0    0    0
H 373.49693173 17.65856728 -45.94301723     6    557    0    0    0
C 374.98957141 18.63598838 -42.27167868     2    557   561   562   563
H 375.73351463 20.42996196 -42.84742987     6    560    0    0    0
H 374.07396442 18.90878427 -40.43080886     6    560    0    0    0
C 377.19535243 16.71111132 -41.93116459     2    560   564   565   566
H 376.31740865 15.13109298 -41.18414047     6    563    0    0    0
H 377.97529687 16.39365412 -43.84605324     6    563    0    0    0
C 379.37905216 17.79476106 -40.30554440     2    563   567   568   569
H 380.21023278 19.54164446 -40.83831952     6    566    0    0    0
H 378.47728423 18.45322872 -38.62572784     6    566    0    0    0
C 381.54715396 15.93589840 -39.82590621     2    566   570   571   572
H 380.73766809 14.27157627 -38.97851785     6    569    0    0    0
H 382.36947030 15.53201243 -41.74070822     6    569    0    0    0
C 383.53108153 17.04326774 -37.93394287     2    569   573   574   575
H 385.41522643 16.36821446 -38.39195978     6    572    0    0    0
H 383.67671810 19.09161039 -38.20016615     6    572    0    0    0
C 383.05666822 16.49636726 -35.09612790     2    572   576   577   578
H 382.31862438 14.69888300 -35.09584684     6    575    0    0    0
H 384.82113465 16.47331721 -33.99975759     6    575    0    0    0
C 381.37550395 18.62257380 -33.94793641     1    575   579   580   581
H 381.81079978 20.65280436 -34.32597405     6    578    0    0    0
H 381.66048898 18.81617674 -31.80841389     6    578    0    0    0
H 379.39812339 18.22230436 -34.21192794     6    578    0    0    0
H 355.82913550 12.07322574 -13.31152281     6     583    0    0    0 
C 357.51358045 13.05030444 -12.56585699     1     582    584    585    586
H 357.34851408 13.36655849 -10.52072570     6     583    0    0    0
H 359.00258102 11.72095325 -12.80754570     6     583    0    0    0
C 357.73729315 15.39350302 -14.03564805     2     583    587    588    589
H 357.70411915 14.67269833 -15.89283537     6     586    0    0    0
H 356.24382567 16.77759776 -13.75735173     6     586    0    0    0
C 360.31095309 16.56934385 -13.52419130     2     586    590   591   592
H 360.46049959 17.10239178 -11.51024150     6     589    0    0    0
H 361.74649209 15.04682570 -13.67888390     6     589    0    0    0
C 361.25480061 18.56377042 -15.29281415     2     589   593   594   595
H 360.89222124 17.79245657 -17.05832346     6    592    0    0    0
H 360.13425561 20.36017983 -15.32315330     6    592    0    0    0
C 364.11300207 19.12736495 -14.81913033     2    592   596   597   598
H 364.35308115 20.10641363 -12.99846842     6    595    0    0    0
H 365.07795209 17.20005894 -14.68845972     6    595    0    0    0
C 365.26015217 20.82416603 -16.81814918     2    595   599   600   601
H 364.94191954 20.19149572 -18.76773946     6    598    0    0    0
H 363.99030990 22.44313553 -16.77589104     6    598    0    0    0
C 368.04116911 21.40240504 -16.41240151     2    598   602   603   604
H 368.18529402 22.80405260 -14.86974796     6    601    0    0    0
H 369.05770497 19.60430915 -16.11670427     6    601    0    0    0
C 369.40919647 22.83500746 -18.54927517     2    601   605   606   607
H 368.57781081 22.57457951 -20.38412255     6    604    0    0    0
H 368.84676711 24.87825031 -18.53028461     6    604    0    0    0
C 372.39184011 22.40361992 -18.59101446     2    604   608   609   610
H 373.39019639 22.71118916 -16.74883419     6    607    0    0    0
H 372.87878010 20.34382183 -18.77292830     6    607    0    0    0
C 373.66460945 24.02868005 -20.65870273     2    607   611   612   613
H 372.91909254 23.26808233 -22.59136309     6    610    0    0    0
H 373.04169480 25.98809698 -20.37700293     6    610    0    0    0
C 376.55058187 23.65463208 -20.72198319     2    610   614   615   616
H 377.30933913 24.67414850 -19.07789779     6    613    0    0    0
H 377.11781914 21.65101432 -20.72855930     6    613    0    0    0
C 377.84645952 24.94076530 -23.02376228     1    613   617   618   619
H 377.84619530 23.69171327 -24.70573857     6    616    0    0    0
H 379.77638917 25.09328804 -22.37420720     6    616    0    0    0
H 377.21589495 26.82910440 -23.49526496     6    616    0    0    0
H 360.81164736 -1.69964377 -43.66846047     6     621    0    0    0 
C 361.79483664 -0.61271737 -42.17243919     1     620    622    623    624
H 363.68885518 -0.57771288 -42.88930373     6     621    0    0    0
H 361.20669432 1.29391098 -41.86177345     6     621    0    0    0
C 361.35183567 -1.87362513 -39.64176478     2     621    625    626    627
H 362.08124410 -0.84984361 -38.07320572     6     624    0    0    0
H 359.28130668 -1.88538785 -39.36694806     6     624    0    0    0
C 362.09613584 -4.62085344 -39.61874251     2     624    628   629   630
H 361.31095658 -5.68015131 -41.17035883     6     627    0    0    0
H 364.03010366 -4.79068435 -39.84162057     6     627    0    0    0
C 361.64372320 -6.04824564 -37.02923193     2     627   631   632   633
H 362.70818688 -5.14901901 -35.52148042     6    630    0    0    0
H 359.68525531 -5.92763615 -36.70832237     6    630    0    0    0
C 362.53865230 -8.84761536 -36.94710564     2    630   634   635   636
H 362.11846926 -9.96348488 -38.66916204     6    633    0    0    0
H 364.56897557 -8.91194348 -37.01277027     6    633    0    0    0
C 361.65283192 -10.18126148 -34.35335738     2    633   637   638   639
H 362.13814213 -8.82809672 -32.88980417     6    636    0    0    0
H 359.62839528 -10.38884359 -34.49130857     6    636    0    0    0
C 362.97813177 -12.79707334 -34.10725341     2    636   640   641   642
H 362.23055376 -14.30594497 -35.49959814     6    639    0    0    0
H 364.90496479 -12.61594531 -34.78900421     6    639    0    0    0
C 362.83213883 -13.51922938 -31.33962391     2    639   643   644   645
H 363.93697937 -11.92403869 -30.61138754     6    642    0    0    0
H 360.84596985 -13.54086233 -30.89209212     6    642    0    0    0
C 364.14047693 -16.00985453 -30.74689515     2    642   646   647   648
H 363.29299309 -17.30088449 -31.94596015     6    645    0    0    0
H 366.00181200 -16.01528549 -31.47704647     6    645    0    0    0
C 363.84034767 -16.94879652 -28.02102453     2    645   649   650   651
H 363.95454796 -15.23991661 -26.95910503     6    648    0    0    0
H 361.97078952 -17.89024898 -27.90616165     6    648    0    0    0
C 365.72677117 -18.92628442 -27.15917217     2    648   652   653   654
H 365.28254161 -19.50266245 -25.23553884     6    651    0    0    0
H 365.57635022 -20.57859683 -28.33669686     6    651    0    0    0
C 368.39862854 -17.75141842 -27.07025549     1    651   655   656   657
H 369.13924378 -17.02470338 -28.88009980     6    654    0    0    0
H 369.56254955 -19.24739050 -26.39298895     6    654    0    0    0
H 368.47419212 -16.21052754 -25.69913663     6    654    0    0    0
H 361.07200945 9.31295056 -16.82787512     6     659    0    0    0 
C 360.33126085 8.22774621 -18.32386619     1     658    660    661    662
H 359.87423734 6.36491344 -17.56420727     6     659    0    0    0
H 358.58974912 9.12353865 -18.80208682     6     659    0    0    0
C 362.18154706 7.83672913 -20.54044459     2     659    663    664    665
H 363.99726740 7.41743000 -19.90443596     6     662    0    0    0
H 361.43171932 6.35326643 -21.79093765     6     662    0    0    0
C 362.34214850 10.26607713 -22.13157265     2     662    666   667   668
H 363.41564864 9.57024931 -23.69809117     6     665    0    0    0
H 360.43723610 10.97822490 -22.65202517     6     665    0    0    0
C 364.21867736 12.25606553 -21.03306180     2     665   669   670   671
H 363.86628956 12.38600033 -19.07158774     6    668    0    0    0
H 366.03142789 11.56796491 -21.28715591     6    668    0    0    0
C 363.89420322 14.84638281 -22.10438469     2    668   672   673   674
H 363.62093764 14.57635778 -24.18540658     6    671    0    0    0
H 362.07129634 15.62248715 -21.41927992     6    671    0    0    0
C 366.16476046 16.63764391 -21.80267839     2    671   675   676   677
H 365.49754102 18.49501948 -22.30894617     6    674    0    0    0
H 366.63393965 16.45018757 -19.81111177     6    674    0    0    0
C 368.77683786 16.04849164 -23.04034441     2    674   678   679   680
H 370.16713373 17.13305597 -22.13482782     6    677    0    0    0
H 369.29944181 14.11112836 -22.61952682     6    677    0    0    0
C 368.82806003 16.77454856 -25.84075974     2    677   681   682   683
H 367.11472585 15.90763296 -26.65710463     6    680    0    0    0
H 368.61814024 18.80842281 -26.22764840     6    680    0    0    0
C 371.17537346 16.04840010 -27.31693221     2    680   684   685   686
H 371.30907273 13.96271138 -27.57943388     6    683    0    0    0
H 370.87936124 16.47081141 -29.31899376     6    683    0    0    0
C 373.80476412 17.25608273 -26.25539146     2    683   687   688   689
H 373.75955987 19.29696048 -26.41097126     6    686    0    0    0
H 373.90553333 17.04065702 -24.24790176     6    686    0    0    0
C 376.10030315 16.06464183 -27.67377053     2    686   690   691   692
H 375.98173491 13.98445552 -27.68675191     6    689    0    0    0
H 375.99527218 16.82211181 -29.51077116     6    689    0    0    0
C 378.68006530 17.03238694 -26.70081162     1    689   693   694   695
H 380.03682784 16.12795064 -27.90969978     6    692    0    0    0
H 379.05453893 16.09140064 -24.91901728     6    692    0    0    0
H 379.17399130 18.94288176 -26.54353026     6    692    0    0    0
H 388.85453292 29.11028419 -49.73431094     6     697    0    0    0 
C 387.83135678 28.91153959 -47.91167931     1     696    698    699    700
H 389.28510714 28.29667793 -46.67420943     6     697    0    0    0
H 387.29612777 30.88594993 -47.56740948     6     697    0    0    0
C 385.48822617 27.19896611 -48.16882838     2     697    701    702    703
H 385.94486763 25.18825383 -48.28482238     6     700    0    0    0
H 384.50696220 27.35004409 -46.39785766     6     700    0    0    0
C 383.74503472 27.90757319 -50.28138305     2     700    704   705   706
H 383.14598001 29.82010591 -50.05939952     6     703    0    0    0
H 384.70031630 27.99018964 -51.93143270     6     703    0    0    0
C 381.36464689 26.14898655 -50.26692257     2     703   707   708   709
H 381.79121234 24.22856270 -50.66356922     6    706    0    0    0
H 380.57688414 25.99608520 -48.29721384     6    706    0    0    0
C 379.22821718 26.92548840 -52.09747875     2    706   710   711   712
H 378.47578521 28.79554401 -51.50657891     6    709    0    0    0
H 380.07774187 27.44645980 -53.92410064     6    709    0    0    0
C 377.08361929 25.06089319 -52.56964356     2    709   713   714   715
H 377.77437110 23.38986289 -53.48003311     6    712    0    0    0
H 376.37149005 24.31191737 -50.72465614     6    712    0    0    0
C 375.03325548 26.10378258 -54.45902308     2    712   716   717   718
H 374.44304749 27.91067404 -53.84381755     6    715    0    0    0
H 375.90848816 26.33106039 -56.31913368     6    715    0    0    0
C 372.60724422 24.67800121 -54.86253289     2    715   719   720   721
H 373.14720855 22.70465758 -55.12387015     6    718    0    0    0
H 371.43087078 24.78772898 -53.20824302     6    718    0    0    0
C 371.26542751 25.87125527 -57.22770740     2    718   722   723   724
H 371.39151138 27.80429738 -57.15393180     6    721    0    0    0
H 372.24337451 25.33871906 -58.94362565     6    721    0    0    0
C 368.38419888 25.23740817 -57.47118164     2    721   725   726   727
H 368.01042025 23.20837208 -58.13207633     6    724    0    0    0
H 367.56997491 25.39685816 -55.54249099     6    724    0    0    0
C 366.97322211 26.88305661 -59.41022452     2    724   728   729   730
H 367.87050114 26.85087536 -61.29019558     6    727    0    0    0
H 365.31974097 25.74820762 -59.97469345     6    727    0    0    0
C 366.33843412 29.53312474 -58.32391400     1    727   731   732   733
H 365.46074164 30.85134279 -59.67713775     6    730    0    0    0
H 367.97121508 30.40579934 -57.69133965     6    730    0    0    0
H 364.98528892 29.46316463 -56.84653488     6    730    0    0    0
H 341.29380177 34.89134918 -35.88044775     6     735    0    0    0 
C 341.65210343 36.09922771 -34.21672966     1     734    736    737    738
H 342.37826555 37.94531013 -34.69958381     6     735    0    0    0
H 339.74992128 36.23393813 -33.41188493     6     735    0    0    0
C 343.68510936 34.85316033 -32.55979707     2     735    739    740    741
H 345.48284431 35.16159499 -33.44178494     6     738    0    0    0
H 343.92274039 35.87968899 -30.68385135     6     738    0    0    0
C 342.87986684 32.04202930 -32.11929288     2     738    742   743   744
H 340.83753718 31.79793389 -31.77200990     6     741    0    0    0
H 343.02437354 30.94513038 -33.79191058     6     741    0    0    0
C 344.36327538 30.82907244 -30.05572179     2     741   745   746   747
H 346.46321346 30.69709519 -30.46889572     6    744    0    0    0
H 344.05499143 32.02767074 -28.42163019     6    744    0    0    0
C 343.38010148 28.00332264 -29.40839276     2    744   748   749   750
H 343.18737105 26.78190334 -31.02201593     6    747    0    0    0
H 344.88295089 27.09465215 -28.32858956     6    747    0    0    0
C 340.77115917 28.10935459 -27.99370758     2    747   751   752   753
H 341.27361017 28.56957176 -25.96198522     6    750    0    0    0
H 339.48692430 29.49766425 -28.71461441     6    750    0    0    0
C 339.11407370 25.62092833 -28.15433068     2    750   754   755   756
H 337.33706429 25.95579146 -27.25029998     6    753    0    0    0
H 339.19682690 24.82353585 -29.99541356     6    753    0    0    0
C 340.36486600 23.48369701 -26.51566127     2    753   757   758   759
H 342.43456562 23.48609594 -26.87930985     6    756    0    0    0
H 340.39607541 24.21624792 -24.52102081     6    756    0    0    0
C 339.27505244 20.79280335 -26.88811489     2    756   760   761   762
H 339.78583922 20.22611267 -28.80711441     6    759    0    0    0
H 340.11336107 19.67255163 -25.52585067     6    759    0    0    0
C 336.33516978 20.55107286 -26.60698466     2    759   763   764   765
H 335.30321261 21.49710420 -24.89505645     6    762    0    0    0
H 335.79387535 21.50369352 -28.34895998     6    762    0    0    0
C 335.53485431 17.75485080 -27.00372669     2    762   766   767   768
H 336.38222646 17.15603244 -28.80540315     6    765    0    0    0
H 336.46618898 16.62255411 -25.59987992     6    765    0    0    0
C 332.64099000 17.32975482 -26.79234372     1    765   769   770   771
H 332.19813855 18.05233034 -24.95517208     6    768    0    0    0
H 332.13493437 15.38602329 -27.19021747     6    768    0    0    0
H 331.76926574 18.68375360 -28.15429534     6    768    0    0    0
H 355.11873310 -15.51270773 -37.79682250     6     773    0    0    0 
C 357.07951997 -15.77962095 -38.37572586     1     772    774    775    776
H 358.06398569 -13.96828889 -37.66680326     6     773    0    0    0
H 357.75975364 -17.44296004 -37.30657326     6     773    0    0    0
C 357.48102226 -16.01946744 -41.26402175     2     773    777    778    779
H 359.44366871 -16.49945404 -41.77651390     6     776    0    0    0
H 356.42307374 -17.69808755 -41.88061343     6     776    0    0    0
C 356.96254446 -13.41749628 -42.63078774     2     776    780   781   782
H 355.07218201 -12.86623889 -42.14424017     6     779    0    0    0
H 358.24080851 -12.03453384 -41.79165284     6     779    0    0    0
C 357.32298321 -13.33021020 -45.36571370     2     779   783   784   785
H 358.98533326 -14.38555300 -46.09877770     6    782    0    0    0
H 355.75531308 -14.21776261 -46.37482234     6    782    0    0    0
C 357.39006221 -10.51981118 -46.51873518     2    782   786   787   788
H 355.87644598 -9.41520828 -45.65025120     6    785    0    0    0
H 359.21393007 -9.70557411 -45.84244715     6    785    0    0    0
C 357.52343737 -10.20769601 -49.50484489     2    785   789   790   791
H 357.99453389 -11.94677479 -50.38018771     6    788    0    0    0
H 355.67649728 -9.68970513 -50.20476661     6    788    0    0    0
C 359.60321741 -8.40411996 -50.31954746     2    788   792   793   794
H 359.01235709 -6.53650152 -50.15291956     6    791    0    0    0
H 361.20374107 -8.60186078 -49.12899186     6    791    0    0    0
C 360.09438171 -8.62874468 -53.28480544     2    791   795   796   797
H 361.01602305 -10.38737444 -53.84362706     6    794    0    0    0
H 358.20108747 -8.61115378 -54.25598792     6    794    0    0    0
C 361.49935909 -6.29130890 -54.34902717     2    794   798   799   800
H 360.60370962 -4.46873536 -54.20130224     6    797    0    0    0
H 363.33511014 -6.09742573 -53.49011607     6    797    0    0    0
C 362.28206506 -6.88815646 -57.20031866     2    797   801   802   803
H 363.53099964 -8.51027173 -57.06878542     6    800    0    0    0
H 360.49838099 -7.54563857 -58.16556681     6    800    0    0    0
C 363.36996714 -4.59764438 -58.76171298     2    800   804   805   806
H 362.01651084 -3.02403898 -58.64773720     6    803    0    0    0
H 365.10419842 -3.86200088 -57.94611151     6    803    0    0    0
C 363.45493833 -5.47902734 -61.66670075     1    803   807   808   809
H 361.83116590 -6.61487797 -62.15891535     6    806    0    0    0
H 365.01833130 -6.78586634 -62.09650663     6    806    0    0    0
H 363.63067293 -3.92906877 -62.92917496     6    806    0    0    0
H 354.12915403 18.22884881 -19.73287181     6     811    0    0    0 
C 352.11328872 17.70991571 -19.84740278     1     810    812    813    814
H 351.17017030 18.16602378 -18.04435556     6     811    0    0    0
H 351.32085753 18.95459330 -21.32792479     6     811    0    0    0
C 352.16659235 14.84910496 -20.43698797     2     811    815    816    817
H 353.30978986 15.16234297 -22.12324654     6     814    0    0    0
H 353.12554700 13.91206764 -18.98598812     6     814    0    0    0
C 349.58713558 13.96081853 -21.15839797     2     814    818   819   820
H 348.39276028 13.83744259 -19.54289399     6     817    0    0    0
H 348.47306076 15.28213985 -22.34549211     6     817    0    0    0
C 349.65871647 11.52691213 -22.53523528     2     817   821   822   823
H 350.25677541 12.03778172 -24.46052155     6    820    0    0    0
H 351.20951594 10.24424865 -21.89625855     6    820    0    0    0
C 347.35321764 9.73740803 -22.62055623     2    820   824   825   826
H 346.90656804 9.24609054 -20.69707123     6    823    0    0    0
H 345.74140877 10.88999592 -23.30686417     6    823    0    0    0
C 347.70575449 7.40704030 -24.31310929     2    823   827   828   829
H 347.72201193 8.03591751 -26.29996456     6    826    0    0    0
H 349.43839751 6.49854550 -24.06547311     6    826    0    0    0
C 345.70515360 5.42686587 -23.54956065     2    826   830   831   832
H 345.64534630 5.37276957 -21.58398443     6    829    0    0    0
H 343.75325331 6.00054757 -24.19079300     6    829    0    0    0
C 346.36114134 2.83944217 -24.54494709     2    829   833   834   835
H 346.82842311 2.95271409 -26.38020710     6    832    0    0    0
H 348.03949545 2.13999077 -23.58777936     6    832    0    0    0
C 344.03832090 1.07981699 -24.11406333     2    832   836   837   838
H 343.89892067 0.56020699 -22.12698771     6    835    0    0    0
H 342.25827357 2.17424949 -24.46642606     6    835    0    0    0
C 344.19785087 -1.20146068 -25.59675634     2    835   839   840   841
H 344.36288302 -0.91651835 -27.60941704     6    838    0    0    0
H 345.80646616 -2.30926755 -24.97963039     6    838    0    0    0
C 341.83787350 -2.80098816 -25.16274858     2    838   842   843   844
H 341.95846566 -3.69566871 -23.31411285     6    841    0    0    0
H 340.31227173 -1.32637334 -25.31689804     6    841    0    0    0
C 341.53611272 -4.63800256 -27.20271104     1    841   845   846   847
H 341.52688030 -3.85592800 -29.07481932     6    844    0    0    0
H 339.77962527 -5.69346652 -26.98109082     6    844    0    0    0
H 343.25098463 -5.94864769 -27.02979387     6    844    0    0    0
H 382.92287964 21.11602090 -17.73943437     6     849    0    0    0 
C 384.01593883 20.89077590 -16.00245514     1     848    850    851    852
H 385.94032398 20.18318729 -16.32605669     6     849    0    0    0
H 384.41128498 22.74852131 -14.97920862     6     849    0    0    0
C 382.41487691 19.04237361 -14.45810901     2     849    853    854    855
H 382.48595806 17.07244231 -15.17440859     6     852    0    0    0
H 383.09315383 18.89572765 -12.55044996     6     852    0    0    0
C 379.90083887 20.30983773 -14.20139220     2     852    856   857   858
H 379.96429384 22.17986519 -13.50580408     6     855    0    0    0
H 379.20222718 20.68454113 -16.10935141     6     855    0    0    0
C 377.96182977 18.94287099 -12.49436297     2     855   859   860   861
H 377.84560030 16.83918625 -12.93013552     6    858    0    0    0
H 378.82039334 18.93127546 -10.67408578     6    858    0    0    0
C 375.22511064 20.09960086 -12.18312887     2    858   862   863   864
H 375.24865794 22.25620347 -12.27958089     6    861    0    0    0
H 374.09812567 19.44091590 -13.82684937     6    861    0    0    0
C 374.10148816 19.08780825 -9.73741107     2    861   865   866   867
H 374.63645401 17.04779518 -9.54256633     6    864    0    0    0
H 375.17345320 20.04074277 -8.19222439     6    864    0    0    0
C 371.23417990 19.60348737 -9.76353243     2    864   868   869   870
H 370.70383767 21.57671028 -10.17139919     6    867    0    0    0
H 370.29007555 18.44964304 -11.24078131     6    867    0    0    0
C 369.81997776 18.73319686 -7.41095717     2    867   871   872   873
H 370.00870293 16.64207359 -6.98955805     6    870    0    0    0
H 370.57356339 19.88914513 -5.89632148     6    870    0    0    0
C 366.89266054 19.12724877 -7.75646255     2    870   874   875   876
H 366.39838799 21.07726088 -8.15474291     6    873    0    0    0
H 366.09065153 17.94180326 -9.28188643     6    873    0    0    0
C 365.32095153 18.38469021 -5.46613600     2    873   877   878   879
H 365.47726903 16.32654286 -5.18640400     6    876    0    0    0
H 366.29483146 19.10125398 -3.77286994     6    876    0    0    0
C 362.47568125 19.12175125 -5.90734555     2    876   880   881   882
H 362.08669743 21.16681840 -5.62048365     6    879    0    0    0
H 361.75075058 18.55871496 -7.81606724     6    879    0    0    0
C 360.88853222 17.44676378 -3.88074462     1    879   883   884   885
H 361.02964109 17.90178641 -1.82657661     6    882    0    0    0
H 361.58525349 15.53575162 -3.99107129     6    882    0    0    0
H 359.08367461 17.38136886 -4.48666175     6    882    0    0    0
H 353.86418074 0.96290956 -21.21044585     6     887    0    0    0 
C 355.90106127 1.06168000 -20.91530076     1     886    888    889    890
H 356.58262936 2.15770916 -19.30829836     6     887    0    0    0
H 356.73486235 -0.81411078 -20.73575472     6     887    0    0    0
C 356.54344503 2.49142243 -23.45082115     2     887    891    892    893
H 358.55155848 2.58837712 -23.50178596     6     890    0    0    0
H 355.92499116 1.25141396 -24.98610927     6     890    0    0    0
C 355.38955350 5.05858132 -23.72689704     2     890    894   895   896
H 353.33657927 4.88900035 -23.64159744     6     893    0    0    0
H 355.79787440 6.28547642 -22.19230528     6     893    0    0    0
C 356.43576492 6.20901698 -26.14042311     2     893   897   898   899
H 358.45469113 6.43630448 -26.15482619     6    896    0    0    0
H 355.76555858 5.40527003 -27.93776027     6    896    0    0    0
C 355.71187528 8.95968232 -26.24865141     2    896   900   901   902
H 353.67080323 9.36330978 -26.21712338     6    899    0    0    0
H 355.96310322 9.81255351 -24.47885180     6    899    0    0    0
C 356.99886894 10.50707834 -28.46760835     2    899   903   904   905
H 359.01694916 10.28908302 -28.24350637     6    902    0    0    0
H 356.43355488 9.61131082 -30.24406590     6    902    0    0    0
C 356.52347670 13.33268495 -28.62250882     2    902   906   907   908
H 357.35220464 13.91142120 -30.33077212     6    905    0    0    0
H 354.46686696 13.45735351 -28.59347274     6    905    0    0    0
C 357.64035578 14.68565140 -26.40922056     2    905   909   910   911
H 356.87929531 13.78643764 -24.73884995     6    908    0    0    0
H 359.70962538 14.38125737 -26.65450254     6    908    0    0    0
C 357.09088667 17.55864142 -26.47490999     2    908   912   913   914
H 357.49502411 18.54169202 -28.30017877     6    911    0    0    0
H 355.08015092 17.97652401 -26.18908783     6    911    0    0    0
C 358.34344388 19.19915103 -24.41961959     2    911   915   916   917
H 358.49181799 17.91469882 -22.74084723     6    914    0    0    0
H 360.29568787 19.41108707 -24.73875173     6    914    0    0    0
C 356.86143292 21.69176961 -23.98586373     2    914   918   919   920
H 356.88379044 22.94453038 -25.65855690     6    917    0    0    0
H 354.95102691 21.35450179 -23.32290879     6    917    0    0    0
C 357.92807162 23.33761234 -21.65753376     1    917   921   922   923
H 357.53947692 25.30048160 -21.77605059     6    920    0    0    0
H 359.97445016 23.29927385 -21.79156025     6    920    0    0    0
H 357.15854727 22.52725095 -19.81726795     6    920    0    0    0
H 380.45647506 2.70807858 -23.80241162     6     925    0    0    0 
C 379.31480422 1.80942664 -22.29563173     1     924    926    927    928
H 377.64015398 3.08053526 -22.23870685     6     925    0    0    0
H 378.45421425 0.11060532 -23.05528682     6     925    0    0    0
C 380.60925478 1.56000341 -19.68205320     2     925    929    930    931
H 382.23613491 0.38013232 -20.09843579     6     928    0    0    0
H 381.24387896 3.33033981 -18.63613271     6     928    0    0    0
C 378.93949427 -0.17550632 -17.99951211     2     928    932   933   934
H 378.67572391 -1.96923206 -18.88675648     6     931    0    0    0
H 380.03950321 -0.56344617 -16.24212008     6     931    0    0    0
C 376.44915979 0.93410535 -17.47960361     2     931   935   936   937
H 376.44591659 2.60971227 -16.25510565     6    934    0    0    0
H 375.16109927 1.38939585 -19.14409166     6    934    0    0    0
C 374.87092201 -1.26653575 -16.07865337     2    934   938   939   940
H 375.11305184 -3.08853673 -17.00010550     6    937    0    0    0
H 375.69067372 -1.78847702 -14.22371823     6    937    0    0    0
C 371.98151713 -0.84937082 -15.69735435     2    937   941   942   943
H 371.11152301 -0.64631869 -17.52751629     6    940    0    0    0
H 371.35131197 -2.69045744 -14.86921892     6    940    0    0    0
C 371.27083736 1.43929156 -14.05674574     2    940   944   945   946
H 372.49928579 1.41543927 -12.44415532     6    943    0    0    0
H 371.55145020 3.25910728 -14.99373815     6    943    0    0    0
C 368.41557128 0.71735449 -13.33909329     2    943   947   948   949
H 367.39703292 0.49493958 -15.14668107     6    946    0    0    0
H 368.34353467 -1.08497925 -12.25129416     6    946    0    0    0
C 367.18848006 2.85904335 -11.89408539     2    946   950   951   952
H 368.12353011 3.23787729 -10.01486657     6    949    0    0    0
H 367.26716510 4.55878354 -12.97375888     6    949    0    0    0
C 364.47622822 2.22556597 -11.10256829     2    949   953   954   955
H 363.29503698 1.89425130 -12.79943134     6    952    0    0    0
H 364.58271453 0.43194091 -10.17735001     6    952    0    0    0
C 363.19518628 4.05762544 -9.41284412     2    952   956   957   958
H 361.64625555 3.30150235 -8.28448478     6    955    0    0    0
H 364.47513697 4.65715875 -7.89773798     6    955    0    0    0
C 362.15765537 6.33467929 -10.75333973     1    955   959   960   961
H 361.53708412 7.66632308 -9.29463504     6    958    0    0    0
H 360.64598051 5.74040184 -12.08102501     6    958    0    0    0
H 363.61598541 7.23543750 -11.97586314     6    958    0    0    0
H 343.96940518 15.87851941 -38.86852180     6     963    0    0    0 
C 345.48799165 14.70797617 -38.20789117     1     962    964    965    966
H 346.64102370 15.86941948 -36.92307803     6     963    0    0    0
H 344.29731482 13.24739086 -36.99786939     6     963    0    0    0
C 346.90836425 13.34214787 -40.34607948     2     963    967    968    969
H 347.85761701 11.66958145 -39.75485283     6     966    0    0    0
H 345.43174125 12.60678035 -41.77108024     6     966    0    0    0
C 348.85685193 15.19288196 -41.60163454     2     966    970   971   972
H 348.15151080 17.15177577 -41.61886665     6     969    0    0    0
H 350.35779439 15.43917521 -40.20072857     6     969    0    0    0
C 349.70250851 14.40158177 -44.28348689     2     969   973   974   975
H 349.85302003 12.36663901 -44.39996737     6    972    0    0    0
H 348.11777852 14.84662259 -45.48620825     6    972    0    0    0
C 352.01536772 15.64722001 -45.22393338     2    972   976   977   978
H 351.29728476 17.68069287 -45.35431588     6    975    0    0    0
H 353.46552546 15.22258179 -43.81145090     6    975    0    0    0
C 352.66615420 14.78791791 -47.90673249     2    975   979   980   981
H 353.46628851 12.89460188 -47.95644145     6    978    0    0    0
H 351.10263245 14.50207800 -49.11837510     6    978    0    0    0
C 354.28144233 16.74861832 -49.12889597     2    978   982   983   984
H 353.24128860 18.52510529 -49.15843221     6    981    0    0    0
H 355.75861948 16.95653835 -47.84413999     6    981    0    0    0
C 355.24581660 15.90515536 -51.68377674     2    981   985   986   987
H 356.47063354 14.25229023 -51.28775365     6    984    0    0    0
H 353.76400688 15.09486427 -52.93921984     6    984    0    0    0
C 356.63696676 18.05005313 -53.20947191     2    984   988   989   990
H 356.84179990 17.55369793 -55.08958151     6    987    0    0    0
H 355.24328030 19.66506480 -53.20039691     6    987    0    0    0
C 359.12132750 18.99527887 -51.97780980     2    987   991   992   993
H 358.55278544 19.43084594 -50.02476228     6    990    0    0    0
H 360.46061014 17.36937421 -51.94978210     6    990    0    0    0
C 359.97193826 21.23010426 -53.72257849     2    990   994   995   996
H 359.91401979 20.78474473 -55.71615938     6    993    0    0    0
H 358.83152331 22.80255818 -53.62966739     6    993    0    0    0
C 362.64505287 22.08746666 -53.08724751     1    993   997   998   999
H 364.07540242 20.67596456 -53.37375609     6    996    0    0    0
H 363.12611700 22.54599754 -51.18464779     6    996    0    0    0
H 363.20419438 23.89550228 -53.99488253     6    996    0    0    0
H 334.55276499 16.78539117 -36.20547207     6     1001    0    0    0 
C 334.89267950 18.74206803 -35.58884159     1     1000    1002    1003    1004
H 333.56274399 20.02174907 -36.48331733     6     1001    0    0    0
H 334.75886679 18.67245852 -33.54605266     6     1001    0    0    0
C 337.65782610 19.54066171 -36.17929625     2     1001    1005    1006    1007
H 337.62435167 21.50967472 -35.87282483     6     1004    0    0    0
H 339.17850800 18.46479621 -35.15773931     6     1004    0    0    0
C 338.43824333 19.16587206 -38.84906428     2     1004    1008   1009   1010
H 338.42613346 17.19400568 -39.22421129     6     1007    0    0    0
H 336.90085425 19.94101768 -39.95130511     6     1007    0    0    0
C 341.06917007 20.39318484 -39.26278347     2     1007   1011   1012   1013
H 340.80361263 22.31743305 -38.79723664     6    1010    0    0    0
H 342.48467683 19.66243949 -37.89226237     6    1010    0    0    0
C 342.03030656 20.17877052 -41.96904673     2    1010   1014   1015   1016
H 342.67636224 18.12310531 -42.39271170     6    1013    0    0    0
H 340.44185880 20.73635576 -43.28273651     6    1013    0    0    0
C 344.35377095 21.80995980 -42.58280350     2    1013   1017   1018   1019
H 343.85919979 23.69465402 -42.10920443     6    1016    0    0    0
H 345.79580638 21.35584189 -41.39478538     6    1016    0    0    0
C 345.20250158 21.63675257 -45.27695375     2    1016   1020   1021   1022
H 345.37198369 19.63913191 -45.60194760     6    1019    0    0    0
H 343.86153928 22.26437890 -46.71094406     6    1019    0    0    0
C 347.80213470 22.84354265 -45.83456789     2    1019   1023   1024   1025
H 348.98115474 22.58527298 -44.23643612     6    1022    0    0    0
H 348.79720893 22.11610674 -47.47975285     6    1022    0    0    0
C 347.26942932 25.70496750 -46.03839010     2    1022   1026   1027   1028
H 345.73546718 25.81554149 -47.46550629     6    1025    0    0    0
H 346.45377302 26.54660598 -44.38309997     6    1025    0    0    0
C 349.54136736 27.09900435 -47.23895716     2    1025   1029   1030   1031
H 351.27514505 26.77788194 -46.08705048     6    1028    0    0    0
H 350.01185845 26.46221281 -49.20857280     6    1028    0    0    0
C 348.76443287 29.85983005 -47.61186546     2    1028   1032   1033   1034
H 347.11287163 30.15592511 -48.82964007     6    1031    0    0    0
H 348.36661249 30.73406225 -45.80151205     6    1031    0    0    0
C 350.92594131 31.46538487 -48.67148275     1    1031   1035   1036   1037
H 350.49439981 33.42479891 -48.78079543     6    1034    0    0    0
H 351.30197041 31.03024637 -50.59694184     6    1034    0    0    0
H 352.74836479 31.28988942 -47.66986213     6    1034    0    0    0
H 351.51737179 -3.92764345 -40.74330195     6     1039    0    0    0 
C 352.70255708 -5.22812722 -39.77101185     1     1038    1040    1041    1042
H 352.52622329 -6.89132936 -41.03878827     6     1039    0    0    0
H 354.58774853 -4.78192723 -40.09054505     6     1039    0    0    0
C 352.04607646 -5.68867993 -36.95603910     2     1039    1043    1044    1045
H 353.31831183 -4.51629377 -35.85854405     6     1042    0    0    0
H 350.13650179 -5.16339062 -36.63353399     6     1042    0    0    0
C 352.70896511 -8.31886461 -36.16497587     2     1042    1046   1047   1048
H 351.46378438 -9.63251583 -36.94213735     6     1045    0    0    0
H 354.74155859 -8.85334348 -36.82354824     6     1045    0    0    0
C 352.58766143 -8.43805169 -33.13154112     2     1045   1049   1050   1051
H 354.13070981 -7.35075097 -32.39847664     6    1048    0    0    0
H 350.75628603 -7.71025313 -32.53834506     6    1048    0    0    0
C 352.54696284 -11.34177623 -32.40885380     2    1048   1052   1053   1054
H 350.92058115 -12.28548532 -33.15769720     6    1051    0    0    0
H 354.44219821 -12.17256808 -33.24124618     6    1051    0    0    0
C 352.63934118 -11.75364467 -29.66217274     2    1051   1055   1056   1057
H 354.18139324 -10.83068775 -28.69563699     6    1054    0    0    0
H 350.88372103 -11.08259044 -29.00526319     6    1054    0    0    0
C 352.54588553 -14.45752528 -28.62762663     2    1054   1058   1059   1060
H 351.61379759 -15.60098202 -30.08407496     6    1057    0    0    0
H 354.45078142 -15.02097579 -28.51239941     6    1057    0    0    0
C 351.43625657 -14.75369177 -25.95328489     2    1057   1061   1062   1063
H 352.45373664 -13.73786912 -24.57603332     6    1060    0    0    0
H 349.64439220 -13.73560080 -25.62404557     6    1060    0    0    0
C 351.39969378 -17.54647086 -24.98789976     2    1060   1064   1065   1066
H 349.76821457 -18.51956110 -25.92198345     6    1063    0    0    0
H 353.03248586 -18.72773418 -25.55482258     6    1063    0    0    0
C 350.89135054 -17.85495436 -22.01528165     2    1063   1067   1068   1069
H 352.59108338 -16.96219785 -21.03432056     6    1066    0    0    0
H 349.19514474 -16.82516892 -21.36556574     6    1066    0    0    0
C 350.67692206 -20.57621028 -21.17903903     2    1066   1070   1071   1072
H 349.05037280 -21.30894198 -22.14543124     6    1069    0    0    0
H 352.28041081 -21.71786627 -21.80658340     6    1069    0    0    0
C 350.43681273 -20.94838758 -18.28745766     1    1069   1073   1074   1075
H 350.85202391 -22.88779945 -17.57999524     6    1072    0    0    0
[...]
 1803      H     380.0079090800    -6.4547536100   -36.9048308000
 1804      H     380.5055101500    -8.3295789000   -34.0967074200
 1805      C     379.4169599600    -4.6437787600   -33.0472612400
 1806      H     380.2876871900    -4.7618564200   -31.1437643000
 1807      H     379.4307015100    -2.9168388700   -33.9062608600
 1808      C     376.6879058100    -5.4646242900   -32.4067014500
 1809      H     375.5269171400    -5.7181717100   -34.1560005500
 1810      H     376.6290761400    -7.1647939300   -31.0851164400
 1811      C     375.3702784600    -3.4585087800   -30.7954131200
 1812      H     376.4055726600    -3.4787715000   -29.0379537200
 1813      H     375.6964049600    -1.6841084100   -31.9645415400
 1814      C     372.5105894100    -4.0045523300   -30.1166454400
 1815      H     371.3992471900    -4.0932793400   -31.7647530100
 1816      H     372.2143967000    -5.7588216300   -29.2065730900
 1817      C     371.0359309700    -1.9365782300   -28.6111382600
 1818      H     371.7847549000    -1.8673571200   -26.5837032100
 1819      H     371.5362651700    -0.2509251600   -29.5597092700
 1820      C     368.1451843700    -2.0546334700   -28.6865654300
 1821      H     367.4419593100    -1.9626457800   -30.6071013700
 1822      H     367.6746965800    -3.9639005900   -28.0239314200
 1823      C     366.7515329900    -0.0059904200   -27.2539544100
 1824      H     367.9393243000     1.5784723900   -27.6196857100
 1825      H     364.7836234600     0.2204434200   -28.0322915900
 1826      C     366.7743158000    -0.3989051600   -24.3236284800
 1827      H     365.9926522700    -2.2279561500   -23.9659641600
 1828      H     368.5685363400    -0.2603375500   -23.5628225500
 1829      C     364.9660562800     1.3561547000   -23.0479993900
 1830      H     365.5509709100     3.3775876100   -23.3403339700
 1831      H     363.2468085900     1.2147396100   -24.1312109800
 1832      C     364.4553296100     1.1313190100   -20.2997138800
 1833      H     366.1059423100     0.4390548100   -19.4070363500
 1834      H     363.0873164500    -0.4499599900   -20.1781896700
 1835      H     363.5055730100     2.8061665100   -19.5816290000
 1836      H     366.0706367800     5.5387097500   -30.6410041400
 1837      C     365.8603899500     7.4821710300   -29.9893653300
 1838      H     366.7136056200     8.6536261100   -31.5878083000
 1839      H     363.8261762000     7.5862512900   -30.0087494400
 1840      C     367.1331420500     7.8166950400   -27.4943750600
 1841      H     366.4438450500     9.6615933400   -27.0618204900
 1842      H     366.2681420700     6.3077224300   -26.2149959100
 1843      C     370.0481223900     7.6716426300   -27.0760846400
 1844      H     370.8587006300     6.2777367200   -28.2162268300
 1845      H     370.9899403900     9.5562131900   -27.5307811500
 1846      C     370.7688596500     7.2599324900   -24.4594435300
 1847      H     369.8823302700     8.7694225100   -23.1375970700
 1848      H     370.1569839600     5.4444885000   -23.7315242900
 1849      C     373.5278745600     7.1776357200   -23.7998390400
 1850      H     374.2985915500     5.4222099100   -24.4058463300
 1851      H     374.4658061200     8.6926232200   -24.8855248000
 1852      C     373.8079517600     7.8845982100   -20.9422959500
 1853      H     371.9458249700     7.4269894000   -19.9811122000
 1854      H     375.2530976400     6.7177298600   -20.0423054900
 1855      C     374.3665191800    10.6432431800   -20.6681480400
 1856      H     376.1028265700    11.1358731100   -21.7481253900
 1857      H     372.8397720700    11.6822410700   -21.5556694100
 1858      C     374.3802624700    11.5979513200   -17.8181143100
 1859      H     374.5003266100    13.6588824900   -17.8334979100
 1860      H     372.5318209100    11.1461883400   -17.1843296500
 1861      C     376.3670976100    10.4102382700   -16.1812678000
 1862      H     376.2303334000     8.3708315200   -16.3128742700
 1863      H     378.2853382600    11.0939912400   -16.8738666700
 1864      C     375.7733330700    10.7911257500   -13.3539045700
 1865      H     374.9888730200    12.6001623700   -13.0499298900
 1866      H     374.4231026900     9.5445069700   -12.5009908800
 1867      C     378.3870516300    10.7550498100   -11.9030662300
 1868      H     379.3387685500     8.9148939500   -12.1125319500
 1869      H     379.5665536900    12.1387005100   -12.8685567300
 1870      C     378.0939045200    11.0689321400    -9.0696824200
 1871      H     379.8934515800    11.3361844000    -8.2516782700
 1872      H     376.9260777200     9.5790341900    -8.1932148500
 1873      H     377.3062922600    12.9262585400    -8.5902384000
 1874      H     379.5018947000    16.7979508800   -52.0844003500
 1875      C     378.4928126800    15.1210166300   -52.2957601300
 1876      H     378.4316045800    14.7861608100   -54.3990508800
 1877      H     379.4256136400    13.8713101300   -51.2304611600
 1878      C     375.7827428100    15.3313157800   -51.2482511400
 1879      H     375.9667209100    16.4677814200   -49.4649653200
 1880      H     374.6423484600    16.3969668600   -52.6080988100
 1881      C     374.4750842800    12.8847812000   -50.7477357400
 1882      H     374.0362008300    11.6788667600   -52.4650812600
 1883      H     375.7361921400    11.8713513800   -49.6692179200
 1884      C     372.0304112900    13.3172473300   -49.3690200300
 1885      H     372.4830360300    13.6884272000   -47.3518646300
 1886      H     371.0099007300    14.8610375800   -50.0208181000
 1887      C     370.1002606400    11.2694528000   -49.7107936500
 1888      H     369.5522912700    10.8307006500   -51.6366336500
 1889      H     370.8110112000     9.5391380200   -48.9512373100
 1890      C     367.6232610300    11.9187507400   -48.5942333800
 1891      H     367.7110970900    12.5809970700   -46.6194678100
 1892      H     366.8901290900    13.5090712400   -49.6977814400
 1893      C     365.7090005200     9.7426174400   -48.9544803200
 1894      H     365.9809195500     8.9556555900   -50.7315239600
 1895      H     366.1777159000     8.2033157200   -47.5543182500
 1896      C     362.9347439100    10.4698041500   -48.6983289000
 1897      H     362.5939877700    11.6526764400   -47.0636542500
 1898      H     362.1937627800    11.6254452800   -50.2338893000
 1899      C     361.1783267700     8.1273687000   -48.2755295300
 1900      H     361.6075194900     6.4824372000   -49.3940357700
 1901      H     361.4876243200     7.4635639100   -46.3251917800
 1902      C     358.3067826200     8.8929370900   -48.2955301600
 1903      H     357.8578810900    10.2598284200   -46.7220127400
 1904      H     358.0500808800    10.0609945700   -49.9962709400
 1905      C     356.5131159500     6.5582306900   -48.2450804300
 1906      H     357.5213693500     5.0257223500   -49.0694783100
 1907      H     356.2207576600     6.0808887200   -46.2655376400
 1908      C     353.9934608900     7.4036695700   -49.5604566800
 1909      H     354.1804152100     7.6043054700   -51.5826861900
 1910      H     353.0929922300     8.9491093400   -48.6620126000
 1911      H     352.7105076200     5.7209884100   -49.5337661700
 ----------------------------------------------------------------
 Nuclear Repulsion Energy =           0.00000000 hartrees
 There are     2498 alpha and     2498 beta electrons

 Total QAlloc Memory Limit   2000 MB
 Mega-Array Size       204 MB
 MEM_STATIC part       192 MB
   **** Step 1: MM calculation on the entire system **** 
 OPLSAA force field loaded.
Reading user-defined FF parameters...
 Reading user defined atom types.
 Found 3 user defined AtomTypes
finished.
Determining angles, torsions, etc. from user defined input
Determining VDW/Coulomb pairs... (useList = 0)

 Time req'd to get MM system information: 0.2 s (CPU) 0.3 s (wall)

 ------ MM Energies ------
   Ebond:           577.047281226303
   Eangle:          872.616851155230
   EUreyBrad:         0.000000000000
   Eimptors:          0.000000000000
   Etorsion:        242.954764445249
   Evdw:        1107343.092941848561
   Ecoulomb:        182.641506050372
   Etot:        1109218.353344725911 Kcal/mol (   1767.651971175947 hartree)
 -------------------------
 Time req'd to calc MM energy: 0.1 s (CPU) 0.1 s (wall)
 OPLSAA force field loaded.
Reading user-defined FF parameters...
 Reading user defined atom types.
 Found 3 user defined AtomTypes
finished.
 Time req'd to get MM system information: 0.0 s (CPU) 0.3 s (wall)
 Time req'd to calc MM gradient: 0.2 s (CPU) 0.2 s (wall)
   **** Step 2: MM calculation on the model system **** 
 Reading user defined atom types.
 Found 3 user defined AtomTypes
 ----------------------------------------------------------------
             Standard Nuclear Orientation (Bohr)
    I     Atom           X                Y                Z
 ----------------------------------------------------------------
    1      Fe    362.0742801800    11.6957854900   -40.2305923300
    2      C     359.9747741800    13.1300516000   -42.4466163300
    3      C     365.2014949900    10.9612798400   -41.5239195200
    4      C     363.3988513900    14.8266331300   -39.4276121200
    5      C     361.3755662100    11.0057175600   -36.9998712200
    6      C     360.5546178300     8.9590523700   -41.1498339400
    7      O     358.5448637500    14.0555971700   -43.8013078200
    8      O     367.1548110000    10.4383276600   -42.4934282700
    9      O     364.2700786100    16.8136850800   -39.0053315600
   10      O     360.9849582200    10.2681175500   -34.9562832300
   11      O     359.3983833800     7.3550968600   -42.0760140200
 ----------------------------------------------------------------
 Nuclear Repulsion Energy =         804.08156102 hartrees
 There are       48 alpha and       48 beta electrons
 OPLSAA force field loaded.
Reading user-defined FF parameters...
 Reading user defined atom types.
 Found 3 user defined AtomTypes
finished.
Determining VDW/Coulomb pairs... (useList = 0)

 No MM bonds in system. Return all possible pairs.
 Time req'd to get MM system information: 0.0 s (CPU) 0.0 s (wall)

 ------ MM Energies ------
   Ebond:             0.000000000000
   Eangle:            0.000000000000
   EUreyBrad:         0.000000000000
   Eimptors:          0.000000000000
   Etorsion:          0.000000000000
   Evdw:        1107776.475781384856
   Ecoulomb:         -6.461656103140
   Etot:        1107770.014125281712 Kcal/mol (   1765.343895702383 hartree)
 -------------------------
 Eold: 1767.6519712 mm_energy: 1765.3438957 Enew:    2.3080755
 Time req'd to calc MM energy: 0.0 s (CPU) 0.0 s (wall)
 OPLSAA force field loaded.
Reading user-defined FF parameters...
 Reading user defined atom types.
 Found 3 user defined AtomTypes
finished.
Determining VDW/Coulomb pairs... (useList = 0)

 No MM bonds in system. Return all possible pairs.
 Time req'd to get MM system information: 0.0 s (CPU) 0.0 s (wall)
 Number of fixed atoms: 0
 Time req'd to calc MM gradient: 0.0 s (CPU) 0.0 s (wall)
   **** Step 3: QM calculation on the model system **** 
 Requested basis set is def2-mSVP
 There are 80 shells and 174 basis functions

                       Distance Matrix (Bohrs)
             Fe(  1)   C (  2)   C (  3)   C (  4)   C (  5)   C (  6)
   C (  2)  3.372804
   C (  3)  3.462899  5.733546
   C (  4)  3.493061  4.870018  4.752366
   C (  5)  3.376678  6.011825  5.925092  4.958528
   C (  6)  3.262528  4.406257  5.073689  6.744199  4.699466
   O (  7)  5.547567  2.176343  7.685834  6.579127  7.973342  6.086394
   O (  8)  5.702054  7.668148  2.242514  6.539395  7.993796  6.896090
   O (  9)  5.702253  6.622782  6.439058  2.210369  6.792095  8.949793
   O ( 10)  5.571642  8.081846  7.835401  6.826399  2.207460  6.344991
   O ( 11)  5.422876  5.815469  6.854595  8.879281  6.557706  2.183429
             O (  7)   O (  8)   O (  9)   O ( 10)
   O (  8)  9.430078
   O (  9)  7.961565  7.818803
   O ( 10)  9.926405  9.741900  8.368468
   O ( 11)  6.971502  8.357195 11.073725  7.854519

 A cutoff of  1.0D-11 yielded   2505 shell pairs
 There are     12905 function pairs (     14771 Cartesian)
 Smallest overlap matrix eigenvalue = 2.40E-03
 Guess MOs from SCF MO coefficient file
 Reading MOs from coefficient file
 Reading MOs from coefficient file
 A restricted Kohn-Sham SCF calculation will be
 performed using Pulay DIIS extrapolation
 Exchange:  B88      Correlation:  P86
 Using SG-1 standard quadrature grid
 SCF converges when DIIS error is below 1.0E-08
 Using Q-Chem read-in guess as SCF_GUESS READ specified.

 using 2 threads for integral computing
 -------------------------------------------------------
 OpenMP Integral computing Module                
 Release: version 1.0, May 2013, Q-Chem Inc. Pittsburgh 
 -------------------------------------------------------
 ---------------------------------------
  Cycle       Energy         DIIS Error
 ---------------------------------------
    1   -1830.5207790069      5.86E-10
    2   -1830.5207790057      1.82E-09 Convergence criterion met
 ---------------------------------------
 SCF time:  CPU 2.72 s  wall 1.42 s
 E(QM + QM/MM):    -1830.5207790057 E(MM):    2.3080755 E(Tot): -1828.212703532139 
 SCF   energy in the final basis set = -1828.21270353
 Total energy in the final basis set = -1828.21270353

 --------------------------------------------------------------

                    Orbital Energies (a.u.)
 --------------------------------------------------------------

 Alpha MOs
 -- Occupied --
******** -29.6366 -25.5961 -25.5834 -25.5801 -18.8944 -18.8793 -18.8778
-18.8762 -18.8730 -10.0636 -10.0475 -10.0464 -10.0450 -10.0406  -3.3227
 -2.1591  -2.1342  -2.1256  -1.0627  -1.0600  -1.0576  -1.0437  -1.0357
 -0.5785  -0.5310  -0.5200  -0.5171  -0.5130  -0.4589  -0.4505  -0.4398
 -0.4368  -0.4346  -0.4293  -0.4262  -0.4207  -0.4143  -0.4090  -0.4051
 -0.4039  -0.3986  -0.3951  -0.3791  -0.2820  -0.2749  -0.2349  -0.2257
 -- Virtual --
 -0.0966  -0.0920  -0.0898  -0.0789  -0.0731  -0.0698  -0.0587  -0.0574
 -0.0523  -0.0337  -0.0177   0.0113   0.1885   0.2150   0.2216   0.2593
  0.3014   0.3254   0.3494   0.3996   0.4056   0.4135   0.4340   0.4342
  0.4515   0.4773   0.4971   0.5107   0.5225   0.5571   0.5673   0.5865
  0.6015   0.6241   0.6336   0.6540   0.7401   0.7544   0.7587   0.7710
  0.7804   0.8309   0.8337   0.8528   0.8948   0.9164   0.9422   0.9552
  0.9740   0.9783   0.9879   0.9959   1.0171   1.0267   1.0395   1.0514
  1.2072   1.2648   1.2889   1.3113   1.3969   1.4092   1.4123   1.4147
  1.4177   1.4185   1.4234   1.4342   1.4547   1.4640   1.4686   1.4883
  1.5229   1.5321   1.5542   1.5875   1.6060   1.6460   1.6486   1.6821
  1.7045   1.8200   1.8297   1.8320   1.8380   1.8450   1.8477   1.8545
  1.8633   1.8653   1.8705   1.8864   1.8931   1.9059   1.9469   1.9533
  2.3717   2.4103   2.4182   2.4474   2.4568   2.4642   2.4746   2.4866
  2.5049   2.5143   2.6440   2.6466   2.6572   2.6742   2.6894   2.8200
  2.8221   2.8943   2.9177   2.9674  13.2754  13.2893  13.3230  13.3774
 13.4638  24.9150  24.9366  24.9518  24.9588  25.0300
 --------------------------------------------------------------

          Ground-State Mulliken Net Atomic Charges

     Atom                 Charge (a.u.)
  ----------------------------------------
      1 Fe                   -0.462217
      2 C                     0.212425
      3 C                     0.239913
      4 C                     0.224256
      5 C                     0.210054
      6 C                     0.153812
      7 O                    -0.102264
      8 O                    -0.132104
      9 O                    -0.105235
     10 O                    -0.122905
     11 O                    -0.115735
  ----------------------------------------
  Sum of atomic charges =     0.000000

 -----------------------------------------------------------------
                    Cartesian Multipole Moments
 -----------------------------------------------------------------
    Charge (ESU x 10^10)
                -0.0000
    Dipole Moment (Debye)
         X       0.0107245869      Y       0.4445707525      Z       0.0445121945
       Tot       0.4469222597
    Quadrupole Moments (Debye-Ang)
        XX     -66.0407     XY      85.3016     YY     -63.1982
        XZ       8.4402     YZ      -8.9082     ZZ     -72.0539
    Octopole Moments (Debye-Ang^2)
       XXX  -39148.6821    XXY   15932.2541    XYY  -12106.9342
       YYY   -1233.5587    XXZ    3105.3458    XYZ   -1711.1646
       YYZ    1356.3479    XZZ  -13803.5714    YZZ    -255.7699
       ZZZ    4546.9248
    Hexadecapole Moments (Debye-Ang^3)
      XXXX ************   XXXY 2890354.6334   XXYY ************
      XYYY -236403.0776   YYYY  -16320.8764   XXXZ 1168656.7553
      XXYZ -319366.2127   XYYZ  259794.4847   YYYZ   26390.7254
      XXZZ ************   XYZZ  -48872.5162   YYZZ  -32019.0092
      XZZZ  871070.4866   YZZZ   24201.0170   ZZZZ -193667.6771
 -----------------------------------------------------------------
 Calculating MO derivatives via CPSCF
 Full subspace dimension requested for CIS/TDDFT
 MAX_CIS_SUBSPACE fits in available memory
    1     0    36    0.0389950  
    2     0    36    0.0061392  
    3     0    36    0.0006431  
    4     0    36    0.0000450  
    5    33     3    0.0000012  
    6    36     0    0.0000000  Converged
 Time for AOints: 6.4 s (CPU) 3.3 s (wall)
 ------------------------------------------------------------------------------
                     AOints        : Timing summary (seconds)
 ------------------------------------------------------------------------------
     job step          cpu (% of tot)      sys (% of tot)     wall (% of tot)
 ------------------------------------------------------------------------------
  AOints            0.6398E+01 ( 3.6)   0.1000E-04 (10.4)   0.3261E+01 ( 3.7)
 ------------------------------------------------------------------------------
   Grand Totals     0.1760E+03          0.9600E-04          0.8866E+02
 ------------------------------------------------------------------------------
 Polarizability Matrix (a.u.)
            1           2           3
    1 -90.2505496  -8.5493330  -1.8696132
    2  -8.5493331 -91.9103634  -0.8343670
    3  -1.8696132  -0.8343670 -89.6004683
 Derivative of Dipole Moment Matrix (a.u.)
            1           2           3
    1  -1.8807325   0.0327667   0.0092575
    2  -0.0594665  -1.9532901  -0.0610825
    3   0.0062360   0.0724240  -1.9392907
    4   1.2347710  -0.5802774   0.7936468
    5  -0.5355804   0.7108311  -0.5191933
    6   0.7914989  -0.5555619   1.2228261
    7   1.9058887  -0.4752711  -0.6039729
    8  -0.4117761   0.5094619   0.1679075
    9  -0.7504031   0.2033883   0.7397798
   10   0.6643415   0.6103219   0.1573915
   11   0.5763331   1.8738239   0.4087935
   12   0.1287707   0.3037701   0.5072057
   13   0.5198526   0.0817003  -0.3847114
   14   0.1418091   0.5737513  -0.5898920
   15  -0.3960913  -0.4550801   2.2043104
   16   0.9158376   0.7895155   0.2461617
   17   0.6539201   1.6305420   0.4306965
   18   0.3060729   0.5552121   0.6318941
   19  -0.8287589   0.4456605  -0.6392613
   20   0.4256758  -0.4164296   0.4146750
   21  -0.6191293   0.4177763  -0.7883458
   22  -1.3718438   0.3310050   0.4956239
   23   0.3241623  -0.2488962  -0.1281471
   24   0.6148154  -0.1550664  -0.4436562
   25  -0.3621712  -0.5200452  -0.1346428
   26  -0.4911460  -1.3320702  -0.3150910
   27  -0.1016359  -0.2438372  -0.2120951
   28  -0.2456803  -0.0605690   0.2879337
   29  -0.1066402  -0.2968815   0.5199020
   30   0.3063283   0.3609199  -1.5793911
   31  -0.5515047  -0.6548074  -0.2274266
   32  -0.5172912  -1.0508427  -0.3285687
   33  -0.2864626  -0.5039453  -0.3432373
 -----------------------------------------
 Net:  -0.00000  -0.00000  -0.00000
 -----------------------------------------

 Calculating analytic Hessian of the SCF energy
