                  Welcome to Q-Chem
     A Quantum Leap Into The Future Of Chemistry


 Q-Chem 5.4 (devel), Q-Chem, Inc., Pleasanton, CA (2021)

 E. Epifanovsky,  A. T. B. Gilbert,  Xintian Feng,  Joonho Lee,  Yuezhi Mao,  
 N. Mardirossian,  P. Pokhilko,  A. White,  M. Wormit,  M. P. Coons,  
 A. L. Dempwolff,  Zhengting Gan,  D. Hait,  P. R. Horn,  L. D. Jacobson,  
 I. Kaliman,  J. Kussmann,  A. W. Lange,  Ka Un Lao,  D. S. Levine,  Jie Liu,  
 S. C. McKenzie,  A. F. Morrison,  K. Nanda,  F. Plasser,  D. R. Rehn,  
 M. L. Vidal,  Zhi-Qiang You,  Ying Zhu,  B. Alam,  B. Albrecht,  
 A. Aldossary,  E. Alguire,  J. H. Andersen,  D. Barton,  K. Begam,  A. Behn,  
 Y. A. Bernard,  E. J. Berquist,  H. Burton,  A. Carreras,  K. Carter-Fenk,  
 R. Chakraborty,  A. D. Chien,  K. D. Closser,  V. Cofer-Shabica,  
 S. Dasgupta,  Jia Deng,  M. de Wergifosse,  M. Diedenhofen,  Hainam Do,  
 S. Ehlert,  Po-Tung Fang,  S. Fatehi,  Qingguo Feng,  T. Friedhoff,  
 J. Gayvert,  Qinghui Ge,  G. Gidofalvi,  M. Goldey,  J. Gomes,  
 C. Gonzalez-Espinoza,  S. Gulania,  A. Gunina,  M. W. D. Hanson-Heine,  
 P. H. P. Harbach,  A. W. Hauser,  M. F. Herbst,  M. Hernandez Vera,  
 M. Hodecker,  Z. C. Holden,  S. Houck,  Xunkun Huang,  Kerwin Hui,  
 B. C. Huynh,  M. Ivanov,  Hyunjun Ji,  Hanjie Jiang,  B. Kaduk,  S. Kaehler,  
 K. Khistyaev,  Jaehoon Kim,  P. Klunzinger,  Z. Koczor-Benda,  
 Joong Hoon Koh,  D. Kosenkov,  L. Koulias,  T. Kowalczyk,  C. M. Krauter,  
 K. Kue,  A. Kunitsa,  T. Kus,  A. Landau,  K. V. Lawler,  D. Lefrancois,  
 S. Lehtola,  Rain Li,  Yi-Pei Li,  Jiashu Liang,  M. Liebenthal,  
 Hung-Hsuan Lin,  You-Sheng Lin,  Fenglai Liu,  Kuan-Yu Liu,  
 M. Loipersberger,  A. Luenser,  A. Manjanath,  P. Manohar,  E. Mansoor,  
 S. F. Manzer,  Shan-Ping Mao,  A. V. Marenich,  T. Markovich,  S. Mason,  
 S. A. Maurer,  P. F. McLaughlin,  M. F. S. J. Menger,  J.-M. Mewes,  
 S. A. Mewes,  P. Morgante,  J. W. Mullinax,  K. J. Oosterbaan,  G. Paran,  
 Alexander C. Paul,  Suranjan K. Paul,  F. Pavosevic,  Zheng Pei,  S. Prager,  
 E. I. Proynov,  E. Ramos,  B. Rana,  A. E. Rask,  A. Rettig,  R. M. Richard,  
 F. Rob,  E. Rossomme,  T. Scheele,  M. Scheurer,  M. Schneider,  
 N. Sergueev,  S. M. Sharada,  W. Skomorowski,  D. W. Small,  C. J. Stein,  
 Yu-Chuan Su,  E. J. Sundstrom,  Zhen Tao,  J. Thirman,  T. Tsuchimochi,  
 N. M. Tubman,  S. P. Veccham,  O. Vydrov,  J. Wenzel,  J. Witte,  A. Yamada,  
 Kun Yao,  S. Yeganeh,  S. R. Yost,  A. Zech,  Igor Ying Zhang,  Xing Zhang,  
 Yu Zhang,  D. Zuev,  A. Aspuru-Guzik,  A. T. Bell,  N. A. Besley,  
 K. B. Bravaya,  B. R. Brooks,  D. Casanova,  Jeng-Da Chai,  S. Coriani,  
 C. J. Cramer,  A. E. DePrince, III,  R. A. DiStasio Jr.,  A. Dreuw,  
 B. D. Dunietz,  T. R. Furlani,  W. A. Goddard III,  S. Grimme,  
 S. Hammes-Schiffer,  T. Head-Gordon,  W. J. Hehre,  Chao-Ping Hsu,  
 T.-C. Jagau,  Yousung Jung,  A. Klamt,  Jing Kong,  D. S. Lambrecht,  
 WanZhen Liang,  N. J. Mayhall,  C. W. McCurdy,  J. B. Neaton,  
 C. Ochsenfeld,  J. A. Parkhill,  R. Peverati,  V. A. Rassolov,  Yihan Shao,  
 L. V. Slipchenko,  T. Stauch,  R. P. Steele,  J. E. Subotnik,  
 A. J. W. Thom,  A. Tkatchenko,  D. G. Truhlar,  T. Van Voorhis,  
 T. A. Wesolowski,  K. B. Whaley,  H. L. Woodcock III,  P. M. Zimmerman,  
 S. Faraji,  P. M. W. Gill,  M. Head-Gordon,  J. M. Herbert,  A. I. Krylov

 Additional authors for Version 5.4.1: 
 S. Kotaru,  Shaozhi Li,  Xiangyuan Li,  F. Matz,  A. Molle,  Haisheng Ren,  
 Yingli Su,  Hung-Yi Tsai,  C. Utku,  Fang Wang

 Contributors to earlier versions of Q-Chem not listed above: 
 R. D. Adamson,  B. Austin,  R. Baer,  J. Baker,  G. J. O. Beran,  
 K. Brandhorst,  S. T. Brown,  E. F. C. Byrd,  A. K. Chakraborty,  
 G. K. L. Chan,  Chun-Min Chang,  Yunqing Chen,  C.-L. Cheng,  
 Siu Hung Chien,  D. M. Chipman,  D. L. Crittenden,  H. Dachsel,  
 R. J. Doerksen,  A. D. Dutoi,  R. G. Edgar,  J. Fosso-Tande,  
 L. Fusti-Molnar,  D. Ghosh,  A. Ghysels,  A. Golubeva-Zadorozhnaya,  
 J. Gonthier,  M. S. Gordon,  S. R. Gwaltney,  G. Hawkins,  J. E. Herr,  
 A. Heyden,  S. Hirata,  E. G. Hohenstein,  G. Kedziora,  F. J. Keil,  
 C. Kelley,  Jihan Kim,  R. A. King,  R. Z. Khaliullin,  P. P. Korambath,  
 W. Kurlancheek,  A. Laurent,  A. M. Lee,  M. S. Lee,  S. V. Levchenko,  
 Ching Yeh Lin,  D. Liotard,  E. Livshits,  R. C. Lochan,  I. Lotan,  
 L. A. Martinez-Martinez,  P. E. Maslen,  N. Nair,  D. P. O'Neill,  
 D. Neuhauser,  E. Neuscamman,  C. M. Oana,  R. Olivares-Amaya,  R. Olson,  
 T. M. Perrine,  B. Peters,  P. A. Pieniazek,  A. Prociuk,  Y. M. Rhee,  
 J. Ritchie,  M. A. Rohrdanz,  E. Rosta,  N. J. Russ,  H. F. Schaefer III,  
 M. W. Schmidt,  N. E. Schultz,  S. Sharma,  N. Shenvi,  C. D. Sherrill,  
 A. C. Simmonett,  A. Sodt,  T. Stein,  D. Stuck,  K. S. Thanthiriwatte,  
 V. Vanovschi,  L. Vogt,  Tao Wang,  A. Warshel,  M. A. Watson,  
 C. F. Williams,  Q. Wu,  X. Xu,  Jun Yang,  W. Zhang,  Yan Zhao

 Please cite Q-Chem as follows:
 Y. Shao et al., Mol. Phys. 113, 184-215 (2015)
 DOI: 10.1080/00268976.2014.952696

 Q-Chem 5.4.1 for Intel X86 EM64T Linux

 Parts of Q-Chem use Armadillo 9.900.5 (Nocturnal Misbehaviour).
 http://arma.sourceforge.net/

 Q-Chem begins on Wed Jun 22 16:41:24 2022  

 Host: p09r14n13.grace.hpc.yale.internal
0

     Scratch files written to /home/tl686/scratch60/qchem_dev/scratch/qchem247181//
 Processing $rem in /home/tl686/qchem_dev/qchem/config/preferences:
 Processing $rem in /home/tl686/.qchemrc:
Applying user defined connections for MM calculations

 Checking the input file for inconsistencies... 	...done.

--------------------------------------------------------------
User input:
--------------------------------------------------------------
$molecule
0   1
 Fe 1268.70564219 -59.15525513 -30.41362434    -1  0   0   0   0
C 1267.48580424 -62.26676065 -29.99502604    -2  0   0   0   0 
C 1270.23851984 -56.03130300 -30.89754821    -2  0   0   0   0
C 1268.70641967 -59.72390042 -33.77217881    -2  0   0   0   0
C 1266.16140023 -58.16472689 -28.65762705    -2  0   0   0   0
C 1271.79180658 -60.15644797 -28.95995061    -2  0   0   0   0
O 1266.15063677 -64.02975402 -29.72628557    -3  0   0   0   0
O 1271.34945360 -54.20410979 -31.06498707    -3  0   0   0   0 
O 1269.13626143 -60.15351364 -35.92836690    -3  0   0   0   0
O 1264.31961609 -57.56752301 -27.55046295    -3  0   0   0   0 
O 1273.38495751 -60.84727386 -27.71739070    -3  0   0   0   0
H 1248.53738298 -70.04470806 -49.32479347      6     13    0    0    0 
C 1247.30397335 -71.74236515 -49.14522002     1     12    14    15    16
H 1246.21208533 -71.77839782 -50.90934572     6     13    0    0    0
H 1248.40071093 -73.57618342 -49.02084760     6     13    0    0    0
C 1245.67954369 -71.34736352 -46.82686195     2     13    17    18    19
H 1244.16099536 -69.97341378 -47.07783742     6     16    0    0    0
H 1245.06786158 -73.26248436 -46.46886399     6     16    0    0    0
C 1247.25364012 -70.49767311 -44.54668653     2     16    20   21   22
H 1248.85476230 -71.97255458 -44.17426685     6     19    0    0    0
H 1248.14993458 -68.67022015 -44.62938124     6     19    0    0    0
C 1245.71980532 -70.30319075 -42.10135154     2     19   23   24   25
H 1243.77059321 -69.78841945 -42.68432831     6    22    0    0    0
H 1245.45991423 -72.10054502 -41.12095467     6    22    0    0    0
C 1246.62362939 -68.41692184 -40.12126107     2    22   26   27   28
H 1248.43122689 -69.25063910 -39.44754119     6    25    0    0    0
H 1247.15894626 -66.71354121 -41.17312709     6    25    0    0    0
C 1245.01033154 -67.95420981 -37.86719887     2    25   29   30   31
H 1243.46106098 -66.66065621 -38.53842028     6    28    0    0    0
H 1243.86694802 -69.51282535 -37.11313967     6    28    0    0    0
C 1246.30032615 -66.65678378 -35.73062230     2    28   32   33   34
H 1248.11424139 -67.62544677 -35.29731348     6    31    0    0    0
H 1246.62157247 -64.82105056 -36.63846002     6    31    0    0    0
C 1244.66763879 -66.52731602 -33.34740475     2    31   35   36   37
H 1242.73366242 -65.77734980 -33.67031587     6    34    0    0    0
H 1244.24703699 -68.46786822 -32.87808664     6    34    0    0    0
C 1245.92856250 -65.22330141 -31.04176503     2    34   38   39   40
H 1247.53757438 -66.20822855 -30.19607718     6    37    0    0    0
H 1246.66728198 -63.45310225 -31.98392084     6    37    0    0    0
C 1243.98662436 -64.50032315 -28.91989589     2    37   41   42   43
H 1242.39300808 -63.45806169 -29.88634885     6    40    0    0    0
H 1243.34138306 -66.27046675 -28.05180360     6    40    0    0    0
C 1245.27185955 -63.40169602 -26.56526153     2    40   44   45   46
H 1246.89982695 -64.56811343 -26.10233867     6    43    0    0    0
H 1246.08717367 -61.59412070 -26.79643095     6    43    0    0    0
C 1243.45669759 -63.09125540 -24.25446377     1    43   47   48   49
H 1241.67633868 -61.99395948 -24.50158398     6    46    0    0    0
H 1244.47070230 -62.41551350 -22.51248691     6    46    0    0    0
H 1242.72020707 -64.90607548 -23.71512781     6    46    0    0    0
H 1261.47170108 -61.74265307 -22.25649180     6     51    0    0    0 
C 1260.99951531 -61.77840313 -24.30508998     1     50    52    53    54
H 1260.43760486 -59.98642175 -25.13225454     6     51    0    0    0
H 1262.72405008 -62.00744314 -25.32211277     6     51    0    0    0
C 1259.12749845 -63.92347843 -25.14981797     2     51    55    56    57
H 1259.98990053 -64.58135708 -27.03250812     6     54    0    0    0
H 1259.29174743 -65.36639034 -23.77254299     6     54    0    0    0
C 1256.38282414 -63.22542793 -25.38582327     2     54    58   59   60
H 1256.37019063 -61.40479174 -26.37913417     6     57    0    0    0
H 1255.41939776 -64.58157588 -26.61330659     6     57    0    0    0
C 1254.87762798 -63.37286835 -22.96104656     2     57   61   62   63
H 1255.12103144 -65.20621400 -22.25242802     6    60    0    0    0
H 1255.67443106 -61.99564122 -21.71426695     6    60    0    0    0
C 1252.02938800 -62.93661148 -23.17888171     2    60   64   65   66
H 1251.38275814 -61.28017397 -24.10542074     6    63    0    0    0
H 1251.40761220 -64.46511286 -24.28900038     6    63    0    0    0
C 1250.52264960 -63.05457511 -20.62025060     2    63   67   68   69
H 1248.49019396 -62.54622035 -20.91826392     6    66    0    0    0
H 1250.49472173 -65.00855992 -19.94032493     6    66    0    0    0
C 1251.25907396 -61.34891830 -18.42810531     2    66   70   71   72
H 1253.25950169 -61.51978507 -18.23637154     6    69    0    0    0
H 1250.84594384 -59.34259767 -18.60666284     6    69    0    0    0
C 1250.10961026 -62.41005448 -15.92342900     2    69   73   74   75
H 1248.02308089 -62.37577951 -16.12270565     6    72    0    0    0
H 1250.43409631 -64.45656601 -15.69495788     6    72    0    0    0
C 1251.13261708 -61.02997456 -13.64551844     2    72   76   77   78
H 1253.16940640 -61.33354029 -13.62112608     6    75    0    0    0
H 1250.96163480 -59.02507031 -13.70387385     6    75    0    0    0
C 1249.77877431 -62.03989206 -11.31778377     2    75   79   80   81
H 1247.93406550 -61.26222856 -11.61803624     6    78    0    0    0
H 1249.69768971 -64.05696295 -11.44830245     6    78    0    0    0
C 1250.93387005 -60.96754505 -8.84974712     2    78   82   83   84
H 1252.95695323 -61.29455625 -9.28868658     6    81    0    0    0
H 1250.75864904 -58.86461754 -8.70115060     6    81    0    0    0
C 1249.79542813 -62.10890042 -6.35708626     1    81   85   86   87
H 1250.73303026 -61.12326416 -4.75606666     6    84    0    0    0
H 1250.09596136 -64.15131094 -6.15850602     6    84    0    0    0
H 1247.73939683 -61.68106565 -6.07511265     6    84    0    0    0
H 1240.87104639 -45.51675656 -48.54591269     6     89    0    0    0 
C 1241.33293810 -43.63525365 -47.83379813     1     88    90    91    92
H 1242.61676873 -42.90978133 -49.24759601     6     89    0    0    0
H 1240.03354113 -42.15671192 -47.98143036     6     89    0    0    0
C 1242.70613129 -43.95358515 -45.16209615     2     89    93    94    95
H 1244.44790925 -44.92223502 -45.58481190     6     92    0    0    0
H 1243.22715501 -42.03782375 -44.64231850     6     92    0    0    0
C 1241.03042052 -45.35973398 -43.14705005     2     92    96   97   98
H 1242.15528858 -45.63931798 -41.33348544     6     95    0    0    0
H 1239.45583675 -44.09484503 -42.75885114     6     95    0    0    0
C 1240.30301538 -48.02293939 -43.82447532     2     95   99   100   101
H 1239.04139638 -48.13243201 -45.44388461     6    98    0    0    0
H 1241.96587217 -49.03930635 -44.30878161     6    98    0    0    0
C 1239.11359773 -49.29757620 -41.42283331     2    98   102   103   104
H 1240.52504535 -49.65508133 -39.89825644     6    101    0    0    0
H 1237.64971679 -48.12779664 -40.69568849     6    101    0    0    0
C 1237.74917209 -51.68656966 -42.28946266     2    101   105   106   107
H 1236.57695212 -51.40419230 -43.93605169     6    104    0    0    0
H 1239.16982966 -53.09334282 -42.81035328     6    104    0    0    0
C 1236.10069188 -52.94104277 -40.26563368     2    104   108   109   110
H 1237.30315447 -54.03599928 -39.12756972     6    107    0    0    0
H 1235.38159612 -51.61325789 -38.86299773     6    107    0    0    0
C 1233.74754983 -54.44643658 -41.30287117     2    107   111   112   113
H 1232.44412675 -53.25940280 -42.27956193     6    110    0    0    0
H 1234.24178514 -55.95811016 -42.70875985     6    110    0    0    0
C 1232.34157186 -55.70085656 -39.19084283     2    110   114   115   116
H 1233.46260833 -57.15189337 -38.29269295     6    113    0    0    0
H 1232.16626699 -54.44075144 -37.67956013     6    113    0    0    0
C 1229.77227511 -56.80583992 -39.96161305     2    113   117   118   119
H 1228.31407372 -55.35093445 -40.45172055     6    116    0    0    0
H 1229.85936217 -57.81176938 -41.76237417     6    116    0    0    0
C 1228.57310039 -58.61006597 -37.91140576     2    116   120   121   122
H 1226.77577421 -59.12051750 -38.81147927     6    119    0    0    0
H 1229.79224529 -60.25672085 -37.81007337     6    119    0    0    0
C 1228.09880870 -57.19704597 -35.36498984     1    119   123   124   125
H 1226.70721792 -58.38266653 -34.27956195     6    122    0    0    0
H 1226.92385168 -55.39592945 -35.68472453     6    122    0    0    0
H 1229.80701740 -57.05778711 -34.32769897     6    122    0    0    0
H 1257.69788130 -44.37396432 -50.21405504     6     127    0    0    0 
C 1258.75185166 -44.76845618 -48.43343192     1     126    128    129    130
H 1260.03226437 -43.13096318 -47.83517965     6     127    0    0    0
H 1257.25140991 -44.87845382 -47.05840405     6     127    0    0    0
C 1260.13411163 -47.27675458 -48.80215483     2     127    131    132    133
H 1258.97230398 -48.90267715 -49.22960416     6     130    0    0    0
H 1261.48475142 -47.15761211 -50.42266874     6     130    0    0    0
C 1261.51846799 -47.86736969 -46.28046249     2     130    134   135   136
H 1262.89496694 -46.38886312 -46.02344972     6     133    0    0    0
H 1260.05817237 -47.88779488 -44.72316552     6     133    0    0    0
C 1262.90193927 -50.36665439 -46.00694930     2     133   137   138   139
H 1263.15828268 -50.68236425 -44.06083021     6    136    0    0    0
H 1261.85274258 -52.04567525 -46.68566586     6    136    0    0    0
C 1265.54453509 -50.43009436 -47.21774243     2    136   140   141   142
H 1266.27115698 -48.50320718 -47.31742602     6    139    0    0    0
H 1266.75900888 -51.32480627 -45.81279636     6    139    0    0    0
C 1265.59638580 -51.60324226 -49.82948474     2    139   143   144   145
H 1264.84819335 -53.52856759 -49.84770551     6    142    0    0    0
H 1264.67438683 -50.49497778 -51.11179858     6    142    0    0    0
C 1268.33213682 -52.10892426 -50.63641196     2    142   146   147   148
H 1268.47589636 -52.89759963 -52.58008800     6    145    0    0    0
H 1269.26622703 -50.25938733 -50.55180359     6    145    0    0    0
C 1269.69406676 -53.88936874 -48.87661606     2    145   149   150   151
H 1269.93434108 -53.01686128 -47.03809318     6    148    0    0    0
H 1268.45503250 -55.55506592 -48.82701523     6    148    0    0    0
C 1272.22653310 -54.69023730 -49.74266458     2    148   152   153   154
H 1271.84459200 -55.57763418 -51.68301958     6    151    0    0    0
H 1273.39655608 -53.02449299 -50.09544276     6    151    0    0    0
C 1273.70148350 -56.56898763 -47.99204235     2    151   155   156   157
H 1275.69489068 -56.33603247 -48.44082914     6    154    0    0    0
H 1273.34573084 -55.85732304 -46.06189488     6    154    0    0    0
C 1272.79650335 -59.26768184 -48.35726047     2    154   158   159   160
H 1270.81362802 -59.27666973 -48.18254605     6    157    0    0    0
H 1273.32108612 -60.13075372 -50.09205713     6    157    0    0    0
C 1273.54990431 -61.06438599 -46.30327908     1    157   161   162   163
H 1272.61408515 -62.79641814 -46.61126394     6    160    0    0    0
H 1273.11615173 -60.38261572 -44.37148990     6    160    0    0    0
H 1275.44118850 -61.30714903 -46.23056249     6    160    0    0    0
H 1235.74574136 -32.80152307 -40.78501964     6     165    0    0    0 
C 1237.68142834 -33.01763538 -41.53269216     1     164    166    167    168
H 1238.28329332 -34.97787547 -41.29558029     6     165    0    0    0
H 1237.79070211 -32.66302884 -43.60134496     6     165    0    0    0
C 1239.74437427 -31.18887248 -40.50675569     2     165    169    170    171
H 1239.53791284 -29.23942144 -41.05415362     6     168    0    0    0
H 1239.71740304 -31.17819454 -38.48701217     6     168    0    0    0
C 1242.42080706 -32.10348358 -41.20650071     2     168    172   173   174
H 1242.73783726 -33.77501073 -40.16879245     6     171    0    0    0
H 1242.58291774 -32.91712406 -43.03955877     6     171    0    0    0
C 1244.29759577 -30.01920400 -40.64769316     2     171   175   176   177
H 1243.77184024 -28.61229275 -41.85695594     6    174    0    0    0
H 1244.02167995 -29.41591620 -38.63287782     6    174    0    0    0
C 1247.03235217 -30.93410387 -41.02843838     2    174   178   179   180
H 1247.26261659 -32.62557446 -39.92730940     6    177    0    0    0
H 1247.24463276 -31.34949426 -43.04488679     6    177    0    0    0
C 1248.92404237 -28.82516870 -40.08820634     2    177   181   182   183
H 1248.63328915 -26.90811334 -40.94391868     6    180    0    0    0
H 1248.32964569 -28.60438746 -38.19160743     6    180    0    0    0
C 1251.51471182 -29.80646133 -40.48110764     2    180   184   185   186
H 1251.68315724 -31.20881259 -39.11974754     6    183    0    0    0
H 1251.78483125 -30.68512603 -42.40470663     6    183    0    0    0
C 1253.47486787 -27.78972190 -39.93069742     2    183   187   188   189
H 1253.18405903 -26.08936101 -40.96653732     6    186    0    0    0
H 1253.23411158 -27.03560785 -37.95571086     6    186    0    0    0
C 1256.16425935 -28.66742392 -40.45115725     2    186   190   191   192
H 1256.84399345 -29.70829098 -38.75147933     6    189    0    0    0
H 1256.12541464 -30.22462356 -41.70255104     6    189    0    0    0
C 1257.99008758 -26.57082323 -41.34100337     2    189   193   194   195
H 1257.24922790 -26.15031829 -43.34541519     6    192    0    0    0
H 1258.15990496 -24.86447685 -40.09800665     6    192    0    0    0
C 1260.73337867 -27.49180893 -41.46791392     2    192   196   197   198
H 1261.30185808 -27.50391508 -39.54755816     6    195    0    0    0
H 1260.69200496 -29.42237282 -42.09053604     6    195    0    0    0
C 1262.37890615 -25.68488576 -43.01238842     1    195   199   200   201
H 1264.16896296 -26.49230796 -43.18505823     6    198    0    0    0
H 1262.71027131 -23.96817305 -41.96575161     6    198    0    0    0
H 1261.51759561 -25.29288902 -44.84195395     6    198    0    0    0
H 1255.86910384 -35.50954226 -33.42515046     6     203    0    0    0 
C 1256.18085619 -33.55497023 -34.05260216     1     202    204    205    206
H 1257.96441306 -32.92076581 -33.38582814     6     203    0    0    0
H 1256.48572845 -33.85917502 -36.04472168     6     203    0    0    0
C 1253.94952623 -31.51794636 -33.58222965     2     203    207    208    209
H 1254.39554307 -29.47543248 -33.92394466     6     206    0    0    0
H 1252.46917496 -31.98287319 -34.81496042     6     206    0    0    0
C 1252.55584779 -31.57253857 -30.93898606     2     206    210   211   212
H 1250.65426110 -31.17586708 -31.11749592     6     209    0    0    0
H 1252.70524575 -33.64863762 -30.38156271     6     209    0    0    0
C 1253.84800200 -29.91421282 -28.93427109     2     209   213   214   215
H 1255.87771586 -29.81893162 -29.03848353     6    212    0    0    0
H 1253.19232438 -27.99904205 -29.56385318     6    212    0    0    0
C 1253.12524141 -30.40126044 -26.18525147     2    212   216   217   218
H 1251.07438137 -30.03313706 -25.79165815     6    215    0    0    0
H 1253.58981193 -32.34857744 -25.86363482     6    215    0    0    0
C 1254.73086444 -28.77894466 -24.44102858     2    215   219   220   221
H 1256.59754981 -28.82030638 -24.90580919     6    218    0    0    0
H 1254.16899629 -26.72752723 -24.64137541     6    218    0    0    0
C 1254.25317481 -29.69562254 -21.73989337     2    218   222   223   224
H 1252.35334988 -29.34177627 -21.14750822     6    221    0    0    0
H 1254.61469309 -31.66690445 -21.65300573     6    221    0    0    0
C 1255.99771436 -28.79202512 -19.69710241     2    221   225   226   227
H 1257.89275454 -29.69190947 -19.99793789     6    224    0    0    0
H 1256.24053398 -26.77326326 -19.74817325     6    224    0    0    0
C 1255.24019964 -29.76240837 -17.06881270     2    224   228   229   230
H 1253.19901444 -30.27477131 -16.90165625     6    227    0    0    0
H 1256.28110152 -31.50380200 -16.98452448     6    227    0    0    0
C 1255.54178674 -27.74940248 -15.04648773     2    227   231   232   233
H 1257.48537533 -27.14750813 -15.02012844     6    230    0    0    0
H 1254.19051715 -26.29453640 -15.80875117     6    230    0    0    0
C 1255.07657904 -28.60536790 -12.35135423     2    230   234   235   236
H 1253.48611036 -29.98926217 -11.85231062     6    233    0    0    0
H 1256.74487972 -29.66429259 -11.78103494     6    233    0    0    0
C 1254.76600575 -26.19236971 -10.72243608     1    233   237   238   239
H 1253.15051032 -24.95045631 -10.98807899     6    236    0    0    0
H 1256.47578198 -25.02372442 -11.08773334     6    236    0    0    0
H 1254.86206614 -26.53982552 -8.75563283     6    236    0    0    0
H 1243.22675037 -60.11096987 -18.93484347     6     241    0    0    0 
C 1241.59050797 -59.22417505 -17.90260311     1     240    242    243    244
H 1242.08682055 -57.43300586 -16.96224923     6     241    0    0    0
H 1240.16838741 -59.05128408 -19.31066659     6     241    0    0    0
C 1240.10087040 -60.71504252 -16.02266381     2     241    245    246    247
H 1241.21405885 -60.72006181 -14.27480122     6     244    0    0    0
H 1238.36177524 -59.65735840 -15.32185729     6     244    0    0    0
C 1239.28040017 -63.41771347 -16.68967379     2     244    248   249   250
H 1237.82015191 -64.16539431 -15.41702937     6     247    0    0    0
H 1238.45178007 -63.42763479 -18.56503651     6     247    0    0    0
C 1241.46551331 -65.27816929 -16.67647850     2     247   251   252   253
H 1242.77674895 -65.04102059 -18.23175289     6    250    0    0    0
H 1242.51882595 -64.97333491 -15.03955382     6    250    0    0    0
C 1240.93330730 -68.03074320 -17.14273920     2    250   254   255   256
H 1239.27717385 -68.65060319 -16.18923244     6    253    0    0    0
H 1240.61430844 -68.29431475 -19.15144004     6    253    0    0    0
C 1243.04541288 -69.77438050 -16.41336657     2    253   257   258   259
H 1242.71668325 -71.45834325 -17.51209028     6    256    0    0    0
H 1244.86105323 -69.10996931 -17.22097267     6    256    0    0    0
C 1243.48891293 -70.34478352 -13.56139544     2    256   260   261   262
H 1243.83813638 -68.60369207 -12.47647880     6    259    0    0    0
H 1241.72167729 -71.18710639 -12.96331400     6    259    0    0    0
C 1245.44813348 -72.37084432 -12.77149992     2    259   263   264   265
H 1244.91875403 -74.17357878 -13.79526190     6    262    0    0    0
H 1247.23355066 -71.88258698 -13.61492169     6    262    0    0    0
C 1245.39184109 -72.96425847 -10.00883748     2    262   266   267   268
H 1245.57746710 -71.32370602 -8.86851819     6    265    0    0    0
H 1243.47777722 -74.01158029 -9.88041161     6    265    0    0    0
C 1247.68650920 -74.46956971 -9.36342807     2    265   269   270   271
H 1248.17479759 -76.09484581 -10.58486452     6    268    0    0    0
H 1249.45832568 -73.28864443 -9.29538241     6    268    0    0    0
C 1247.40664459 -75.80240038 -6.89974464     2    268   272   273   274
H 1247.44486103 -74.21291837 -5.54468745     6    271    0    0    0
H 1245.63494367 -76.79925165 -6.81206328     6    271    0    0    0
C 1249.28172899 -77.74048635 -6.06278527     1    271   275   276   277
H 1249.02267027 -79.45363834 -7.19121290     6    274    0    0    0
H 1248.85164010 -78.46187501 -4.28530241     6    274    0    0    0
H 1251.29769562 -77.26439031 -5.93574104     6    274    0    0    0
H 1245.35859845 -36.76887726 -36.71596503     6     279    0    0    0 
C 1244.95347271 -38.33335281 -35.52943518     1     278    280    281    282
H 1243.00260750 -38.19966751 -35.00152069     6     279    0    0    0
H 1245.47631838 -39.95648076 -36.65467271     6     279    0    0    0
C 1246.61938785 -38.08227442 -33.20336082     2     279    283    284    285
H 1248.62818376 -37.81195068 -33.65972819     6     282    0    0    0
H 1246.02727952 -36.39046591 -32.39051768     6     282    0    0    0
C 1246.32755253 -40.18033046 -31.21335107     2     282    286   287   288
H 1244.39170713 -40.57630529 -30.69267289     6     285    0    0    0
H 1246.55948533 -41.96621253 -32.22924100     6     285    0    0    0
C 1247.90201805 -39.70171893 -28.78530521     2     285   289   290   291
H 1249.83765716 -39.62363125 -29.40990435     6    288    0    0    0
H 1247.24292229 -37.84740929 -28.21596467     6    288    0    0    0
C 1247.32079884 -41.75225913 -26.86305293     2    288   292   293   294
H 1246.72462875 -43.58876203 -27.58344619     6    291    0    0    0
H 1249.19216194 -42.22251770 -26.30714979     6    291    0    0    0
C 1245.54999562 -40.94546457 -24.61212426     2    291   295   296   297
H 1246.40334097 -39.32907427 -23.63259587     6    294    0    0    0
H 1243.65864137 -40.40459703 -25.24461654     6    294    0    0    0
C 1245.77644471 -43.03926437 -22.63575881     2    294   298   299   300
H 1245.08239534 -44.82405823 -23.60694641     6    297    0    0    0
H 1247.70612112 -43.30696268 -22.30619114     6    297    0    0    0
C 1244.58174967 -42.57391170 -19.96401710     2    297   301   302   303
H 1245.49754737 -41.22140602 -18.88550062     6    300    0    0    0
H 1242.64832269 -41.75189088 -20.04590907     6    300    0    0    0
C 1244.63186516 -44.91937475 -18.18364597     2    300   304   305   306
H 1243.14609269 -46.21039682 -18.78240585     6    303    0    0    0
H 1246.36308376 -46.12330532 -18.30666160     6    303    0    0    0
C 1244.07868576 -44.33560847 -15.44841087     2    303   307   308   309
H 1245.53483961 -43.15830113 -14.90139545     6    306    0    0    0
H 1242.27970471 -43.31614823 -15.08768304     6    306    0    0    0
C 1244.14606832 -46.82324340 -13.92151364     2    306   310   311   312
H 1242.64733903 -48.09456817 -14.38266921     6    309    0    0    0
H 1245.99360204 -47.69025343 -14.36811069     6    309    0    0    0
C 1243.91553907 -46.46737454 -11.06689989     1    309   313   314   315
H 1242.53969173 -45.15231031 -10.53371802     6    312    0    0    0
H 1245.58779542 -45.62871018 -10.21000382     6    312    0    0    0
H 1243.92726776 -48.21529035 -10.02009902     6    312    0    0    0
H 1251.87862028 -52.79427267 -37.84489173     6     317    0    0    0 
C 1253.67172393 -52.34399961 -37.01385219     1     316    318    319    320
H 1254.15025491 -50.39816519 -37.61760708     6     317    0    0    0
H 1253.41731462 -52.42059837 -34.88374884     6     317    0    0    0
C 1255.45784140 -54.34718018 -37.72649161     2     317    321    322    323
H 1257.05784220 -54.09673279 -36.63201775     6     320    0    0    0
H 1254.41784091 -56.04651252 -37.42215777     6     320    0    0    0
C 1256.21414412 -54.43081263 -40.62298573     2     320    324   325   326
H 1255.02246142 -53.72681959 -42.08393703     6     323    0    0    0
H 1257.85416960 -53.14596141 -40.52722402     6     323    0    0    0
C 1257.02071992 -57.02417491 -41.41874117     2     323   327   328   329
H 1258.76749035 -57.56712600 -40.34359533     6    326    0    0    0
H 1255.49344677 -58.30399472 -41.18313551     6    326    0    0    0
C 1257.73507579 -57.13312916 -44.40510428     2    326   330   331   332
H 1256.19159424 -56.72463732 -45.59367038     6    329    0    0    0
H 1259.12678056 -55.66092693 -45.05284658     6    329    0    0    0
C 1258.68624837 -59.81448497 -45.48327182     2    329   333   334   335
H 1257.68097169 -61.40749153 -44.69445059     6    332    0    0    0
H 1258.15887387 -59.77199913 -47.52157089     6    332    0    0    0
C 1261.55941254 -59.99968068 -45.27652239     2    332   336   337   338
H 1262.31442596 -58.50450554 -46.37170539     6    335    0    0    0
H 1262.19584949 -59.49284785 -43.34036076     6    335    0    0    0
C 1262.31773286 -62.62170677 -45.99301910     2    335   339   340   341
H 1261.63722546 -64.09338208 -44.63468587     6    338    0    0    0
H 1261.53256630 -63.33020357 -47.64603110     6    338    0    0    0
C 1265.27484517 -62.70695673 -46.43317815     2    338   342   343   344
H 1265.73258976 -61.63449420 -48.08030726     6    341    0    0    0
H 1266.18891508 -61.88427571 -44.77137562     6    341    0    0    0
C 1266.07642137 -65.49633246 -46.53282134     2    341   345   346   347
H 1268.12261133 -65.39499256 -46.49068240     6    344    0    0    0
H 1265.36336228 -66.36020742 -44.85551246     6    344    0    0    0
C 1265.07563832 -67.08119143 -48.78370425     2    344   348   349   350
H 1263.00298014 -67.01887745 -48.57132595     6    347    0    0    0
H 1265.45962128 -66.23711193 -50.45397335     6    347    0    0    0
C 1266.16208134 -69.84698733 -48.77970856     1    347   351   352   353
H 1268.07043377 -69.59915905 -49.30549033     6    350    0    0    0
H 1265.21352253 -71.03512804 -50.06761333     6    350    0    0    0
H 1265.94842007 -70.64668708 -46.96859788     6    350    0    0    0
H 1241.93872624 -51.55358041 -22.88150855     6     355    0    0    0 
C 1241.36626781 -51.45573363 -24.75045646     1     354    356    357    358
H 1240.11552250 -53.06127442 -25.17379752     6     355    0    0    0
H 1240.15263668 -49.71424208 -24.63487176     6     355    0    0    0
C 1243.50277669 -51.07442770 -26.66222551     2     355    359    360    361
H 1244.56921388 -49.51544383 -26.09236175     6     358    0    0    0
H 1244.66205694 -52.80000114 -26.38496200     6     358    0    0    0
C 1242.79931205 -50.48168566 -29.36308478     2     358    362   363   364
H 1241.88998544 -52.02006887 -30.11920648     6     361    0    0    0
H 1241.56817307 -48.84065662 -29.42987034     6     361    0    0    0
C 1244.97698958 -49.69137929 -31.21763261     2     361   365   366   367
H 1245.85116703 -47.96735588 -30.28318142     6    364    0    0    0
H 1246.46211622 -51.07112034 -31.07147563     6    364    0    0    0
C 1244.35314388 -49.26397446 -34.02182235     2    364   368   369   370
H 1243.96806055 -51.25986280 -34.73442371     6    367    0    0    0
H 1242.60339675 -48.13678786 -34.35120161     6    367    0    0    0
C 1246.67967286 -48.18462199 -35.38740872     2    367   371   372   373
H 1247.17848635 -46.34610543 -34.36318308     6    370    0    0    0
H 1248.25097437 -49.57820721 -35.06921668     6    370    0    0    0
C 1246.39472033 -47.64949600 -38.34562649     2    370   374   375   376
H 1245.74388870 -49.43851023 -39.21835043     6    373    0    0    0
H 1244.96079177 -46.26548038 -38.82731794     6    373    0    0    0
C 1248.68037934 -46.69499471 -39.63884012     2    373   377   378   379
H 1249.10115442 -45.11091325 -38.59498414     6    376    0    0    0
H 1250.27357357 -47.95220216 -39.20606545     6    376    0    0    0
C 1248.51454734 -46.22528308 -42.38701686     2    376   380   381   382
H 1246.97256941 -47.24524428 -43.36933788     6    379    0    0    0
H 1248.04224495 -44.23824675 -42.72471383     6    379    0    0    0
C 1250.90230498 -46.91252572 -43.74742353     2    379   383   384   385
H 1252.48577522 -45.72598837 -43.09405842     6    382    0    0    0
H 1251.71716704 -48.70015099 -43.04639278     6    382    0    0    0
C 1250.94058436 -46.90701610 -46.67126535     2    382   386   387   388
H 1252.81974560 -47.43524450 -47.34353182     6    385    0    0    0
H 1249.45134785 -48.00730238 -47.58132241     6    385    0    0    0
C 1250.11489931 -44.12831604 -47.66561122     1    385   389   390   391
H 1248.09489559 -43.71354424 -47.47817808     6    388    0    0    0
H 1250.76052474 -43.79448923 -49.50425931     6    388    0    0    0
H 1250.95044146 -42.63320587 -46.41372625     6    388    0    0    0
H 1285.89132879 -78.26095354 -33.97423377     6     393    0    0    0 
C 1285.48181290 -79.97298491 -33.01311630     1     392    394    395    396
H 1285.84491788 -81.23752316 -34.54741755     6     393    0    0    0
H 1286.91439231 -80.09033722 -31.63234285     6     393    0    0    0
C 1282.89180276 -79.87739947 -32.16534004     2     393    397    398    399
H 1281.58817294 -79.17731395 -33.78159224     6     396    0    0    0
H 1282.16804147 -81.77688877 -31.84389465     6     396    0    0    0
C 1282.57432392 -78.31621123 -29.78814865     2     396    400   401   402
H 1283.70218844 -79.23532516 -28.36379781     6     399    0    0    0
H 1283.23839026 -76.36628479 -30.25951657     6     399    0    0    0
C 1279.91127321 -78.12937768 -28.74958957     2     399   403   404   405
H 1278.60256893 -77.86792646 -30.29630667     6    402    0    0    0
H 1279.31308471 -79.94544959 -27.97284938     6    402    0    0    0
C 1279.64659560 -76.05496796 -26.79360464     2    402   406   407   408
H 1280.95651303 -76.20756894 -25.33218540     6    405    0    0    0
H 1280.03452518 -74.26098346 -27.71646523     6    405    0    0    0
C 1276.96538205 -76.04885773 -25.89576981     2    405   409   410   411
H 1275.82081287 -75.37857431 -27.50574930     6    408    0    0    0
H 1276.40788131 -77.97025674 -25.26685499     6    408    0    0    0
C 1276.67275988 -74.10996903 -23.70249287     2    408   412   413   414
H 1278.10135371 -74.46559494 -22.21767361     6    411    0    0    0
H 1276.66880537 -72.24870887 -24.48019770     6    411    0    0    0
C 1274.33827776 -74.48966263 -22.16606708     2    411   415   416   417
H 1272.64790941 -74.08605722 -23.37630766     6    414    0    0    0
H 1274.08975635 -76.48849671 -21.72947982     6    414    0    0    0
C 1274.25365830 -73.02461307 -19.83944002     2    414   418   419   420
H 1275.99685676 -73.42527323 -18.80850779     6    417    0    0    0
H 1274.50418943 -70.99912729 -20.29671136     6    417    0    0    0
C 1271.80475522 -73.58976191 -18.31804951     2    417   421   422   423
H 1270.31976262 -72.74148626 -19.34248309     6    420    0    0    0
H 1271.77518068 -75.51147863 -18.19292969     6    420    0    0    0
C 1271.80889723 -72.83473680 -15.55523161     2    420   424   425   426
H 1270.26187714 -73.59747195 -14.54890320     6    423    0    0    0
H 1273.38163529 -73.83889572 -14.81381617     6    423    0    0    0
C 1272.05896973 -69.98683257 -15.04675104     1    423   427   428   429
H 1272.10847410 -69.63682724 -13.06061890     6    426    0    0    0
H 1270.42639933 -69.08946673 -15.93281339     6    426    0    0    0
H 1273.63738646 -68.95245397 -15.92082952     6    426    0    0    0
H 1253.28487016 -84.77585026 -28.90133007     6     431    0    0    0 
C 1254.82501692 -84.82280807 -27.40804217     1     430    432    433    434
H 1254.06008438 -83.88922829 -25.81515067     6     431    0    0    0
H 1255.28084861 -86.68905967 -26.85136334     6     431    0    0    0
C 1257.01808609 -83.55997884 -28.71314449     2     431    435    436    437
H 1258.65239929 -83.34659906 -27.66386983     6     434    0    0    0
H 1257.64824061 -84.86506242 -30.17367686     6     434    0    0    0
C 1256.51151295 -80.96372170 -29.81347829     2     434    438   439   440
H 1255.27658483 -81.07081693 -31.49602215     6     437    0    0    0
H 1255.55436016 -79.86991190 -28.36256479     6     437    0    0    0
C 1258.94293794 -79.63443471 -30.61210273     2     437   441   442   443
H 1258.39251809 -77.82880955 -31.51386787     6    440    0    0    0
H 1260.39840991 -79.25540406 -29.21257177     6    440    0    0    0
C 1260.27207178 -81.09550688 -32.68143228     2    440   444   445   446
H 1260.81230837 -83.02325964 -32.12046518     6    443    0    0    0
H 1259.06246646 -81.26691516 -34.39778703     6    443    0    0    0
C 1262.61342256 -79.71780320 -33.52897726     2    443   447   448   449
H 1262.08529172 -77.85515971 -34.26900278     6    446    0    0    0
H 1263.99004800 -79.67376776 -32.09016541     6    446    0    0    0
C 1263.70824817 -81.30048648 -35.64844122     2    446   450   451   452
H 1263.56855062 -83.35809210 -35.13765249     6    449    0    0    0
H 1262.72311141 -80.93519981 -37.37524038     6    449    0    0    0
C 1266.64606836 -80.93156015 -35.75240686     2    449   453   454   455
H 1267.25178235 -78.99392034 -36.13505896     6    452    0    0    0
H 1267.42572941 -81.49316935 -33.87352712     6    452    0    0    0
C 1267.79004620 -82.56087399 -37.86451592     2    452   456   457   458
H 1266.47418499 -84.32184588 -38.15414785     6    455    0    0    0
H 1267.51566345 -81.63006603 -39.70318067     6    455    0    0    0
C 1270.60959666 -83.31008490 -37.71820114     2    455   459   460   461
H 1271.45964491 -83.63267738 -39.59986165     6    458    0    0    0
H 1271.64720581 -81.62478181 -37.15525899     6    458    0    0    0
C 1271.22935656 -85.32462657 -35.77396320     2    458   462   463   464
H 1270.58568702 -84.47581513 -33.94055760     6    461    0    0    0
H 1270.17700765 -86.93790271 -36.03002536     6    461    0    0    0
C 1274.04008373 -86.13766907 -35.93816731     1    461   465   466   467
H 1275.19328402 -84.51159502 -35.89911510     6    464    0    0    0
H 1274.38382184 -87.26764442 -37.67199240     6    464    0    0    0
H 1274.49557435 -87.27421293 -34.27118868     6    464    0    0    0
H 1232.89130471 -37.98347366 -39.90750994     6     469    0    0    0 
C 1232.77730014 -39.07697721 -41.59621152     1     468    470    471    472
H 1231.17807017 -40.49038782 -41.46876191     6     469    0    0    0
H 1232.59504445 -37.93564795 -43.27948893     6     469    0    0    0
C 1235.33369363 -40.51784248 -41.62573648     2     469    473    474    475
H 1235.20565772 -42.25578111 -42.93146693     6     472    0    0    0
H 1236.54284023 -39.01294006 -42.41885100     6     472    0    0    0
C 1236.46243500 -41.32248769 -39.12195359     2     472    476   477   478
H 1238.14944285 -42.41023951 -39.38281633     6     475    0    0    0
H 1236.85033060 -39.70895413 -37.86887296     6     475    0    0    0
C 1234.62197073 -43.20775429 -37.88789294     2     475   479   480   481
H 1232.83475496 -42.21975235 -37.83071604     6    478    0    0    0
H 1234.44186937 -44.93675730 -38.96255970     6    478    0    0    0
C 1235.38114802 -44.02237216 -35.11428026     2    478   482   483   484
H 1237.10613834 -45.02227433 -35.17116721     6    481    0    0    0
H 1235.44708157 -42.33943382 -33.97582061     6    481    0    0    0
C 1233.53514846 -45.89862254 -33.84868002     2    481   485   486   487
H 1231.55540669 -45.41908162 -34.34124225     6    484    0    0    0
H 1233.83876610 -47.68077112 -34.76823425     6    484    0    0    0
C 1233.84448693 -45.98338360 -31.01446318     2    484   488   489   490
H 1235.67540037 -46.85668585 -30.58112624     6    487    0    0    0
H 1234.00303066 -44.12642973 -30.21233789     6    487    0    0    0
C 1231.83190090 -47.76540032 -29.73174355     2    487   491   492   493
H 1230.01260985 -47.23765155 -30.35661147     6    490    0    0    0
H 1232.05587802 -49.75331953 -30.28963910     6    490    0    0    0
C 1231.99669560 -47.63720171 -26.83830454     2    490   494   495   496
H 1233.95204078 -47.13281622 -26.51626649     6    493    0    0    0
H 1230.95980841 -45.86835504 -26.32129947     6    493    0    0    0
C 1231.44622745 -50.11188952 -25.43731147     2    493   497   498   499
H 1229.62345941 -50.57035121 -26.20406429     6    496    0    0    0
H 1232.77677144 -51.47954714 -25.92698001     6    496    0    0    0
C 1231.45070144 -49.44242552 -22.74853505     2    496   500   501   502
H 1233.36694759 -48.95683656 -22.19983104     6    499    0    0    0
H 1230.33384370 -47.83341935 -22.30268927     6    499    0    0    0
C 1230.39947123 -51.72536557 -21.26538464     1    499   503   504   505
H 1229.97198750 -51.28868839 -19.33955490     6    502    0    0    0
H 1231.78794966 -53.28402356 -21.31281004     6    502    0    0    0
H 1228.70473115 -52.48961877 -22.11430951     6    502    0    0    0
H 1252.44857289 -80.71191207 -17.62613212     6     507    0    0    0 
C 1252.40235051 -81.34220607 -15.67796617     1     506    508    509    510
H 1250.39369045 -81.61318168 -15.40471714     6     507    0    0    0
H 1253.30204176 -83.22779607 -15.52975711     6     507    0    0    0
C 1253.32044341 -79.34512018 -13.89839076     2     507    511    512    513
H 1252.09262512 -77.73065108 -14.31960105     6     510    0    0    0
H 1253.11075562 -79.72890933 -11.94688155     6     510    0    0    0
C 1256.08607022 -78.76190338 -14.23196276     2     510    514   515   516
H 1256.80550374 -77.81534117 -12.53185382     6     513    0    0    0
H 1257.02157927 -80.63892408 -14.02380552     6     513    0    0    0
C 1256.86561533 -77.64073693 -16.67792821     2     513   517   518   519
H 1255.84183959 -78.54986701 -18.19229630     6    516    0    0    0
H 1256.27123800 -75.70332365 -16.66266967     6    516    0    0    0
C 1259.70592077 -78.17983401 -17.25178098     2    516   520   521   522
H 1260.78510735 -77.71468033 -15.69543050     6    519    0    0    0
H 1259.78930735 -80.17732113 -17.48650379     6    519    0    0    0
C 1260.71972013 -76.83202421 -19.55643489     2    519   523   524   525
H 1259.36522581 -77.21186621 -21.06364739     6    522    0    0    0
H 1260.54981764 -74.72555201 -19.31282256     6    522    0    0    0
C 1263.35624676 -77.65359919 -20.16667689     2    522   526   527   528
H 1264.57353634 -76.97191758 -18.65337461     6    525    0    0    0
H 1263.41214396 -79.75430626 -20.19712643     6    525    0    0    0
C 1264.25735225 -76.69197125 -22.79417482     2    525   529   530   531
H 1262.88078834 -77.41463116 -24.01320655     6    528    0    0    0
H 1264.20791544 -74.65204351 -22.87999204     6    528    0    0    0
C 1266.83346615 -77.84970163 -23.69168662     2    528   532   533   534
H 1268.44699109 -77.55531250 -22.34214753     6    531    0    0    0
H 1266.70209567 -79.87940891 -23.63140000     6    531    0    0    0
C 1267.70476544 -76.94344354 -26.25585368     2    531   535   536   537
H 1266.15045992 -77.40571827 -27.46026841     6    534    0    0    0
H 1267.84103585 -74.97239829 -26.18142854     6    534    0    0    0
C 1269.92180181 -78.31264697 -27.49194272     2    534   538   539   540
H 1270.39193576 -77.37038972 -29.29287566     6    537    0    0    0
H 1271.67972280 -77.86164971 -26.49667961     6    537    0    0    0
C 1269.70642526 -81.17005842 -27.91013436     1    537   541   542   543
H 1267.84309041 -81.76647141 -28.61799449     6    540    0    0    0
H 1269.96108096 -82.26656957 -26.19721353     6    540    0    0    0
H 1270.89698225 -81.73460643 -29.47535846     6    540    0    0    0
H 1270.64089927 -67.12315270 -34.89661094     6     545    0    0    0 
C 1272.18814303 -65.93793608 -34.53527841     1     544    546    547    548
H 1271.71726602 -64.06186162 -33.69932346     6     545    0    0    0
H 1273.29675459 -67.22010170 -33.32820081     6     545    0    0    0
C 1273.82417967 -65.66838144 -36.81289656     2     545    549    550    551
H 1274.80823311 -67.43549234 -37.01155423     6     548    0    0    0
H 1272.68195095 -65.05404567 -38.44969976     6     548    0    0    0
C 1275.74144707 -63.64162129 -36.29160156     2     548    552   553   554
H 1274.98074416 -61.82794231 -35.57543350     6     551    0    0    0
H 1276.75117254 -64.20966415 -34.49788180     6     551    0    0    0
C 1277.40488579 -63.14603464 -38.64136296     2     551   555   556   557
H 1278.35097166 -64.95151890 -39.05939546     6    554    0    0    0
H 1276.22107981 -62.66454059 -40.27004406     6    554    0    0    0
C 1279.39423835 -61.12809423 -38.27676933     2    554   558   559   560
H 1278.41196980 -59.46372534 -37.59187110     6    557    0    0    0
H 1280.81579503 -61.72694894 -36.89498001     6    557    0    0    0
C 1280.65415390 -60.13571097 -40.60200169     2    557   561   562   563
H 1281.63746279 -61.80924830 -41.36772802     6    560    0    0    0
H 1279.17151842 -59.69140883 -42.06625671     6    560    0    0    0
C 1282.21781090 -57.81938258 -39.93956281     2    560   564   565   566
H 1280.89529002 -56.35940368 -39.39367847     6    563    0    0    0
H 1283.36566784 -58.32109484 -38.28032858     6    563    0    0    0
C 1283.95182422 -56.93128990 -42.12633008     2    563   567   568   569
H 1285.52111218 -58.24639932 -42.49007270     6    566    0    0    0
H 1282.86889294 -56.94843501 -43.93111415     6    566    0    0    0
C 1284.66479943 -54.15198962 -41.84077758     2    566   570   571   572
H 1282.93870739 -53.11273203 -41.23190604     6    569    0    0    0
H 1286.15010421 -53.97699010 -40.41390901     6    569    0    0    0
C 1285.60962452 -52.86755270 -44.37214108     2    569   573   574   575
H 1287.36397054 -53.83574901 -45.01809224     6    572    0    0    0
H 1284.23413466 -53.33403842 -45.68533920     6    572    0    0    0
C 1286.22457718 -50.09538049 -44.30308838     2    572   576   577   578
H 1287.26408136 -49.68528332 -42.68732348     6    575    0    0    0
H 1287.32279577 -49.79451236 -45.97458628     6    575    0    0    0
C 1283.87216904 -48.55103523 -44.35643866     1    575   579   580   581
H 1282.92176927 -48.32746885 -46.09472393     6    578    0    0    0
H 1284.52884237 -46.67394853 -43.73993036     6    578    0    0    0
H 1282.55196152 -49.10943268 -42.84268483     6    578    0    0    0
H 1248.08036067 -38.10500113 -41.48046926     6     583    0    0    0 
C 1249.96416541 -38.31845649 -40.45224950     1     582    584    585    586
H 1250.14448294 -36.81982192 -39.10460570     6     583    0    0    0
H 1250.07718721 -40.25074987 -39.75210832     6     583    0    0    0
C 1252.07219052 -38.14008483 -42.34247297     2     583    587    588    589
H 1252.47458777 -39.84234095 -43.50598906     6     586    0    0    0
H 1251.49667213 -36.77366377 -43.80375973     6     586    0    0    0
C 1254.65549200 -37.56812026 -41.29406085     2     586    590   591   592
H 1254.66435619 -36.02424018 -39.98135156     6     589    0    0    0
H 1255.17827451 -39.18222243 -40.27471604     6     589    0    0    0
C 1256.51160285 -36.89543396 -43.40343735     2     589   593   594   595
H 1256.38753488 -38.13815059 -45.17327804     6    592    0    0    0
H 1256.06621870 -35.05143324 -44.23324728     6    592    0    0    0
C 1259.25943731 -37.05041388 -42.77095250     2    592   596   597   598
H 1259.30441848 -36.07211723 -41.03743408     6    595    0    0    0
H 1259.87553013 -39.01101869 -42.33309007     6    595    0    0    0
C 1260.99274166 -35.90382786 -44.83252383     2    595   599   600   601
H 1261.22143757 -37.37957814 -46.34668213     6    598    0    0    0
H 1260.00218480 -34.35271843 -45.48142135     6    598    0    0    0
C 1263.58478369 -35.10337800 -43.81024319     2    598   602   603   604
H 1263.23307766 -33.53187374 -42.59664758     6    601    0    0    0
H 1264.38786978 -36.70426957 -42.64435639     6    601    0    0    0
C 1265.36671108 -34.21653807 -45.89872077     2    601   605   606   607
H 1266.05518802 -35.81293132 -47.07509464     6    604    0    0    0
H 1264.48480886 -33.09367247 -47.25409863     6    604    0    0    0
C 1267.69041901 -32.67694541 -44.77369533     2    604   608   609   610
H 1267.24481057 -30.84678276 -44.04876178     6    607    0    0    0
H 1268.62546171 -33.90029171 -43.40986905     6    607    0    0    0
C 1269.91061054 -31.98378098 -46.66321972     2    607   611   612   613
H 1270.49948272 -33.67394336 -47.81465677     6    610    0    0    0
H 1269.03228744 -30.81813305 -48.32060486     6    610    0    0    0
C 1271.99983152 -30.35975912 -45.49665005     2    610   614   615   616
H 1271.21824972 -28.80424048 -44.51921026     6    613    0    0    0
H 1273.14815620 -31.30293334 -44.09101215     6    613    0    0    0
C 1273.80817263 -29.94092090 -47.72272071     1    613   617   618   619
H 1275.07762719 -28.34430878 -47.34934037     6    616    0    0    0
H 1272.73975260 -29.49297295 -49.42620096     6    616    0    0    0
H 1274.95598670 -31.69568104 -47.85661432     6    616    0    0    0
H 1277.42550269 -47.75104714 -18.22674797     6     621    0    0    0 
C 1278.55473630 -47.51614277 -16.49337919     1     620    622    623    624
H 1279.12681707 -49.38876358 -15.98764099     6     621    0    0    0
H 1280.13896276 -46.40176125 -17.23658475     6     621    0    0    0
C 1276.83169070 -46.25851764 -14.60396029     2     621    625    626    627
H 1277.90756093 -45.74940032 -12.95568873     6     624    0    0    0
H 1276.09544929 -44.67888199 -15.44935085     6     624    0    0    0
C 1274.52617333 -47.85264514 -13.83423635     2     624    628   629   630
H 1273.12790954 -48.41925043 -15.19505274     6     627    0    0    0
H 1275.27598889 -49.66504882 -13.42298836     6     627    0    0    0
C 1273.33417346 -46.62997969 -11.46904628     2     627   631   632   633
H 1271.79411748 -47.71708061 -10.84959485     6    630    0    0    0
H 1274.73802012 -46.57997255 -10.03021780     6    630    0    0    0
C 1272.16241932 -44.00817990 -12.17360835     2    630   634   635   636
H 1273.51018501 -42.83659048 -12.97531417     6    633    0    0    0
H 1270.89030864 -44.38831364 -13.80925604     6    633    0    0    0
C 1270.97193673 -42.49932033 -9.91810062     2    633   637   638   639
H 1269.30932345 -43.31153380 -9.10596026     6    636    0    0    0
H 1272.37796945 -42.44909070 -8.40628485     6    636    0    0    0
C 1270.27612299 -39.62801984 -10.31530897     2    636   640   641   642
H 1271.97009431 -38.62455555 -10.90183647     6    639    0    0    0
H 1268.98048353 -39.24503712 -11.88587275     6    639    0    0    0
C 1269.33160053 -38.37931734 -7.78895258     2    639   643   644   645
H 1267.67070659 -39.28768079 -7.08953930     6    642    0    0    0
H 1270.91842558 -39.10703245 -6.67238779     6    642    0    0    0
C 1269.35277443 -35.42688873 -7.69647622     2    642   646   647   648
H 1268.47188256 -35.03239595 -5.81575750     6    645    0    0    0
H 1271.23540933 -34.80281250 -7.78936679     6    645    0    0    0
C 1267.84418556 -34.04678088 -9.74087465     2    645   649   650   651
H 1268.23341188 -32.05229301 -9.18269190     6    648    0    0    0
H 1268.68871410 -34.45090810 -11.66480931     6    648    0    0    0
C 1265.06191124 -34.55953891 -9.84373827     2    648   652   653   654
H 1264.58312095 -36.51349026 -10.20115353     6    651    0    0    0
H 1263.90442482 -33.87399730 -8.30651407     6    651    0    0    0
C 1263.95872469 -33.14520407 -12.14381314     1    651   655   656   657
H 1264.95667235 -33.88402034 -13.75826515     6    654    0    0    0
H 1264.23382627 -31.06583570 -11.81932424     6    654    0    0    0
H 1261.98143440 -33.47945753 -12.49096970     6    654    0    0    0
H 1261.54662335 -38.91581497 -30.83529190     6     659    0    0    0 
C 1260.36149833 -38.49365613 -32.41174492     1     658    660    661    662
H 1260.07477598 -40.29150780 -33.33299789     6     659    0    0    0
H 1258.64850374 -37.84547104 -31.52218530     6     659    0    0    0
C 1261.68511151 -36.51584581 -34.05582618     2     659    663    664    665
H 1260.38924701 -36.24965610 -35.62002902     6     662    0    0    0
H 1261.69168531 -34.78418520 -32.74781796     6     662    0    0    0
C 1264.41287296 -37.27784381 -34.59238084     2     662    666   667   668
H 1265.41781573 -35.47847479 -35.09563618     6     665    0    0    0
H 1265.51386294 -38.23792572 -33.14516766     6     665    0    0    0
C 1264.44898623 -39.15632970 -36.83842524     2     665   669   670   671
H 1263.61081756 -41.00386993 -36.57308775     6    668    0    0    0
H 1263.29746186 -38.34555348 -38.30042859     6    668    0    0    0
C 1267.04610312 -39.34124382 -38.05926797     2    668   672   673   674
H 1267.80547548 -37.57667350 -38.40539679     6    671    0    0    0
H 1268.39478433 -40.22458382 -36.80615724     6    671    0    0    0
C 1267.09635345 -40.99247236 -40.36879270     2    671   675   676   677
H 1265.98879557 -42.61586986 -39.96797908     6    674    0    0    0
H 1265.88951243 -40.18510510 -41.80880098     6    674    0    0    0
C 1269.63625485 -41.46713490 -41.40501703     2    674   678   679   680
H 1270.48800614 -39.81615358 -42.18138011     6    677    0    0    0
H 1270.49710364 -42.30593841 -39.79252212     6    677    0    0    0
C 1269.38077269 -43.34887952 -43.63143522     2    677   681   682   683
H 1268.15298977 -44.94706761 -43.14575551     6    680    0    0    0
H 1268.23749623 -42.42858848 -45.09159940     6    680    0    0    0
C 1271.74980137 -44.03170553 -44.97315353     2    680   684   685   686
H 1271.27554646 -44.50501020 -46.93935178     6    683    0    0    0
H 1273.22949160 -42.50250948 -45.31003321     6    683    0    0    0
C 1273.10690807 -46.16549856 -43.50716677     2    683   687   688   689
H 1273.80566393 -45.69663754 -41.56300751     6    686    0    0    0
H 1271.50333591 -47.68389089 -43.16767340     6    686    0    0    0
C 1275.42280815 -47.22940788 -45.02397506     2    686   690   691   692
H 1275.04305007 -47.24105848 -47.12053928     6    689    0    0    0
H 1276.99993561 -45.89562811 -44.81249682     6    689    0    0    0
C 1276.49509273 -49.78370572 -44.11415781     1    689   693   694   695
H 1278.05780721 -50.55132548 -45.21774864     6    692    0    0    0
H 1274.95283723 -51.17967489 -44.36409972     6    692    0    0    0
H 1276.88296498 -49.42952449 -42.13108753     6    692    0    0    0
H 1292.30189443 -63.26008474 -41.75156843     6     697    0    0    0 
C 1290.63442427 -62.57057768 -40.81018784     1     696    698    699    700
H 1290.96192960 -62.33488484 -38.80720717     6     697    0    0    0
H 1290.56279687 -60.69042091 -41.82046641     6     697    0    0    0
C 1288.21021861 -64.15766369 -41.46038394     2     697    701    702    703
H 1286.61282553 -63.24522245 -40.52148196     6     700    0    0    0
H 1287.98661192 -64.07853081 -43.47010350     6     700    0    0    0
C 1288.38755498 -66.91462243 -40.75100740     2     700    704   705   706
H 1290.40930751 -67.58649191 -40.63534468     6     703    0    0    0
H 1288.04268540 -67.03101035 -38.68248935     6     703    0    0    0
C 1286.66849831 -68.87111398 -42.19470691     2     703   707   708   709
H 1284.92678403 -67.89075087 -42.28318198     6    706    0    0    0
H 1287.31358525 -69.09765624 -44.10764282     6    706    0    0    0
C 1286.51271520 -71.40983957 -40.92993393     2    706   710   711   712
H 1288.52341976 -72.13970540 -41.07159821     6    709    0    0    0
H 1286.10044627 -71.17829586 -38.94207211     6    709    0    0    0
C 1284.78552747 -73.37474117 -42.29396589     2    709   713   714   715
H 1282.90661469 -72.64284707 -42.19307256     6    712    0    0    0
H 1285.19561618 -73.79599028 -44.40676826     6    712    0    0    0
C 1284.91890834 -75.79025343 -40.81262621     2    712   716   717   718
H 1286.96539613 -76.16506299 -40.55761252     6    715    0    0    0
H 1283.94221774 -75.48003716 -39.03361540     6    715    0    0    0
C 1283.75180040 -78.00188123 -42.38496162     2    715   719   720   721
H 1282.04421971 -77.47482702 -43.54533159     6    718    0    0    0
H 1285.16996628 -78.58601819 -43.73842610     6    718    0    0    0
C 1283.27211905 -80.48581153 -40.94018202     2    718   722   723   724
H 1285.05563398 -80.75592198 -39.97913427     6    721    0    0    0
H 1281.93428304 -80.16931725 -39.37776294     6    721    0    0    0
C 1282.70405777 -82.85057300 -42.59371341     2    721   725   726   727
H 1280.94686424 -82.44642719 -43.50417726     6    724    0    0    0
H 1284.03533546 -82.88633255 -44.14312766     6    724    0    0    0
C 1282.53888751 -85.33575161 -41.05247422     2    724   728   729   730
H 1281.44433054 -84.66319883 -39.38605865     6    727    0    0    0
H 1281.20935690 -86.49931767 -42.07541233     6    727    0    0    0
C 1285.22231225 -86.49316812 -40.61004324     1    727   731   732   733
H 1285.22480097 -88.53759289 -40.06484864     6    730    0    0    0
H 1285.99663353 -85.45306721 -38.99301622     6    730    0    0    0
H 1286.39333797 -86.40221907 -42.28221435     6    730    0    0    0
H 1253.53822337 -59.72092787 -48.17563072     6     735    0    0    0 
C 1252.11378821 -58.98705558 -49.52420970     1     734    736    737    738
H 1253.11753032 -59.04874453 -51.22710630     6     735    0    0    0
H 1250.61565344 -60.38075295 -49.42669543     6     735    0    0    0
C 1251.24089776 -56.30819176 -48.66168805     2     735    739    740    741
H 1252.84213060 -54.93559980 -48.72636346     6     738    0    0    0
H 1249.69944716 -55.75273427 -50.03365291     6     738    0    0    0
C 1250.13712775 -56.44840706 -46.05052897     2     738    742   743   744
H 1249.11058589 -58.09310520 -45.64254251     6     741    0    0    0
H 1251.83689300 -56.60837799 -44.92750733     6     741    0    0    0
C 1248.65979517 -54.02878938 -45.37084676     2     741   745   746   747
H 1249.95074492 -52.63034288 -45.97895190     6    744    0    0    0
H 1246.90038890 -53.79821517 -46.34492158     6    744    0    0    0
C 1248.38586397 -53.82642278 -42.45613593     2    744   748   749   750
H 1250.02506785 -54.12176195 -41.38325357     6    747    0    0    0
H 1247.63457447 -52.00427493 -42.08941316     6    747    0    0    0
C 1246.36197336 -55.61533217 -41.42854015     2    747   751   752   753
H 1244.59545312 -54.86252028 -42.01354707     6    750    0    0    0
H 1246.66688006 -57.58160159 -42.01677359     6    750    0    0    0
C 1246.08703947 -55.44041254 -38.52759020     2    750   754   755   756
H 1247.90838783 -55.82051655 -37.60316794     6    753    0    0    0
H 1245.49704690 -53.65847078 -38.05257960     6    753    0    0    0
C 1244.00187838 -57.29267744 -37.68734621     2    753   757   758   759
H 1242.46339855 -57.12803073 -39.11912427     6    756    0    0    0
H 1244.92610463 -59.17175498 -37.69208962     6    756    0    0    0
C 1242.80834780 -57.03938479 -35.00112652     2    756   760   761   762
H 1244.37433414 -57.10205293 -33.67870098     6    759    0    0    0
H 1241.73575672 -55.26285501 -35.10798619     6    759    0    0    0
C 1240.86843198 -59.12043884 -34.33161422     2    759   763   764   765
H 1241.59814771 -60.88835163 -34.54518842     6    762    0    0    0
H 1240.58687513 -59.03366269 -32.29056976     6    762    0    0    0
C 1238.22078277 -58.78570713 -35.59494679     2    762   766   767   768
H 1237.15457434 -57.32067609 -34.55707437     6    765    0    0    0
H 1238.44428899 -58.23781803 -37.68767864     6    765    0    0    0
C 1236.45660205 -61.09032809 -35.15448890     1    765   769   770   771
H 1237.06188423 -62.98848666 -35.65895300     6    768    0    0    0
H 1234.65212560 -60.90261764 -36.10162313     6    768    0    0    0
H 1236.07212658 -61.20972647 -33.15690057     6    768    0    0    0
H 1268.84197093 -48.18327725 -1.57393046     6     773    0    0    0 
C 1269.88982432 -48.93692193 -0.06105430     1     772    774    775    776
H 1271.77357969 -47.96645630 0.06707535     6     773    0    0    0
H 1268.75148863 -48.38047511 1.74044751     6     773    0    0    0
C 1270.04948895 -51.82127299 -0.44811891     2     773    777    778    779
H 1271.34813859 -52.39466676 0.99369497     6     776    0    0    0
H 1268.34836893 -52.86602299 -0.00852838     6     776    0    0    0
C 1271.33913101 -52.40609033 -3.01771116     2     776    780   781   782
H 1270.27199112 -51.70684422 -4.55101229     6     779    0    0    0
H 1273.00630709 -51.39222637 -3.21975658     6     779    0    0    0
C 1272.08926525 -55.20023162 -3.36621596     2     779   783   784   785
H 1273.45431713 -55.75444707 -1.82020297     6    782    0    0    0
H 1270.62065111 -56.59465531 -3.14816209     6    782    0    0    0
C 1273.30728219 -55.29217144 -6.06832305     2    782   786   787   788
H 1271.83181287 -54.76749521 -7.48667116     6    785    0    0    0
H 1274.90343158 -54.07132628 -6.30284730     6    785    0    0    0
C 1274.52407402 -57.88394563 -6.59679692     2    785   789   790   791
H 1276.44126707 -57.98698928 -5.65019626     6    788    0    0    0
H 1273.56764404 -59.39238478 -5.45979051     6    788    0    0    0
C 1274.37761997 -58.87420033 -9.23597838     2    788   792   793   794
H 1272.42507109 -58.99505632 -9.86811500     6    791    0    0    0
H 1275.54525019 -57.56593378 -10.32107245     6    791    0    0    0
C 1275.80604586 -61.29241145 -9.54112843     2    791   795   796   797
H 1277.73329489 -61.47073791 -8.71861515     6    794    0    0    0
H 1274.74090452 -62.73763685 -8.72850580     6    794    0    0    0
C 1276.03253461 -61.94154588 -12.35420867     2    794   798   799   800
H 1274.24755852 -61.35862905 -13.36468499     6    797    0    0    0
H 1277.67281059 -60.88099022 -13.15020872     6    797    0    0    0
C 1276.54174553 -64.71931315 -12.70533139     2    797   801   802   803
H 1274.88600540 -65.84101121 -11.95698015     6    800    0    0    0
H 1277.09481871 -65.09758765 -14.64611556     6    800    0    0    0
C 1278.98937848 -65.80994964 -11.39431907     2    800   804   805   806
H 1280.78036327 -64.79278779 -11.91344649     6    803    0    0    0
H 1278.86562274 -65.62914306 -9.26188500     6    803    0    0    0
C 1279.18078522 -68.75114459 -11.74410211     1    803   807   808   809
H 1280.89509351 -69.51022436 -10.83389988     6    806    0    0    0
H 1279.10626321 -69.34140409 -13.72011278     6    806    0    0    0
H 1277.71314303 -69.63283843 -10.56163550     6    806    0    0    0
H 1255.51687949 -42.81215589 -36.26866168     6     811    0    0    0 
C 1254.41521937 -41.28149577 -35.46564696     1     810    812    813    814
H 1255.24912809 -39.37260143 -35.70973330     6     811    0    0    0
H 1252.70021672 -41.43255807 -36.47978785     6     811    0    0    0
C 1253.85620919 -41.72588373 -32.38741880     2     811    815    816    817
H 1255.49809923 -41.30395717 -31.24427832     6     814    0    0    0
H 1252.71024194 -40.21049301 -31.91553114     6     814    0    0    0
C 1252.69339778 -44.28667229 -31.74978541     2     814    818   819   820
H 1250.77684892 -44.50105554 -32.32065866     6     817    0    0    0
H 1253.60750554 -45.78849807 -32.78022378     6     817    0    0    0
C 1253.25617781 -44.82710051 -28.87825765     2     817   821   822   823
H 1255.19907176 -45.47352536 -28.91033333     6    820    0    0    0
H 1252.96628400 -43.03256528 -27.87344502     6    820    0    0    0
C 1251.59014231 -46.90325339 -27.78190216     2    820   824   825   826
H 1249.64579027 -47.03738616 -28.38983957     6    823    0    0    0
H 1252.43033342 -48.62159595 -28.38378914     6    823    0    0    0
C 1251.72251217 -46.76956106 -24.90282902     2    823   827   828   829
H 1253.71267105 -47.35732559 -24.46289760     6    826    0    0    0
H 1251.53147815 -44.95014617 -24.03868641     6    826    0    0    0
C 1250.12961654 -48.88608972 -23.84336155     2    826   830   831   832
H 1248.23063058 -48.25189548 -24.18018109     6    829    0    0    0
H 1250.37469356 -50.67285182 -25.03375017     6    829    0    0    0
C 1250.67115815 -49.57131293 -21.05340159     2    829   833   834   835
H 1252.78828360 -49.97210340 -20.79215776     6    832    0    0    0
H 1250.42793665 -48.05791864 -19.69402196     6    832    0    0    0
C 1249.04545021 -51.75128661 -19.93730221     2    832   836   837   838
H 1247.00290103 -51.15878612 -19.94189723     6    835    0    0    0
H 1249.31373621 -53.48779444 -21.06198957     6    835    0    0    0
C 1249.56438612 -52.43070015 -17.14802653     2    835   839   840   841
H 1251.38380999 -53.27215472 -16.88813350     6    838    0    0    0
H 1249.49916797 -50.73446898 -15.96265167     6    838    0    0    0
C 1247.61476566 -54.23520685 -15.90088782     2    838   842   843   844
H 1245.70908523 -53.96092474 -16.63582324     6    841    0    0    0
H 1248.12557546 -55.96974860 -16.76322590     6    841    0    0    0
C 1247.61637261 -54.34293093 -13.03018888     1    841   845   846   847
H 1249.48674795 -54.13543517 -12.13123119     6    844    0    0    0
H 1246.91480162 -56.26381185 -12.71439810     6    844    0    0    0
H 1246.24204443 -53.07206904 -12.16845809     6    844    0    0    0
H 1281.37352429 -44.75019463 -40.49233854     6     849    0    0    0 
C 1281.22777026 -42.76990799 -40.58056172     1     848    850    851    852
H 1282.63638833 -41.88673242 -39.26921617     6     849    0    0    0
H 1281.71788861 -41.94938207 -42.54432425     6     849    0    0    0
C 1278.59635958 -42.01131350 -39.94326593     2     849    853    854    855
H 1277.17366812 -43.17983770 -40.94594202     6     852    0    0    0
H 1278.31594436 -42.35365551 -38.00034467     6     852    0    0    0
C 1278.24222074 -39.06533528 -40.46440019     2     852    856   857   858
H 1279.82767594 -38.09651803 -39.56514689     6     855    0    0    0
H 1278.29452841 -38.57697444 -42.47806532     6     855    0    0    0
C 1275.81455010 -38.14256537 -39.28745821     2     855   859   860   861
H 1274.18125145 -39.11792410 -40.05376106     6    858    0    0    0
H 1275.81349184 -38.93201805 -37.28611548     6    858    0    0    0
C 1275.33726291 -35.30097876 -39.19211121     2    858   862   863   864
H 1276.64783589 -34.34214091 -37.85752861     6    861    0    0    0
H 1275.72492964 -34.47875724 -40.98517112     6    861    0    0    0
C 1272.77152009 -34.82762141 -38.13695717     2    861   865   866   867
H 1271.25930982 -35.36222038 -39.43632497     6    864    0    0    0
H 1272.49813335 -35.89779531 -36.45342972     6    864    0    0    0
C 1272.28495569 -32.00559255 -37.73037951     2    864   868   869   870
H 1273.80128225 -31.01605464 -36.73654771     6    867    0    0    0
H 1272.28643122 -30.88872639 -39.58551897     6    867    0    0    0
C 1269.65163029 -31.42841663 -36.52743895     2    867   871   872   873
H 1268.10261653 -32.25251651 -37.50165894     6    870    0    0    0
H 1269.59914964 -32.63187767 -34.84446155     6    870    0    0    0
C 1269.12586574 -28.53117004 -36.45576933     2    870   874   875   876
H 1269.54735651 -27.81255991 -34.66048624     6    873    0    0    0
H 1270.74207493 -27.56679894 -37.47718650     6    873    0    0    0
C 1266.53098597 -27.73352094 -37.47744440     2    873   877   878   879
H 1266.46057188 -28.24050602 -39.46461239     6    876    0    0    0
H 1265.23543398 -28.85664623 -36.56040799     6    876    0    0    0
C 1265.91222324 -24.94133740 -36.94107301     2    876   880   881   882
H 1263.89213703 -24.64379771 -37.51638061     6    879    0    0    0
H 1266.01518540 -24.42433774 -34.98448355     6    879    0    0    0
C 1267.85747117 -23.11841641 -38.24326895     1    879   883   884   885
H 1268.25598808 -23.55745797 -40.21654875     6    882    0    0    0
H 1269.60570823 -23.16567757 -37.18377058     6    882    0    0    0
H 1267.23784830 -21.22736911 -38.02474450     6    882    0    0    0
H 1259.02892745 -56.49354192 -15.03458766     6     887    0    0    0 
C 1260.04751779 -57.85778751 -16.10079918     1     886    888    889    890
H 1261.98364766 -57.34096182 -15.48351829     6     887    0    0    0
H 1259.61861539 -59.67172737 -15.32877219     6     887    0    0    0
C 1259.58967622 -57.58310111 -18.99123288     2     887    891    892    893
H 1261.25759893 -57.85272062 -20.15563993     6     890    0    0    0
H 1258.27765648 -59.25109002 -19.59844739     6     890    0    0    0
C 1258.84231124 -54.83747178 -19.89221684     2     890    894   895   896
H 1257.27682506 -54.13280703 -18.82959927     6     893    0    0    0
H 1260.43279641 -53.46094969 -19.79194303     6     893    0    0    0
C 1257.93276005 -55.18457286 -22.77915410     2     893   897   898   899
H 1259.15632464 -56.37943521 -23.88507807     6    896    0    0    0
H 1256.17321591 -56.15311961 -23.08827945     6    896    0    0    0
C 1257.91211554 -52.52379987 -23.89394605     2    896   900   901   902
H 1256.18984180 -51.44074426 -23.42567695     6    899    0    0    0
H 1259.46678323 -51.19340688 -23.20368228     6    899    0    0    0
C 1257.94131309 -52.79496890 -26.77826630     2    899   903   904   905
H 1259.49467882 -54.05880443 -27.29522935     6    902    0    0    0
H 1256.18380537 -53.61774440 -27.53965513     6    902    0    0    0
C 1258.57277288 -50.18655219 -28.05635712     2    902   906   907   908
H 1257.32001187 -48.66573103 -27.24549497     6    905    0    0    0
H 1260.44179401 -49.67945630 -27.67465318     6    905    0    0    0
C 1258.14102278 -50.22519242 -30.91574531     2    905   909   910   911
H 1258.72839013 -52.11129992 -31.47196324     6    908    0    0    0
H 1256.07704941 -50.45423060 -31.25374704     6    908    0    0    0
C 1259.46430776 -48.09140483 -32.38753644     2    908   912   913   914
H 1259.31424781 -46.26580840 -31.57108597     6    911    0    0    0
H 1261.40012875 -48.61100582 -32.28142004     6    911    0    0    0
C 1258.55941374 -48.12746190 -35.21542381     2    911   915   916   917
H 1259.02388525 -50.05433614 -35.80051611     6    914    0    0    0
H 1256.43827918 -47.72538160 -35.36221000     6    914    0    0    0
C 1259.93241689 -46.37684538 -37.08308109     2    914   918   919   920
H 1259.45375628 -44.39421922 -36.78267592     6    917    0    0    0
H 1261.96139780 -46.29072324 -36.86745185     6    917    0    0    0
C 1259.09749339 -46.74568178 -39.91064395     1    917   921   922   923
H 1257.06040044 -46.33153886 -40.03848731     6    920    0    0    0
H 1259.73677130 -48.76682316 -40.47347862     6    920    0    0    0
H 1260.09469629 -45.22212232 -40.97689166     6    920    0    0    0
H 1278.70458116 -34.45035198 -25.96231397     6     925    0    0    0 
C 1277.85878867 -33.86105829 -24.21684899     1     924    926    927    928
H 1278.75578501 -34.87041326 -22.68129109     6     925    0    0    0
H 1278.40814812 -31.88047897 -23.91682650     6     925    0    0    0
C 1275.03543647 -34.47419605 -24.56025197     2     925    929    930    931
H 1274.72979084 -36.23671251 -25.33437261     6     928    0    0    0
H 1274.11333139 -34.67005370 -22.67536700     6     928    0    0    0
C 1273.56893964 -32.40157603 -25.84797266     2     928    932   933   934
H 1272.90095531 -31.02945673 -24.48013618     6     931    0    0    0
H 1274.79599103 -31.43882901 -27.18697708     6     931    0    0    0
C 1271.30812539 -33.32749691 -27.16225015     2     931   935   936   937
H 1272.18664436 -34.67404806 -28.45698073     6    934    0    0    0
H 1270.17581347 -34.35593965 -25.80223079     6    934    0    0    0
C 1269.49714790 -31.35516559 -28.58912659     2    934   938   939   940
H 1268.90727375 -29.89258354 -27.32498616     6    937    0    0    0
H 1270.88295208 -30.39456281 -29.85591892     6    937    0    0    0
C 1267.13936012 -32.41752777 -30.07047072     2    937   941   942   943
H 1267.74871647 -33.81545195 -31.46083804     6    940    0    0    0
H 1266.07235460 -33.41020700 -28.68211520     6    940    0    0    0
C 1265.62173257 -30.20037745 -31.16616182     2    940   944   945   946
H 1267.09485279 -28.73291639 -31.57572546     6    943    0    0    0
H 1264.67561039 -30.58741251 -33.01790133     6    943    0    0    0
C 1263.95090528 -28.97660447 -29.13639045     2    943   947   948   949
H 1262.38614437 -30.23968015 -28.50785924     6    946    0    0    0
H 1264.98224328 -28.64308509 -27.40379225     6    946    0    0    0
C 1263.05519851 -26.49031226 -30.17692558     2    946   950   951   952
H 1264.53221285 -25.15096217 -30.58541165     6    949    0    0    0
H 1261.92556535 -27.01092112 -31.77618363     6    949    0    0    0
C 1261.50733547 -25.06552042 -28.34204470     2    949   953   954   955
H 1260.80580560 -26.40343060 -26.83818378     6    952    0    0    0
H 1262.73192516 -23.84079999 -27.35220032     6    952    0    0    0
C 1259.64380176 -23.16998524 -29.33071401     2    952   956   957   958
H 1260.42185041 -21.77751196 -30.68457922     6    955    0    0    0
H 1258.30630091 -24.39442486 -30.44304217     6    955    0    0    0
C 1258.07890655 -21.83779221 -27.35044502     1    955   959   960   961
H 1259.34435883 -20.88055645 -25.99022706     6    958    0    0    0
H 1257.18365410 -23.18345511 -26.11187675     6    958    0    0    0
H 1256.68912272 -20.48006606 -28.30682664     6    958    0    0    0
H 1259.08740904 -68.12575417 -34.19685102     6     963    0    0    0 
C 1258.16000692 -69.20380190 -32.58174877     1     962    964    965    966
H 1257.60640232 -68.02369036 -31.04513188     6     963    0    0    0
H 1256.34747933 -70.07154454 -33.25768795     6     963    0    0    0
C 1259.97586888 -71.42176324 -31.91415973     2     963    967    968    969
H 1258.77554619 -72.72653561 -30.99233896     6     966    0    0    0
H 1260.61488292 -72.08524741 -33.72820974     6     966    0    0    0
C 1262.16673495 -70.67828554 -30.29143126     2     966    970   971   972
H 1262.84005908 -68.81479018 -31.02423932     6     969    0    0    0
H 1261.64106616 -70.40105804 -28.36977231     6     969    0    0    0
C 1264.42475941 -72.61726100 -30.19454252     2     969   973   974   975
H 1265.72731129 -71.67146667 -29.09013106     6    972    0    0    0
H 1263.93226489 -74.36150211 -29.41833508     6    972    0    0    0
C 1265.81527262 -73.06143876 -32.77104595     2    972   976   977   978
H 1264.60558437 -74.34021590 -33.79654934     6    975    0    0    0
H 1265.80339796 -71.27846614 -33.76560160     6    975    0    0    0
C 1268.41599133 -74.23522709 -32.64237851     2    975   979   980   981
H 1269.46789693 -73.22707024 -30.98052107     6    978    0    0    0
H 1268.40619506 -76.26886505 -32.47232375     6    978    0    0    0
C 1270.14152584 -73.83087845 -34.97525693     2    978   982   983   984
H 1268.92216581 -74.09985698 -36.71246193     6    981    0    0    0
H 1270.95887922 -71.95490630 -35.19753884     6    981    0    0    0
C 1272.12778394 -75.86754831 -35.13931648     2    981   985   986   987
H 1272.86205374 -76.61375283 -33.40116304     6    984    0    0    0
H 1271.44721120 -77.55620041 -36.00213735     6    984    0    0    0
C 1274.33645830 -74.96627143 -36.83408817     2    984   988   989   990
H 1275.20139705 -76.68338591 -37.66151068     6    987    0    0    0
H 1273.54471274 -73.85242957 -38.34092522     6    987    0    0    0
C 1276.30041000 -73.31500323 -35.58937726     2    987   991   992   993
H 1275.41110360 -71.56870862 -34.65586663     6    990    0    0    0
H 1276.92211945 -74.23782780 -33.84962002     6    990    0    0    0
C 1278.71201237 -72.79910541 -37.28530700     2    990   994   995   996
H 1279.56681803 -74.46168048 -37.91663455     6    993    0    0    0
H 1278.10356362 -72.11823531 -38.98804818     6    993    0    0    0
C 1280.64745091 -71.15537442 -35.85432610     1    993   997   998   999
H 1279.72257903 -69.31979122 -35.72433326     6    996    0    0    0
H 1282.38480078 -71.29941318 -36.86375840     6    996    0    0    0
H 1281.06629353 -72.07117617 -33.95923957     6    996    0    0    0
H 1236.31519777 -74.87093662 -29.73161952     6     1001    0    0    0 
C 1238.39000591 -75.01901982 -29.69630560     1     1000    1002    1003    1004
H 1238.97820405 -73.14289031 -29.04633753     6     1001    0    0    0
H 1239.07453626 -76.14097844 -28.18875209     6     1001    0    0    0
C 1239.77846888 -75.31344607 -32.26508232     2     1001    1005    1006    1007
H 1239.39926799 -77.27863042 -33.03036733     6     1004    0    0    0
H 1238.80871884 -74.00727795 -33.53046399     6     1004    0    0    0
C 1242.59608838 -74.71542661 -32.08449035     2     1004    1008   1009   1010
H 1242.82841360 -72.79217544 -31.38071872     6     1007    0    0    0
H 1243.36045387 -76.00567321 -30.61043236     6     1007    0    0    0
C 1244.16956644 -75.01919265 -34.45848074     2     1007   1011   1012   1013
H 1243.94259832 -77.01598372 -35.18669461     6    1010    0    0    0
H 1243.56272124 -73.79921121 -36.01622974     6    1010    0    0    0
C 1246.84380463 -74.25339836 -33.73644585     2    1010   1014   1015   1016
H 1246.89523264 -72.25028865 -33.13910065     6    1013    0    0    0
H 1247.52481297 -75.29633808 -32.06192377     6    1013    0    0    0
C 1248.63055825 -74.34407476 -36.16176145     2    1013   1017   1018   1019
H 1248.45521589 -76.18594059 -37.11560996     6    1016    0    0    0
H 1247.69789541 -72.94872688 -37.43672403     6    1016    0    0    0
C 1251.41200925 -73.86255324 -35.77474707     2    1016   1020   1021   1022
H 1251.54923976 -72.04802715 -34.91993191     6    1019    0    0    0
H 1252.16409006 -75.40608351 -34.50173944     6    1019    0    0    0
C 1252.92733376 -74.21681571 -38.17189170     2    1019   1023   1024   1025
H 1253.08001445 -76.19458026 -38.74475095     6    1022    0    0    0
H 1252.02735269 -73.24489704 -39.60644425     6    1022    0    0    0
C 1255.49930858 -73.12760590 -37.78722516     2    1022   1026   1027   1028
H 1255.46122287 -70.95596161 -37.67103680     6    1025    0    0    0
H 1256.49908054 -73.95671899 -36.21204227     6    1025    0    0    0
C 1257.08322713 -73.78904082 -40.14422483     2    1025   1029   1030   1031
H 1256.92083366 -75.77154113 -40.77346974     6    1028    0    0    0
H 1256.80678505 -72.56109196 -41.66260129     6    1028    0    0    0
C 1259.98916871 -73.90498473 -39.74294513     2    1028   1032   1033   1034
H 1260.51024623 -71.90082547 -39.35591124     6    1031    0    0    0
H 1260.52092711 -75.02768891 -38.03989821     6    1031    0    0    0
C 1261.34322625 -74.83298800 -42.10036352     1    1031   1035   1036   1037
H 1263.37596127 -75.14275288 -41.59701728     6    1034    0    0    0
H 1261.09700696 -73.55213623 -43.61861176     6    1034    0    0    0
H 1260.54716840 -76.67400941 -42.57967472     6    1034    0    0    0
H 1268.95786816 -60.35889453 -7.03613383     6     1039    0    0    0 
C 1267.09736763 -60.77961261 -7.82576853     1     1038    1040    1041    1042
H 1267.25766140 -62.45494993 -9.00851847     6     1039    0    0    0
H 1266.07536163 -61.27976725 -6.15433426     6     1039    0    0    0
C 1265.90443840 -58.60088673 -9.40829571     2     1039    1043    1044    1045
[...]
 1763      H    1264.0710354400   -63.8894533500   -57.9144058700
 1764      C    1267.4441847800   -63.4248114800   -55.7369589400
 1765      H    1268.4573445300   -62.3205992200   -57.1723989300
 1766      H    1267.8625770700   -62.5757304700   -53.9595118400
 1767      C    1268.1276015700   -66.1267994300   -55.4915507100
 1768      H    1266.5571576000   -67.1320479200   -54.6167247100
 1769      H    1268.2934068100   -66.8680586800   -57.4235218400
 1770      C    1270.6351036300   -66.5735451000   -54.0830127100
 1771      H    1271.7934707000   -64.9573753600   -54.6106729700
 1772      H    1270.1883650700   -66.2752771700   -52.0965752200
 1773      C    1271.6837876700   -69.2528785400   -54.7245497700
 1774      H    1269.9884334400   -70.4576115600   -54.4761182100
 1775      H    1272.2530634400   -69.3376936700   -56.6982904100
 1776      C    1273.9883514100   -69.7098558600   -52.9186865700
 1777      H    1275.6033012900   -68.5628040000   -53.4752334000
 1778      H    1273.3679333100   -69.0381862700   -50.9591390800
 1779      C    1274.9733318700   -72.4098085500   -52.7288234200
 1780      H    1273.4498542800   -73.5574544100   -51.8033078200
 1781      H    1275.1428321400   -73.1091991700   -54.5677194800
 1782      C    1277.2471916100   -72.5899469500   -51.1001533200
 1783      H    1277.0174858100   -71.5717491800   -49.3449619900
 1784      H    1277.2263359700   -74.7269289000   -50.7092548200
 1785      C    1279.6279543700   -71.7044954700   -52.4746088700
 1786      H    1279.5918678700   -72.5638196900   -54.3250244900
 1787      H    1279.4608428600   -69.6554920700   -52.8014234400
 1788      C    1282.1957825200   -72.2481949100   -51.0891836900
 1789      H    1282.4703519800   -70.9901608400   -49.4279013600
 1790      H    1281.9817240900   -74.0524278500   -50.1601279000
 1791      C    1284.5002229700   -72.2153349500   -52.7549085900
 1792      H    1284.0452957300   -73.2569136600   -54.5007203500
 1793      H    1284.7637879700   -70.2667500200   -53.4540795300
 1794      C    1287.0040335400   -72.9684330200   -51.1603577600
 1795      H    1286.5533255900   -74.6419894500   -49.8261590600
 1796      H    1287.3386756700   -71.4618050100   -49.7885265200
 1797      H    1288.6055586500   -73.3993163100   -52.1659971500
 1798      H    1284.2733298600   -39.8318149800   -27.9910323500
 1799      C    1284.3290055900   -40.1660166400   -26.0194933900
 1800      H    1285.3025412900   -41.9221012300   -25.6626732500
 1801      H    1285.1636033900   -38.7013638300   -24.8601866300
 1802      C    1281.5736834300   -40.4854192600   -25.1578340300
 1803      H    1280.5593159800   -38.8828249200   -25.7547432000
 1804      H    1281.0241049400   -42.2914550100   -26.0459604800
 1805      C    1281.2265891200   -40.9563465000   -22.3862291900
 1806      H    1281.8927110300   -42.8374643500   -21.8239875100
 1807      H    1282.4211804100   -39.4828366400   -21.4584377800
 1808      C    1278.3767885800   -40.6845072700   -21.3859875500
 1809      H    1278.3263519800   -40.9596905400   -19.4437477200
 1810      H    1277.7842158100   -38.5970720500   -21.3752472500
 1811      C    1276.3394195400   -42.2904331900   -22.6925903400
 1812      H    1276.5584390000   -42.2285478900   -24.7725539400
 1813      H    1276.5144962700   -44.2753440400   -22.2747163600
 1814      C    1273.6789302200   -41.1589289100   -22.0318065100
 1815      H    1273.1979394800   -41.0931493400   -19.9610621600
 1816      H    1273.7815853500   -39.1939574600   -22.5757947000
 1817      C    1271.6795174700   -42.3423850200   -23.6411630500
 1818      H    1272.1075612100   -42.6470140400   -25.6815484700
 1819      H    1271.5859556000   -44.2048546000   -22.8035966700
 1820      C    1268.9875989600   -41.3675354700   -23.5861792000
 1821      H    1268.3239841100   -40.7112182700   -21.6334132800
 1822      H    1269.0187941400   -39.6769417900   -24.7213978600
 1823      C    1267.0441209000   -43.2830119100   -24.5682538800
 1824      H    1267.7225129300   -43.5180628000   -26.5578527500
 1825      H    1267.1879182600   -45.1047025500   -23.7922228400
 1826      C    1264.3055118600   -42.3934449800   -24.1728570300
 1827      H    1263.9225193800   -42.1499016100   -22.1789465700
 1828      H    1264.2536398800   -40.5326489500   -25.1963207800
 1829      C    1262.3329344300   -44.3213175100   -24.8880921600
 1830      H    1262.6920447100   -45.0967681100   -26.7771785600
 1831      H    1262.5237744700   -45.9305032600   -23.6279787800
 1832      C    1259.6865293500   -43.0260871800   -24.6606858100
 1833      H    1258.0405181500   -44.2709708400   -24.5017037000
 1834      H    1259.4980828500   -42.0848264300   -26.4798498500
 1835      H    1259.6944986700   -41.6434658200   -23.1733971000
 1836      H    1264.6078728800   -50.5835787300   -34.9334453900
 1837      C    1266.1486915700   -51.3597636000   -33.7816750100
 1838      H    1265.7432985700   -51.4088597200   -31.6577031000
 1839      H    1266.4795696000   -53.1594624600   -34.3907033700
 1840      C    1268.4613836500   -49.6112238900   -34.2739089500
 1841      H    1270.2018568800   -49.9048366700   -33.2287525700
 1842      H    1268.9718019500   -49.6081335400   -36.1989576100
 1843      C    1267.5718673900   -46.9780235700   -33.3184086600
 1844      H    1265.5676750000   -46.1757596800   -33.8073898200
 1845      H    1267.3214005100   -47.2003171500   -31.2993062200
 1846      C    1269.4922776400   -44.9212908200   -34.0307698900
 1847      H    1271.3060081100   -45.7693857700   -34.3758560000
 1848      H    1269.1946450900   -44.0663851500   -35.9424497800
 1849      C    1269.7454715400   -42.9482035400   -31.9294324100
 1850      H    1268.1572782900   -41.6521810600   -31.8971772100
 1851      H    1269.6162872700   -44.1784515000   -30.1543592600
 1852      C    1272.2229136500   -41.2630990900   -32.3267887800
 1853      H    1272.1871940800   -40.2198707600   -34.0914210000
 1854      H    1272.3065426800   -39.8567554900   -30.8046966000
 1855      C    1274.7505360500   -42.7477747700   -32.2339536500
 1856      H    1274.6656641900   -43.8783692100   -30.6475723300
 1857      H    1274.7717630000   -43.8093810600   -33.9293200100
 1858      C    1277.2144371800   -41.1705433100   -31.9766224000
 1859      H    1277.2971375100   -39.7976622600   -33.5865683300
 1860      H    1277.3394953000   -40.0725190200   -30.2649448000
 1861      C    1279.3826486400   -42.9300927400   -32.2452106000
 1862      H    1279.5568959600   -44.1475931100   -30.5405065200
 1863      H    1279.1900137700   -44.3205196400   -33.6949412300
 1864      C    1281.9370677600   -41.6171945700   -32.9674856100
 1865      H    1281.8416264300   -40.8102062100   -34.7605878700
 1866      H    1282.1792786300   -40.0377780100   -31.7894700400
 1867      C    1284.1251059200   -43.4835015600   -32.6051094300
 1868      H    1284.1115891700   -44.1873213000   -30.5645355700
 1869      H    1283.7346350600   -45.1475481200   -33.7905576000
 1870      C    1286.7245351300   -42.6193656200   -33.3854131300
 1871      H    1288.0922851100   -43.8193689600   -32.5265422200
 1872      H    1286.9657796100   -40.6495741800   -32.7398550000
 1873      H    1286.7876789300   -42.8977245100   -35.4856993100
 1874      H    1290.0440693800   -68.6616642400   -34.7487450300
 1875      C    1289.3455939300   -67.8725297600   -32.9208241900
 1876      H    1289.6730236700   -69.0590565500   -31.2321521900
 1877      H    1290.0351507200   -65.8724852200   -32.3908845100
 1878      C    1286.4836044600   -67.8624132000   -33.1382139300
 1879      H    1285.8693804100   -66.4741476600   -34.4552166500
 1880      H    1285.9783592900   -69.5679929000   -34.0300693200
 1881      C    1285.2254951100   -67.4451887200   -30.5724106400
 1882      H    1285.4394794800   -69.1247671800   -29.3482401600
 1883      H    1286.0672421400   -65.9220205700   -29.4473305900
 1884      C    1282.4632962300   -66.8014225500   -31.0154829100
 1885      H    1282.4289259900   -65.1121768700   -32.1184682000
 1886      H    1281.2941669700   -68.1080806700   -32.0417302900
 1887      C    1280.9843736100   -66.4501489100   -28.5317621700
 1888      H    1281.5835482100   -67.7651161300   -27.1417336100
 1889      H    1281.5153131600   -64.5587967100   -27.9799748900
 1890      C    1278.0748844800   -66.4794117400   -29.1627373900
 1891      H    1277.4434333800   -65.1204851100   -30.5188161700
 1892      H    1277.7335255100   -68.1992566600   -29.9585596000
 1893      C    1276.3192186700   -66.2457262900   -26.8377948200
 1894      H    1277.0382888000   -67.6543562800   -25.5858772400
 1895      H    1276.4702202500   -64.3580813600   -25.9760194100
 1896      C    1273.6367526200   -66.9656188800   -27.3806854300
 1897      H    1273.0892972200   -65.8500512300   -29.0584682700
 1898      H    1273.6458642300   -68.8387363800   -28.1017757400
 1899      C    1271.8752827800   -67.0215473300   -25.0551777600
 1900      H    1272.8019092300   -68.0661464700   -23.6023653500
 1901      H    1271.5326282700   -65.0752808800   -24.7442622200
 1902      C    1269.3303415600   -68.1924178500   -25.4777695600
 1903      H    1268.5920430500   -67.3953889800   -27.2812877100
 1904      H    1269.8820540200   -70.1854985700   -25.8215454100
 1905      C    1267.8327080300   -67.9338576700   -23.0677972700
 1906      H    1268.8517680200   -68.9759693500   -21.5824840900
 1907      H    1267.7371427700   -66.0099707300   -22.4959309700
 1908      C    1265.2213181000   -69.1166605900   -23.1875957100
 1909      H    1265.1359663000   -71.1137036300   -23.7783269200
 1910      H    1263.8105279200   -68.1058094800   -24.3572628200
 1911      H    1264.5321577400   -69.1603900100   -21.2299980500
 ----------------------------------------------------------------
 Nuclear Repulsion Energy =           0.00000000 hartrees
 There are     2498 alpha and     2498 beta electrons

 Total QAlloc Memory Limit   2000 MB
 Mega-Array Size       204 MB
 MEM_STATIC part       192 MB
   **** Step 1: MM calculation on the entire system **** 
 OPLSAA force field loaded.
Reading user-defined FF parameters...
 Reading user defined atom types.
 Found 3 user defined AtomTypes
finished.
Determining angles, torsions, etc. from user defined input
Determining VDW/Coulomb pairs... (useList = 0)

 Time req'd to get MM system information: 0.1 s (CPU) 0.2 s (wall)

 ------ MM Energies ------
   Ebond:           553.026434056515
   Eangle:          889.011962036140
   EUreyBrad:         0.000000000000
   Eimptors:          0.000000000000
   Etorsion:        228.140889674936
   Evdw:        1188439.675106290029
   Ecoulomb:        183.432630145170
   Etot:        1190293.287022202741 Kcal/mol (   1896.853102671661 hartree)
 -------------------------
 Time req'd to calc MM energy: 0.1 s (CPU) 0.1 s (wall)
 OPLSAA force field loaded.
Reading user-defined FF parameters...
 Reading user defined atom types.
 Found 3 user defined AtomTypes
finished.
 Time req'd to get MM system information: 0.0 s (CPU) 0.0 s (wall)
 Time req'd to calc MM gradient: 0.2 s (CPU) 0.2 s (wall)
   **** Step 2: MM calculation on the model system **** 
 Reading user defined atom types.
 Found 3 user defined AtomTypes
 ----------------------------------------------------------------
             Standard Nuclear Orientation (Bohr)
    I     Atom           X                Y                Z
 ----------------------------------------------------------------
    1      Fe   1268.7056421900   -59.1552551300   -30.4136243400
    2      C    1267.4858042400   -62.2667606500   -29.9950260400
    3      C    1270.2385198400   -56.0313030000   -30.8975482100
    4      C    1268.7064196700   -59.7239004200   -33.7721788100
    5      C    1266.1614002300   -58.1647268900   -28.6576270500
    6      C    1271.7918065800   -60.1564479700   -28.9599506100
    7      O    1266.1506367700   -64.0297540200   -29.7262855700
    8      O    1271.3494536000   -54.2041097900   -31.0649870700
    9      O    1269.1362614300   -60.1535136400   -35.9283669000
   10      O    1264.3196160900   -57.5675230100   -27.5504629500
   11      O    1273.3849575100   -60.8472738600   -27.7173907000
 ----------------------------------------------------------------
 Nuclear Repulsion Energy =         802.30043162 hartrees
 There are       48 alpha and       48 beta electrons
 OPLSAA force field loaded.
Reading user-defined FF parameters...
 Reading user defined atom types.
 Found 3 user defined AtomTypes
finished.
Determining VDW/Coulomb pairs... (useList = 0)

 No MM bonds in system. Return all possible pairs.
 Time req'd to get MM system information: 0.0 s (CPU) 0.0 s (wall)

 ------ MM Energies ------
   Ebond:             0.000000000000
   Eangle:            0.000000000000
   EUreyBrad:         0.000000000000
   Eimptors:          0.000000000000
   Etorsion:          0.000000000000
   Evdw:        1188849.736869201297
   Ecoulomb:         -6.527006272245
   Etot:        1188843.209862929070 Kcal/mol (   1894.542257614673 hartree)
 -------------------------
 Eold: 1896.8531027 mm_energy: 1894.5422576 Enew:    2.3108451
 Time req'd to calc MM energy: 0.0 s (CPU) 0.0 s (wall)
 OPLSAA force field loaded.
Reading user-defined FF parameters...
 Reading user defined atom types.
 Found 3 user defined AtomTypes
finished.
Determining VDW/Coulomb pairs... (useList = 0)

 No MM bonds in system. Return all possible pairs.
 Time req'd to get MM system information: 0.0 s (CPU) 0.0 s (wall)
 Number of fixed atoms: 0
 Time req'd to calc MM gradient: 0.0 s (CPU) 0.0 s (wall)
   **** Step 3: QM calculation on the model system **** 
 Requested basis set is def2-mSVP
 There are 80 shells and 174 basis functions

                       Distance Matrix (Bohrs)
             Fe(  1)   C (  2)   C (  3)   C (  4)   C (  5)   C (  6)
   C (  2)  3.368189
   C (  3)  3.513257  6.875531
   C (  4)  3.406354  4.714120  4.924034
   C (  5)  3.246204  4.513243  5.117778  5.921722
   C (  6)  3.555273  4.905758  4.814956  5.732735  5.979952
   O (  7)  5.546280  2.227788  9.058580  6.437519  5.961601  6.885678
   O (  8)  5.650474  9.004385  2.144958  6.691981  6.956850  6.329075
   O (  9)  5.620884  6.511095  6.596721  2.240196  8.103624  7.457262
   O ( 10)  5.473190  6.171181  6.971110  7.912254  2.230389  8.032610
   O ( 11)  5.659381  6.480939  6.573207  7.733766  7.762724  2.135258
             O (  7)   O (  8)   O (  9)   O ( 10)
   O (  8) 11.196567
   O (  9)  7.899684  7.996630
   O ( 10)  7.060260  8.548862 10.003834
   O ( 11)  8.154706  7.712412  9.271076  9.641838

 A cutoff of  1.0D-11 yielded   2499 shell pairs
 There are     12869 function pairs (     14725 Cartesian)
 Smallest overlap matrix eigenvalue = 2.52E-03
 Guess MOs from SCF MO coefficient file
 Reading MOs from coefficient file
 Reading MOs from coefficient file
 A restricted Kohn-Sham SCF calculation will be
 performed using Pulay DIIS extrapolation
 Exchange:  B88      Correlation:  P86
 Using SG-1 standard quadrature grid
 SCF converges when DIIS error is below 1.0E-08
 Using Q-Chem read-in guess as SCF_GUESS READ specified.

 using 2 threads for integral computing
 -------------------------------------------------------
 OpenMP Integral computing Module                
 Release: version 1.0, May 2013, Q-Chem Inc. Pittsburgh 
 -------------------------------------------------------
 ---------------------------------------
  Cycle       Energy         DIIS Error
 ---------------------------------------
    1   -1830.5090268129      1.20E-09
    2   -1830.5090268133      1.39E-08
    3   -1830.5090268130      8.67E-10 Convergence criterion met
 ---------------------------------------
 SCF time:  CPU 4.18 s  wall 2.19 s
 E(QM + QM/MM):    -1830.5090268130 E(MM):    2.3108451 E(Tot): -1828.198181756014 
 SCF   energy in the final basis set = -1828.19818176
 Total energy in the final basis set = -1828.19818176

 --------------------------------------------------------------

                    Orbital Energies (a.u.)
 --------------------------------------------------------------

 Alpha MOs
 -- Occupied --
******** -29.6330 -25.5929 -25.5790 -25.5771 -18.8954 -18.8914 -18.8846
-18.8726 -18.8551 -10.0582 -10.0566 -10.0500 -10.0429 -10.0248  -3.3187
 -2.1543  -2.1304  -2.1219  -1.0831  -1.0814  -1.0500  -1.0338  -1.0213
 -0.5742  -0.5301  -0.5238  -0.5156  -0.5072  -0.4596  -0.4524  -0.4465
 -0.4403  -0.4390  -0.4343  -0.4309  -0.4196  -0.4131  -0.4089  -0.4012
 -0.3967  -0.3916  -0.3881  -0.3770  -0.2759  -0.2707  -0.2303  -0.2213
 -- Virtual --
 -0.1149  -0.0878  -0.0848  -0.0787  -0.0765  -0.0640  -0.0616  -0.0543
 -0.0408  -0.0322  -0.0187   0.0154   0.1878   0.2137   0.2250   0.2629
  0.2945   0.3279   0.3497   0.3962   0.4045   0.4207   0.4273   0.4396
  0.4467   0.4727   0.5017   0.5113   0.5250   0.5606   0.5725   0.5834
  0.6102   0.6289   0.6424   0.6563   0.7301   0.7413   0.7666   0.7707
  0.7938   0.8130   0.8342   0.8736   0.8922   0.9068   0.9339   0.9492
  0.9656   0.9802   0.9929   0.9977   1.0160   1.0183   1.0416   1.0620
  1.2035   1.2494   1.2886   1.3064   1.3919   1.3973   1.4098   1.4119
  1.4219   1.4233   1.4300   1.4384   1.4518   1.4586   1.4654   1.4986
  1.5315   1.5365   1.5535   1.5689   1.5821   1.6410   1.6671   1.6876
  1.7151   1.8161   1.8326   1.8375   1.8436   1.8466   1.8552   1.8576
  1.8638   1.8752   1.8837   1.8877   1.8965   1.9159   1.9345   1.9518
  2.3623   2.4004   2.4094   2.4499   2.4608   2.4693   2.4790   2.4896
  2.5144   2.5402   2.6218   2.6354   2.6745   2.6771   2.6952   2.8163
  2.8271   2.8722   2.9188   2.9752  13.2610  13.3035  13.3121  13.3423
 13.4678  24.9007  24.9381  24.9647  24.9778  25.0142
 --------------------------------------------------------------

          Ground-State Mulliken Net Atomic Charges

     Atom                 Charge (a.u.)
  ----------------------------------------
      1 Fe                   -0.469130
      2 C                     0.193200
      3 C                     0.204959
      4 C                     0.225897
      5 C                     0.176260
      6 C                     0.220090
      7 O                    -0.120810
      8 O                    -0.075963
      9 O                    -0.135282
     10 O                    -0.151011
     11 O                    -0.068210
  ----------------------------------------
  Sum of atomic charges =     0.000000

 -----------------------------------------------------------------
                    Cartesian Multipole Moments
 -----------------------------------------------------------------
    Charge (ESU x 10^10)
                -0.0000
    Dipole Moment (Debye)
         X       1.2484181692      Y      -0.0112219270      Z      -0.0961899061
       Tot       1.2521686607
    Quadrupole Moments (Debye-Ang)
        XX    1606.3223     XY     -46.5666     YY     -66.8602
        XZ     -83.0288     YZ       2.3591     ZZ     -67.6414
    Octopole Moments (Debye-Ang^2)
       XXX 1547175.9688    XXY  -55274.2362    XYY  -43669.8461
       YYY    6326.4553    XXZ  -67011.0664    XYZ    2163.0516
       YYZ    1033.2820    XZZ  -45145.8346    YZZ    2147.7502
       ZZZ    3351.8218
    Hexadecapole Moments (Debye-Ang^3)
      XXXX ************   XXXY ************   XXYY ************
      XYYY 4209367.8045   YYYY -398424.5381   XXXZ ************
      XXYZ 1806007.3628   XYYZ  675581.0037   YYYZ -101243.1677
      XXZZ ************   XYZZ 1433513.7568   YYZZ  -85880.2244
      XZZZ 2246613.0386   YZZZ -105840.0101   ZZZZ -109706.3514
 -----------------------------------------------------------------
 Calculating MO derivatives via CPSCF
 Full subspace dimension requested for CIS/TDDFT
 MAX_CIS_SUBSPACE fits in available memory
    1     0    36    0.0397998  
    2     0    36    0.0059628  
    3     0    36    0.0007473  
